# vtk DataFile Version 2.0
Presion
ASCII

DATASET STRUCTURED_GRID
DIMENSIONS   40   40   20

POINTS   32000   double
0.003725   0.00025625   0.015
0.011175   0.00025625   0.015
0.018625   0.00025625   0.015
0.026075   0.00025625   0.015
0.033525   0.00025625   0.015
0.040975   0.00025625   0.015
0.048425   0.00025625   0.015
0.055875   0.00025625   0.015
0.063325   0.00025625   0.015
0.070775   0.00025625   0.015
0.078225   0.00025625   0.015
0.085675   0.00025625   0.015
0.093125   0.00025625   0.015
0.100575   0.00025625   0.015
0.108025   0.00025625   0.015
0.115475   0.00025625   0.015
0.122925   0.00025625   0.015
0.130375   0.00025625   0.015
0.137825   0.00025625   0.015
0.145275   0.00025625   0.015
0.152725   0.00025625   0.015
0.160175   0.00025625   0.015
0.167625   0.00025625   0.015
0.175075   0.00025625   0.015
0.182525   0.00025625   0.015
0.189975   0.00025625   0.015
0.197425   0.00025625   0.015
0.204875   0.00025625   0.015
0.212325   0.00025625   0.015
0.219775   0.00025625   0.015
0.227225   0.00025625   0.015
0.234675   0.00025625   0.015
0.242125   0.00025625   0.015
0.249575   0.00025625   0.015
0.257025   0.00025625   0.015
0.264475   0.00025625   0.015
0.271925   0.00025625   0.015
0.279375   0.00025625   0.015
0.286825   0.00025625   0.015
0.294275   0.00025625   0.015
0.003725   0.00076875   0.015
0.011175   0.00076875   0.015
0.018625   0.00076875   0.015
0.026075   0.00076875   0.015
0.033525   0.00076875   0.015
0.040975   0.00076875   0.015
0.048425   0.00076875   0.015
0.055875   0.00076875   0.015
0.063325   0.00076875   0.015
0.070775   0.00076875   0.015
0.078225   0.00076875   0.015
0.085675   0.00076875   0.015
0.093125   0.00076875   0.015
0.100575   0.00076875   0.015
0.108025   0.00076875   0.015
0.115475   0.00076875   0.015
0.122925   0.00076875   0.015
0.130375   0.00076875   0.015
0.137825   0.00076875   0.015
0.145275   0.00076875   0.015
0.152725   0.00076875   0.015
0.160175   0.00076875   0.015
0.167625   0.00076875   0.015
0.175075   0.00076875   0.015
0.182525   0.00076875   0.015
0.189975   0.00076875   0.015
0.197425   0.00076875   0.015
0.204875   0.00076875   0.015
0.212325   0.00076875   0.015
0.219775   0.00076875   0.015
0.227225   0.00076875   0.015
0.234675   0.00076875   0.015
0.242125   0.00076875   0.015
0.249575   0.00076875   0.015
0.257025   0.00076875   0.015
0.264475   0.00076875   0.015
0.271925   0.00076875   0.015
0.279375   0.00076875   0.015
0.286825   0.00076875   0.015
0.294275   0.00076875   0.015
0.003725   0.00128125   0.015
0.011175   0.00128125   0.015
0.018625   0.00128125   0.015
0.026075   0.00128125   0.015
0.033525   0.00128125   0.015
0.040975   0.00128125   0.015
0.048425   0.00128125   0.015
0.055875   0.00128125   0.015
0.063325   0.00128125   0.015
0.070775   0.00128125   0.015
0.078225   0.00128125   0.015
0.085675   0.00128125   0.015
0.093125   0.00128125   0.015
0.100575   0.00128125   0.015
0.108025   0.00128125   0.015
0.115475   0.00128125   0.015
0.122925   0.00128125   0.015
0.130375   0.00128125   0.015
0.137825   0.00128125   0.015
0.145275   0.00128125   0.015
0.152725   0.00128125   0.015
0.160175   0.00128125   0.015
0.167625   0.00128125   0.015
0.175075   0.00128125   0.015
0.182525   0.00128125   0.015
0.189975   0.00128125   0.015
0.197425   0.00128125   0.015
0.204875   0.00128125   0.015
0.212325   0.00128125   0.015
0.219775   0.00128125   0.015
0.227225   0.00128125   0.015
0.234675   0.00128125   0.015
0.242125   0.00128125   0.015
0.249575   0.00128125   0.015
0.257025   0.00128125   0.015
0.264475   0.00128125   0.015
0.271925   0.00128125   0.015
0.279375   0.00128125   0.015
0.286825   0.00128125   0.015
0.294275   0.00128125   0.015
0.003725   0.00179375   0.015
0.011175   0.00179375   0.015
0.018625   0.00179375   0.015
0.026075   0.00179375   0.015
0.033525   0.00179375   0.015
0.040975   0.00179375   0.015
0.048425   0.00179375   0.015
0.055875   0.00179375   0.015
0.063325   0.00179375   0.015
0.070775   0.00179375   0.015
0.078225   0.00179375   0.015
0.085675   0.00179375   0.015
0.093125   0.00179375   0.015
0.100575   0.00179375   0.015
0.108025   0.00179375   0.015
0.115475   0.00179375   0.015
0.122925   0.00179375   0.015
0.130375   0.00179375   0.015
0.137825   0.00179375   0.015
0.145275   0.00179375   0.015
0.152725   0.00179375   0.015
0.160175   0.00179375   0.015
0.167625   0.00179375   0.015
0.175075   0.00179375   0.015
0.182525   0.00179375   0.015
0.189975   0.00179375   0.015
0.197425   0.00179375   0.015
0.204875   0.00179375   0.015
0.212325   0.00179375   0.015
0.219775   0.00179375   0.015
0.227225   0.00179375   0.015
0.234675   0.00179375   0.015
0.242125   0.00179375   0.015
0.249575   0.00179375   0.015
0.257025   0.00179375   0.015
0.264475   0.00179375   0.015
0.271925   0.00179375   0.015
0.279375   0.00179375   0.015
0.286825   0.00179375   0.015
0.294275   0.00179375   0.015
0.003725   0.00230625   0.015
0.011175   0.00230625   0.015
0.018625   0.00230625   0.015
0.026075   0.00230625   0.015
0.033525   0.00230625   0.015
0.040975   0.00230625   0.015
0.048425   0.00230625   0.015
0.055875   0.00230625   0.015
0.063325   0.00230625   0.015
0.070775   0.00230625   0.015
0.078225   0.00230625   0.015
0.085675   0.00230625   0.015
0.093125   0.00230625   0.015
0.100575   0.00230625   0.015
0.108025   0.00230625   0.015
0.115475   0.00230625   0.015
0.122925   0.00230625   0.015
0.130375   0.00230625   0.015
0.137825   0.00230625   0.015
0.145275   0.00230625   0.015
0.152725   0.00230625   0.015
0.160175   0.00230625   0.015
0.167625   0.00230625   0.015
0.175075   0.00230625   0.015
0.182525   0.00230625   0.015
0.189975   0.00230625   0.015
0.197425   0.00230625   0.015
0.204875   0.00230625   0.015
0.212325   0.00230625   0.015
0.219775   0.00230625   0.015
0.227225   0.00230625   0.015
0.234675   0.00230625   0.015
0.242125   0.00230625   0.015
0.249575   0.00230625   0.015
0.257025   0.00230625   0.015
0.264475   0.00230625   0.015
0.271925   0.00230625   0.015
0.279375   0.00230625   0.015
0.286825   0.00230625   0.015
0.294275   0.00230625   0.015
0.003725   0.00281875   0.015
0.011175   0.00281875   0.015
0.018625   0.00281875   0.015
0.026075   0.00281875   0.015
0.033525   0.00281875   0.015
0.040975   0.00281875   0.015
0.048425   0.00281875   0.015
0.055875   0.00281875   0.015
0.063325   0.00281875   0.015
0.070775   0.00281875   0.015
0.078225   0.00281875   0.015
0.085675   0.00281875   0.015
0.093125   0.00281875   0.015
0.100575   0.00281875   0.015
0.108025   0.00281875   0.015
0.115475   0.00281875   0.015
0.122925   0.00281875   0.015
0.130375   0.00281875   0.015
0.137825   0.00281875   0.015
0.145275   0.00281875   0.015
0.152725   0.00281875   0.015
0.160175   0.00281875   0.015
0.167625   0.00281875   0.015
0.175075   0.00281875   0.015
0.182525   0.00281875   0.015
0.189975   0.00281875   0.015
0.197425   0.00281875   0.015
0.204875   0.00281875   0.015
0.212325   0.00281875   0.015
0.219775   0.00281875   0.015
0.227225   0.00281875   0.015
0.234675   0.00281875   0.015
0.242125   0.00281875   0.015
0.249575   0.00281875   0.015
0.257025   0.00281875   0.015
0.264475   0.00281875   0.015
0.271925   0.00281875   0.015
0.279375   0.00281875   0.015
0.286825   0.00281875   0.015
0.294275   0.00281875   0.015
0.003725   0.00333125   0.015
0.011175   0.00333125   0.015
0.018625   0.00333125   0.015
0.026075   0.00333125   0.015
0.033525   0.00333125   0.015
0.040975   0.00333125   0.015
0.048425   0.00333125   0.015
0.055875   0.00333125   0.015
0.063325   0.00333125   0.015
0.070775   0.00333125   0.015
0.078225   0.00333125   0.015
0.085675   0.00333125   0.015
0.093125   0.00333125   0.015
0.100575   0.00333125   0.015
0.108025   0.00333125   0.015
0.115475   0.00333125   0.015
0.122925   0.00333125   0.015
0.130375   0.00333125   0.015
0.137825   0.00333125   0.015
0.145275   0.00333125   0.015
0.152725   0.00333125   0.015
0.160175   0.00333125   0.015
0.167625   0.00333125   0.015
0.175075   0.00333125   0.015
0.182525   0.00333125   0.015
0.189975   0.00333125   0.015
0.197425   0.00333125   0.015
0.204875   0.00333125   0.015
0.212325   0.00333125   0.015
0.219775   0.00333125   0.015
0.227225   0.00333125   0.015
0.234675   0.00333125   0.015
0.242125   0.00333125   0.015
0.249575   0.00333125   0.015
0.257025   0.00333125   0.015
0.264475   0.00333125   0.015
0.271925   0.00333125   0.015
0.279375   0.00333125   0.015
0.286825   0.00333125   0.015
0.294275   0.00333125   0.015
0.003725   0.00384375   0.015
0.011175   0.00384375   0.015
0.018625   0.00384375   0.015
0.026075   0.00384375   0.015
0.033525   0.00384375   0.015
0.040975   0.00384375   0.015
0.048425   0.00384375   0.015
0.055875   0.00384375   0.015
0.063325   0.00384375   0.015
0.070775   0.00384375   0.015
0.078225   0.00384375   0.015
0.085675   0.00384375   0.015
0.093125   0.00384375   0.015
0.100575   0.00384375   0.015
0.108025   0.00384375   0.015
0.115475   0.00384375   0.015
0.122925   0.00384375   0.015
0.130375   0.00384375   0.015
0.137825   0.00384375   0.015
0.145275   0.00384375   0.015
0.152725   0.00384375   0.015
0.160175   0.00384375   0.015
0.167625   0.00384375   0.015
0.175075   0.00384375   0.015
0.182525   0.00384375   0.015
0.189975   0.00384375   0.015
0.197425   0.00384375   0.015
0.204875   0.00384375   0.015
0.212325   0.00384375   0.015
0.219775   0.00384375   0.015
0.227225   0.00384375   0.015
0.234675   0.00384375   0.015
0.242125   0.00384375   0.015
0.249575   0.00384375   0.015
0.257025   0.00384375   0.015
0.264475   0.00384375   0.015
0.271925   0.00384375   0.015
0.279375   0.00384375   0.015
0.286825   0.00384375   0.015
0.294275   0.00384375   0.015
0.003725   0.00435625   0.015
0.011175   0.00435625   0.015
0.018625   0.00435625   0.015
0.026075   0.00435625   0.015
0.033525   0.00435625   0.015
0.040975   0.00435625   0.015
0.048425   0.00435625   0.015
0.055875   0.00435625   0.015
0.063325   0.00435625   0.015
[...]
POINT_DATA   32000
SCALARS Presion double
LOOKUP_TABLE   Presion

0 0 0 0 0 0 0 0 0 0 0 0 0 0 0 0 0 0 0 0 0 0 0 0 0 0 0 0 0 0 0 0 0 0 0 0 0 0 0 0 0.00115713 0.00224496 0.00199217 0.00196893 0.00171759 0.00127279 0.000816496 0.00050601 0.000433446 0.000661044 0.00197961 0.0052991 -0.000505896 2.27098e-05 0.00128226 0.00207549 0.00294365 0.00312902 0.00261727 0.00164618 0.000526955 -0.000411621 -0.000993366 -0.00112724 -0.00117443 -0.000605302 0.000892363 0.00266447 0.00297924 0.00244444 0.0017083 0.0013484 0.00148411 0.00198199 0.00218831 0.00212717 0.00206003 0.00202647 0.00200431 0.00198596 0.00275092 0.00307318 0.00306004 0.00288957 0.00262141 0.00227005 0.00193688 0.00171357 0.00164913 0.00173415 0.00203397 0.00268026 0.00288281 0.00329654 0.00361611 0.00361893 0.00424767 0.00469146 0.00470749 0.00451496 0.00415565 0.00370615 0.00342992 0.00334484 0.00300528 0.00276303 0.00261889 0.00332366 0.00366107 0.0036407 0.00348937 0.00338628 0.00327323 0.00332119 0.00347591 0.00356948 0.00361672 0.00363419 0.00362817 0.00361594 0.00639006 0.00671284 0.00669076 0.00664444 0.00649068 0.00624963 0.00604001 0.00595808 0.00607384 0.00644089 0.00749546 0.0119028 0.00560853 0.00600385 0.00647061 0.0064351 0.00661407 0.00629484 0.0054862 0.00469448 0.00412969 0.00378733 0.00353072 0.00331063 0.00344592 0.00434014 0.0054681 0.00604787 0.00611964 0.00565965 0.00512303 0.00495752 0.00512858 0.00539148 0.00545899 0.00539534 0.00533412 0.00529425 0.00526496 0.00524807 0.00725591 0.00653069 0.00674371 0.00676211 0.00666855 0.00653893 0.00647476 0.0065483 0.00677951 0.00711936 0.00760645 0.00951861 0.00784493 0.00817822 0.00858273 0.00874252 0.00924547 0.00941184 0.00907688 0.00858002 0.00814252 0.00783455 0.0075425 0.00708005 0.00650818 0.00609253 0.00608538 0.00716092 0.00744323 0.00733275 0.00710842 0.00684319 0.00667232 0.00676564 0.00691379 0.00695876 0.0069512 0.00692529 0.00689556 0.00687917 0.0108777 0.0110008 0.0110608 0.0109734 0.0108115 0.0105813 0.0103844 0.0103025 0.0103955 0.0107084 0.0115336 0.0144946 0.0100876 0.0101848 0.0102341 0.00995332 0.00996122 0.00978921 0.00935786 0.00892154 0.00853606 0.00814065 0.00782091 0.00784839 0.00820103 0.0087812 0.00908115 0.00938386 0.00938784 0.00899299 0.00864546 0.00859272 0.00865826 0.00874985 0.00875752 0.00869181 0.00862348 0.00856853 0.00852773 0.00851019 0.0121817 0.0115847 0.0117786 0.0118304 0.011768 0.0116571 0.0115826 0.0116119 0.0117883 0.0121332 0.0128956 0.0156956 0.0127635 0.0129893 0.0132709 0.0132659 0.0134667 0.0134198 0.0130583 0.0126417 0.0122455 0.0117697 0.0111585 0.0104989 0.00980767 0.00960566 0.0100294 0.0109259 0.0110784 0.0109412 0.0105688 0.0102418 0.0101208 0.0102205 0.0103171 0.0103111 0.0102615 0.0102045 0.0101587 0.0101409 0.0144 0.0147299 0.0146185 0.0144564 0.0142658 0.0140307 0.0138309 0.0137318 0.0137756 0.0139848 0.0145711 0.0166342 0.0140975 0.014016 0.0140064 0.0138657 0.0139941 0.0139556 0.0136266 0.0131761 0.0127307 0.012433 0.0123591 0.0124412 0.0124801 0.0124592 0.0124792 0.0127462 0.0127132 0.0124432 0.0122592 0.0121611 0.0120943 0.0120913 0.0120703 0.0119971 0.0119148 0.011842 0.0117895 0.0117714 0.0169718 0.0167686 0.0167739 0.0167292 0.0166233 0.0164853 0.0163912 0.016403 0.0165614 0.0169006 0.01768 0.020047 0.0171766 0.0172351 0.017354 0.0173084 0.0174562 0.0174129 0.0170666 0.0165525 0.0159388 0.0152606 0.0145302 0.0138369 0.0134425 0.013545 0.0139755 0.0145781 0.0146959 0.0143994 0.0139624 0.0136855 0.013599 0.0136561 0.0136902 0.0136404 0.0135582 0.0134777 0.0134199 0.0134016 0.018034 0.0184002 0.0181344 0.0179385 0.0177352 0.0175049 0.0173156 0.0172275 0.0172778 0.0174865 0.0180259 0.0197412 0.0182276 0.0180567 0.0180921 0.0180453 0.0181799 0.0181177 0.0177664 0.0173609 0.0170808 0.0169107 0.0167578 0.0165104 0.0161508 0.0159085 0.0158781 0.0162306 0.016123 0.0160273 0.0158373 0.0156351 0.0154872 0.0154369 0.0153927 0.0153047 0.015204 0.015113 0.0150501 0.0150317 0.0212425 0.0213622 0.0212109 0.0210664 0.0209027 0.0207163 0.0205726 0.0205304 0.0206307 0.02091 0.0215716 0.0233003 0.0212632 0.0212692 0.0213301 0.0212767 0.0213401 0.0211855 0.0207155 0.0200744 0.0193639 0.0186296 0.0179942 0.0175784 0.0174044 0.0175206 0.0177929 0.0180907 0.0181579 0.0177718 0.017396 0.0171686 0.0170689 0.0170648 0.0170419 0.0169557 0.0168471 0.0167475 0.0166799 0.0166615 0.0220158 0.0221295 0.0218545 0.0216719 0.0214839 0.0212835 0.0211312 0.0210819 0.0211703 0.0214205 0.0219942 0.0234931 0.022451 0.0222798 0.022321 0.0222705 0.0223255 0.0222441 0.0219925 0.0216969 0.0214137 0.0210787 0.0206304 0.0201044 0.0196049 0.0193532 0.019423 0.0198156 0.0197209 0.0196062 0.0193246 0.0190543 0.0188708 0.0187892 0.0187189 0.0186107 0.0184897 0.0183815 0.0183095 0.0182911 0.0252333 0.0254518 0.0251803 0.0249762 0.0247802 0.0245765 0.0244203 0.0243654 0.0244488 0.0247029 0.0252749 0.0265482 0.0252169 0.0251154 0.0251104 0.0250174 0.0249812 0.0247262 0.0241755 0.0234766 0.0228062 0.0222581 0.0218481 0.0215665 0.0213854 0.0213445 0.0213938 0.0215388 0.0215013 0.0211824 0.0208753 0.0206513 0.0205129 0.02045 0.0203786 0.020262 0.0201311 0.0200149 0.0199389 0.0199205 0.0263099 0.0260689 0.0259015 0.0257546 0.0255969 0.0254352 0.0253276 0.0253249 0.0254588 0.0257553 0.0263633 0.0276708 0.0264966 0.0263746 0.0264087 0.0263998 0.0265029 0.0264788 0.026238 0.0258414 0.0253379 0.0247498 0.0241221 0.0235401 0.0231091 0.022976 0.0231131 0.0233979 0.0233264 0.023095 0.0227518 0.0224568 0.0222547 0.0221437 0.0220442 0.0219128 0.0217716 0.0216477 0.021568 0.0215496 0.0289405 0.0290516 0.0287278 0.0285064 0.0283026 0.0281066 0.0279672 0.0279331 0.0280366 0.0283034 0.0288445 0.0298935 0.0290568 0.0288768 0.0287894 0.0286216 0.0284724 0.0281499 0.0276444 0.0271023 0.0266258 0.0262202 0.0258488 0.0254906 0.025153 0.0249391 0.0248872 0.0250069 0.0249021 0.0246505 0.0243594 0.0241106 0.0239299 0.0238165 0.0237048 0.0235619 0.0234111 0.0232801 0.0231969 0.0231785 0.0306545 0.0304099 0.0302386 0.0300753 0.0299053 0.0297345 0.0296128 0.0295866 0.0296879 0.0299497 0.0305001 0.0315112 0.0306609 0.0305566 0.030626 0.030645 0.0306864 0.0305286 0.0300973 0.0294921 0.0288285 0.0281802 0.0275965 0.0271278 0.0268164 0.0267209 0.0267847 0.0269144 0.0268178 0.0265184 0.0261594 0.0258565 0.0256375 0.0254957 0.025365 0.0252098 0.0250497 0.024912 0.0248256 0.0248071 0.03284 0.0326666 0.0324003 0.0322164 0.0320417 0.0318781 0.0317695 0.0317585 0.0318724 0.0321348 0.0326418 0.0335402 0.0326301 0.0324213 0.032309 0.0321606 0.0320681 0.0318707 0.0315186 0.031085 0.030627 0.0301498 0.0296484 0.0291483 0.0287129 0.0284601 0.0284106 0.0285112 0.0283785 0.0281307 0.0278219 0.0275416 0.0273235 0.0271687 0.0270231 0.0268564 0.0266874 0.0265434 0.026454 0.0264354 0.0347209 0.0344412 0.0342276 0.0340376 0.0338582 0.0336939 0.0335901 0.0335911 0.0337267 0.0340228 0.0345649 0.0353942 0.0348765 0.0347208 0.0346642 0.0345375 0.0343907 0.0340697 0.0335461 0.0329282 0.0323208 0.0317726 0.0312946 0.0308924 0.0305781 0.0304035 0.0303533 0.0303756 0.0302358 0.0299206 0.0295634 0.0292535 0.0290146 0.0288407 0.0286795 0.0285017 0.0283242 0.0281743 0.0280821 0.0280635 0.0366789 0.0365056 0.0362309 0.0360294 0.0358377 0.035659 0.0355336 0.0355018 0.0355923 0.0358324 0.0363071 0.0370617 0.0363872 0.0362117 0.0361755 0.0361146 0.0360668 0.035876 0.0354863 0.0349647 0.0343855 0.03379 0.0332072 0.0326777 0.032258 0.0320276 0.0319751 0.0320213 0.0318659 0.0315896 0.0312545 0.0309468 0.0306987 0.0305097 0.030334 0.0301456 0.0299602 0.0298047 0.02971 0.0296912 0.0388577 0.0384877 0.0382787 0.0380963 0.037925 0.0377709 0.0376725 0.0376678 0.0377823 0.0380373 0.0384921 0.0391333 0.0385857 0.0383614 0.0382197 0.0380425 0.037865 0.0375621 0.0371051 0.0365749 0.0360462 0.0355441 0.035066 0.0346178 0.0342292 0.0339704 0.0338485 0.0338125 0.0336378 0.0333219 0.0329644 0.0326423 0.0323807 0.0321761 0.0319867 0.0317881 0.0315952 0.0314347 0.0313376 0.0313187 0.0406116 0.0402716 0.040036 0.0398461 0.039669 0.0395106 0.0394096 0.0394047 0.0395231 0.0397897 0.040264 0.0409117 0.0404418 0.0402691 0.0401947 0.0400793 0.0399367 0.0396392 0.0391505 0.0385466 0.0379134 0.0373022 0.0367388 0.0362468 0.0358586 0.0356254 0.0355315 0.035506 0.035322 0.0350157 0.0346598 0.0343314 0.0340586 0.0338399 0.0336375 0.0334293 0.0332294 0.0330642 0.0329649 0.0329457 0.0426361 0.0423377 0.0420791 0.0418709 0.0416794 0.0415088 0.0413935 0.0413689 0.0414599 0.0416872 0.0420953 0.0426255 0.0421931 0.041965 0.0418357 0.0416922 0.041547 0.041286 0.0408708 0.0403582 0.0398097 0.0392562 0.0387122 0.0382015 0.0377669 0.0374728 0.0373195 0.0372441 0.0370427 0.0367199 0.0363545 0.0360169 0.035733 0.0355008 0.0352862 0.0350691 0.0348626 0.0346931 0.0345919 0.0345725 0.0446598 0.0442685 0.0440439 0.0438553 0.0436813 0.0435289 0.0434329 0.0434283 0.0435398 0.0437872 0.0442063 0.0447232 0.0442899 0.0440749 0.0439189 0.0437249 0.0434998 0.043144 0.0426346 0.0420419 0.0414407 0.0408691 0.0403383 0.0398597 0.0394605 0.0391894 0.0390409 0.0389531 0.0387407 0.0384135 0.0380431 0.0376978 0.0374035 0.0371589 0.036933 0.0367074 0.0364949 0.0363216 0.0362185 0.0361988 0.0463913 0.0460195 0.0457708 0.0455639 0.0453752 0.0452102 0.0451015 0.0450832 0.0451803 0.0454128 0.0458107 0.0462756 0.0459644 0.0457645 0.0456509 0.0455161 0.0453505 0.0450514 0.0445863 0.0440135 0.0434036 0.0428008 0.0422273 0.0417042 0.0412654 0.0409595 0.0407808 0.0406652 0.0404396 0.0401038 0.039727 0.0393741 0.0390701 0.0388139 0.0385775 0.0383442 0.0381263 0.0379495 0.0378448 0.0378248 0.0484914 0.0481725 0.0479128 0.0477028 0.0475107 0.0473419 0.0472266 0.0471969 0.0472757 0.0474796 0.0478286 0.0482242 0.0478473 0.0476014 0.047417 0.0472155 0.0469917 0.0466565 0.0461829 0.0456242 0.045042 0.0444716 0.043928 0.0434272 0.043 0.0426929 0.0425021 0.0423676 0.0421305 0.041788 0.0414056 0.0410457 0.0407327 0.0404659 0.0402199 0.0399795 0.0397567 0.0395768 0.0394708 0.0394503 0.0502588 0.0498063 0.0495779 0.0493841 0.0492086 0.0490588 0.0489655 0.0489607 0.0490672 0.0493006 0.0496735 0.0500677 0.0497806 0.04956 0.0493912 0.049195 0.0489586 0.0485989 0.0480939 0.0474991 0.0468805 0.046278 0.0457093 0.0451899 0.0447483 0.0444261 0.044218 0.0440637 0.0438157 0.0434665 0.0430788 0.0427124 0.0423912 0.0421147 0.0418599 0.0416132 0.0413861 0.0412036 0.0410964 0.0410754 0.0520754 0.0517366 0.0514704 0.0512501 0.051051 0.0508781 0.0507601 0.0507278 0.050804 0.051004 0.0513358 0.051678 0.0513951 0.0511686 0.0509973 0.0508089 0.0505851 0.050245 0.0497644 0.0491929 0.0485921 0.0480013 0.0474389 0.0469211 0.0464768 0.0461459 0.0459239 0.0457523 0.0454942 0.0451388 0.0447463 0.044374 0.0440454 0.0437603 0.0434977 0.0432454 0.0430144 0.0428298 0.0427215 0.0427001 0.0540369 0.0536671 0.0534137 0.053203 0.0530122 0.0528475 0.0527365 0.052709 0.0527866 0.0529824 0.0532974 0.0536053 0.0533272 0.0530847 0.0528847 0.0526661 0.0524095 0.0520407 0.0515383 0.0509507 0.0503379 0.0497381 0.0491692 0.0486461 0.0481959 0.0478556 0.0476205 0.0474331 0.0471657 0.0468048 0.0464079 0.0460304 0.0456953 0.0454025 0.0451331 0.0448759 0.0446418 0.0444554 0.0443463 0.0443244 0.0557038 0.0553027 0.0550492 0.0548377 0.0546472 0.054484 0.0543755 0.0543513 0.0544326 0.054632 0.0549454 0.0552401 0.0549989 0.0547681 0.0545759 0.0543649 0.054112 0.0537467 0.0532488 0.0526647 0.0520531 0.0514529 0.0508825 0.0503568 0.0499024 0.0495542 0.0493074 0.049106 0.0488302 0.0484643 0.0480637 0.0476817 0.0473409 0.0470414 0.0467661 0.0465048 0.0462681 0.0460804 0.0459706 0.0459481 0.057559 0.0572059 0.0569412 0.0567207 0.0565226 0.0563524 0.0562362 0.0562026 0.0562724 0.0564569 0.0567476 0.0570102 0.0567712 0.0565315 0.0563254 0.0561019 0.0558365 0.0554618 0.0549589 0.054372 0.0537582 0.0531558 0.0525832 0.052055 0.0515967 0.0512416 0.0509846 0.0507707 0.0504874 0.0501173 0.0497135 0.0493277 0.0489821 0.0486771 0.0483968 0.0481321 0.0478935 0.0477048 0.0475945 0.0475715 0.0592787 0.0589009 0.0586402 0.0584231 0.0582281 0.0580611 0.0579477 0.0579163 0.0579872 0.0581707 0.0584541 0.0587002 0.0584777 0.0582396 0.0580302 0.0578034 0.0575326 0.0571541 0.0566498 0.0560624 0.0554478 0.0548443 0.0542703 0.0537401 0.0532788 0.0529178 0.0526519 0.0524272 0.0521373 0.0517637 0.0513574 0.0509687 0.0506192 0.0503095 0.0500251 0.0497578 0.0495178 0.0493285 0.0492179 0.0491943 0.0610131 0.0606505 0.0603853 0.0601642 0.059966 0.0597965 0.0596805 0.0596458 0.0597125 0.0598899 0.0601619 0.0603895 0.0601765 0.0599373 0.0597227 0.0594912 0.0592146 0.058832 0.0583261 0.0577384 0.0571233 0.056519 0.055944 0.0554124 0.0549488 0.0545829 0.0543096 0.0540756 0.0537801 0.0534037 0.0529957 0.0526047 0.0522521 0.0519388 0.0516513 0.0513821 0.0511412 0.0509517 0.0508409 0.0508168 0.0627126 0.0623519 0.0620857 0.0618635 0.0616647 0.0614948 0.0613784 0.0613426 0.0614073 0.061581 0.0618445 0.0620576 0.0618539 0.0616146 0.0613965 0.0611615 0.0608804 0.0604946 0.0599878 0.0594001 0.058785 0.0581803 0.0576048 0.0570725 0.0566071 0.0562375 0.0559581 0.0557164 0.0554162 0.0550377 0.0546285 0.054236 0.0538813 0.0535653 0.0532755 0.053005 0.0527637 0.0525743 0.0524635 0.0524388 0.0643917 0.0640355 0.063768 0.0635445 0.0633447 0.0631743 0.0630572 0.0630203 0.0630831 0.0632535 0.0635096 0.0637104 0.0635142 0.0632752 0.0630541 0.0628164 0.0625316 0.0621433 0.061636 0.0610486 0.0604338 0.0598292 0.0592537 0.0587209 0.0582545 0.0578822 0.057598 0.05735 0.057046 0.0566661 0.0562564 0.055863 0.0555069 0.0551891 0.0548978 0.0546267 0.0543854 0.0541963 0.0540856 0.0540605 0.0660509 0.0656984 0.06543 0.0652055 0.0650051 0.0648344 0.0647169 0.0646792 0.0647407 0.0649084 0.0651585 0.0653492 0.0651592 0.0649205 0.0646973 0.0644575 0.0641699 0.0637797 0.0632721 0.0626852 0.062071 0.0614668 0.0608915 0.0603589 0.059892 0.0595178 0.05923 0.0589772 0.0586703 0.0582896 0.0578799 0.0574863 0.0571295 0.0568106 0.0565185 0.0562473 0.0560064 0.0558178 0.0557073 0.0556819 0.0676935 0.0673444 0.0670754 0.0668502 0.0666493 0.0664784 0.0663606 0.0663224 0.0663828 0.0665486 0.0667938 0.0669765 0.0667914 0.0665531 0.0663283 0.0660869 0.0657971 0.0654055 0.0648979 0.0643117 0.0636983 0.0630947 0.0625199 0.0619877 0.0615209 0.0611456 0.0608554 0.0605989 0.0602899 0.0599089 0.0594997 0.0591064 0.0587496 0.0584302 0.0581379 0.0578669 0.0576267 0.0574388 0.0573286 0.0573031 0.0693231 0.0689768 0.0687074 0.0684816 0.0682805 0.0681094 0.0679915 0.0679529 0.0680127 0.0681769 0.0684186 0.068595 0.0684134 0.0681755 0.0679497 0.0677072 0.0674159 0.0670233 0.0665157 0.0659302 0.0653175 0.0647147 0.0641406 0.063609 0.0631426 0.062767 0.0624753 0.0622163 0.0619059 0.0615251 0.0611167 0.0607241 0.0603676 0.0600484 0.0597563 0.0594859 0.0592465 0.0590594 0.0589496 0.0589241 0.0709431 0.070599 0.0703295 0.0701033 0.0699019 0.0697308 0.0696128 0.069574 0.0696333 0.0697966 0.0700357 0.0702077 0.0700283 0.0697907 0.0695642 0.0693211 0.0690287 0.0686354 0.068128 0.067543 0.0669311 0.066329 0.0657556 0.0652247 0.064759 0.0643835 0.0640912 0.0638308 0.0635196 0.0631393 0.0627317 0.0623401 0.0619843 0.0616656 0.0613741 0.0611044 0.0608659 0.0606797 0.0605704 0.0605451 0.0725577 0.0722151 0.0719455 0.071719 0.0715176 0.0713464 0.0712284 0.0711895 0.0712485 0.0714113 0.0716489 0.0718181 0.0716396 0.0714021 0.0711754 0.070932 0.0706388 0.070245 0.0697377 0.0691532 0.0685418 0.0679403 0.0673676 0.0668374 0.0663725 0.0659975 0.0657052 0.0654441 0.0651328 0.064753 0.0643464 0.0639557 0.0636008 0.0632828 0.062992 0.0627232 0.0624855 0.0623 0.0621912 0.0621665 0.0725484 0.0722065 0.0719369 0.0717103 0.0715087 0.0713374 0.0712194 0.0711804 0.0712393 0.0714018 0.0716388 0.0718067 0.0716278 0.0713901 0.0711633 0.0709197 0.0706261 0.0702319 0.0697244 0.06914 0.0685288 0.0679277 0.0673554 0.0668257 0.0663614 0.0659871 0.0656952 0.0654341 0.065123 0.0647438 0.0643379 0.063948 0.0635939 0.0632766 0.0629864 0.0627181 0.062481 0.0622959 0.0621874 0.0621634 0 0 0 0 0 0 0 0 0 0 0 0 0 0 0 0 0 0 0 0 0 0 0 0 0 0 0 0 0 0 0 0 0 0 0 0 0 0 0 0 0.0026667 0.00358591 0.00507888 0.00378907 0.00269125 0.00218307 0.00215998 0.00224068 0.0020711 0.00137781 -0.00131003 -0.00889228 0.00293968 0.00162164 0.00367763 0.00512414 0.00290794 0.000431702 -0.000848388 -0.000868927 0.000327602 0.00358817 0.00534696 0.00379509 0.00230167 0.00187397 0.00203505 -8.50284e-05 -0.00965059 -0.00604724 -0.0022896 -4.14476e-05 0.000286338 -0.00123252 -0.00115273 -6.73208e-05 0.000765978 0.00122131 0.00142637 0.00150185 0.0065935 0.00905423 0.00784358 0.00730788 0.00682688 0.0066812 0.00687588 0.00721597 0.00746544 0.00750818 0.00739493 0.00699763 0.00192353 0.00131442 0.00216048 0.00441317 0.00398121 0.00256569 0.0012148 -4.57517e-06 -0.000644163 0.000939364 0.00273083 0.00229526 0.0016302 0.0010491 0.00195894 0.00226588 -0.00635485 -0.00346861 -0.000796951 0.000560508 0.000871004 -0.00010601 2.59985e-05 0.00106736 0.00194198 0.00248245 0.00277072 0.00290709 0.00617974 0.00970642 0.00833181 0.00719317 0.00616484 0.0055539 0.00536153 0.00536379 0.00524461 0.00470178 0.00307141 0.000986183 0.00581964 0.00537536 0.00514132 0.00576137 0.00448917 0.00343956 0.00353095 0.0039022 0.00396313 0.00487974 0.00550837 0.00506209 0.00473568 0.00338619 0.00268142 0.00293166 -0.00438563 -0.00187129 0.0013799 0.0029196 0.00261935 0.00120128 0.00122792 0.00227905 0.00322988 0.00385277 0.00420295 0.00437674 0.0100238 0.0141508 0.0129593 0.0120035 0.0110394 0.0103225 0.0098436 0.00939916 0.00871061 0.00755723 0.00556593 0.0034707 0.00615055 0.00557845 0.00611173 0.00706123 0.00567435 0.00387187 0.00284606 0.00237546 0.00234237 0.00365994 0.00489796 0.00483364 0.00443001 0.00411772 0.00524088 0.00493994 -0.00134507 0.000299551 0.00256577 0.00404631 0.00427669 0.00319675 0.00310479 0.00393702 0.0047677 0.00535552 0.00571072 0.00589594 0.0109595 0.0125744 0.0117991 0.011097 0.0104005 0.0100523 0.0100542 0.0101715 0.0100331 0.00926776 0.00729402 0.00284921 0.00784314 0.00729395 0.0075146 0.00867975 0.00818081 0.00724395 0.0065433 0.00577787 0.00516742 0.00612791 0.00753879 0.00760985 0.00652289 0.00517756 0.00593704 0.00644997 0.000510512 0.00264806 0.00498728 0.0059851 0.00579306 0.00473631 0.0047007 0.00551349 0.00632458 0.00690505 0.00726168 0.00744956 0.0121103 0.0161998 0.0142698 0.013005 0.011896 0.0111408 0.0107535 0.0105678 0.0102892 0.00958687 0.00792208 0.0042434 0.00863486 0.00813337 0.00810579 0.00866123 0.00762875 0.00631961 0.00552756 0.00506343 0.00502785 0.00637861 0.00771985 0.00782697 0.00782615 0.00783977 0.0084395 0.00812202 0.00303503 0.00415744 0.00632921 0.00764317 0.00770393 0.00672889 0.00658059 0.00724079 0.00795933 0.00849953 0.00884377 0.00902769 0.0152372 0.0178303 0.0169596 0.0159832 0.0149773 0.0142184 0.0137305 0.0133621 0.0128617 0.0119767 0.0102458 0.00630198 0.0106552 0.0103988 0.0108325 0.0116348 0.0107443 0.00927678 0.00807952 0.00733437 0.00742329 0.00897562 0.0101851 0.00970192 0.00895736 0.00890073 0.00998453 0.00998165 0.00554712 0.00670972 0.00835721 0.00925322 0.00921048 0.00837378 0.00828658 0.00891802 0.00959963 0.0101142 0.0104454 0.0106229 0.015949 0.0178549 0.0170447 0.0162311 0.0153521 0.0147009 0.0143035 0.0140066 0.0135544 0.0126891 0.0110197 0.00756105 0.0109829 0.0105166 0.0106004 0.0110804 0.0102158 0.00907247 0.00838087 0.00809283 0.00826782 0.00956924 0.010977 0.0115398 0.01158 0.0113612 0.0118232 0.011562 0.00725819 0.0082665 0.010096 0.0111297 0.0111112 0.0102757 0.0101113 0.0106435 0.0112619 0.011744 0.0120601 0.0122298 0.0189683 0.0203808 0.0197561 0.0189424 0.0180688 0.0174307 0.0170635 0.0168346 0.0165174 0.0159079 0.0148263 0.0128583 0.0134329 0.0132894 0.0134048 0.0135994 0.0124239 0.0110695 0.0104396 0.0104633 0.0108294 0.0118403 0.0126276 0.0127506 0.0129187 0.0131844 0.0138913 0.0134745 0.00998801 0.0104625 0.0118245 0.0126822 0.0126894 0.0119812 0.0118528 0.0123481 0.0129266 0.0133818 0.013683 0.0138447 0.0194894 0.0209547 0.0203912 0.0195949 0.0187161 0.0180355 0.0175929 0.0172618 0.0168258 0.0160853 0.0148575 0.0127508 0.0138663 0.0134666 0.0136676 0.0140932 0.0133637 0.0123363 0.0116732 0.0114723 0.0118811 0.0133911 0.0148575 0.0152435 0.0151493 0.0150429 0.01548