# vtk DataFile Version 2.0
Temperatura
ASCII

DATASET STRUCTURED_GRID
DIMENSIONS   40   40   20

POINTS   32000   double
0.003725   0.00025625   0.015
0.011175   0.00025625   0.015
0.018625   0.00025625   0.015
0.026075   0.00025625   0.015
0.033525   0.00025625   0.015
0.040975   0.00025625   0.015
0.048425   0.00025625   0.015
0.055875   0.00025625   0.015
0.063325   0.00025625   0.015
0.070775   0.00025625   0.015
0.078225   0.00025625   0.015
0.085675   0.00025625   0.015
0.093125   0.00025625   0.015
0.100575   0.00025625   0.015
0.108025   0.00025625   0.015
0.115475   0.00025625   0.015
0.122925   0.00025625   0.015
0.130375   0.00025625   0.015
0.137825   0.00025625   0.015
0.145275   0.00025625   0.015
0.152725   0.00025625   0.015
0.160175   0.00025625   0.015
0.167625   0.00025625   0.015
0.175075   0.00025625   0.015
0.182525   0.00025625   0.015
0.189975   0.00025625   0.015
0.197425   0.00025625   0.015
0.204875   0.00025625   0.015
0.212325   0.00025625   0.015
0.219775   0.00025625   0.015
0.227225   0.00025625   0.015
0.234675   0.00025625   0.015
0.242125   0.00025625   0.015
0.249575   0.00025625   0.015
0.257025   0.00025625   0.015
0.264475   0.00025625   0.015
0.271925   0.00025625   0.015
0.279375   0.00025625   0.015
0.286825   0.00025625   0.015
0.294275   0.00025625   0.015
0.003725   0.00076875   0.015
0.011175   0.00076875   0.015
0.018625   0.00076875   0.015
0.026075   0.00076875   0.015
0.033525   0.00076875   0.015
0.040975   0.00076875   0.015
0.048425   0.00076875   0.015
0.055875   0.00076875   0.015
0.063325   0.00076875   0.015
0.070775   0.00076875   0.015
0.078225   0.00076875   0.015
0.085675   0.00076875   0.015
0.093125   0.00076875   0.015
0.100575   0.00076875   0.015
0.108025   0.00076875   0.015
0.115475   0.00076875   0.015
0.122925   0.00076875   0.015
0.130375   0.00076875   0.015
0.137825   0.00076875   0.015
0.145275   0.00076875   0.015
0.152725   0.00076875   0.015
0.160175   0.00076875   0.015
0.167625   0.00076875   0.015
0.175075   0.00076875   0.015
0.182525   0.00076875   0.015
0.189975   0.00076875   0.015
0.197425   0.00076875   0.015
0.204875   0.00076875   0.015
0.212325   0.00076875   0.015
0.219775   0.00076875   0.015
0.227225   0.00076875   0.015
0.234675   0.00076875   0.015
0.242125   0.00076875   0.015
0.249575   0.00076875   0.015
0.257025   0.00076875   0.015
0.264475   0.00076875   0.015
0.271925   0.00076875   0.015
0.279375   0.00076875   0.015
0.286825   0.00076875   0.015
0.294275   0.00076875   0.015
0.003725   0.00128125   0.015
0.011175   0.00128125   0.015
0.018625   0.00128125   0.015
0.026075   0.00128125   0.015
0.033525   0.00128125   0.015
0.040975   0.00128125   0.015
0.048425   0.00128125   0.015
0.055875   0.00128125   0.015
0.063325   0.00128125   0.015
0.070775   0.00128125   0.015
0.078225   0.00128125   0.015
0.085675   0.00128125   0.015
0.093125   0.00128125   0.015
0.100575   0.00128125   0.015
0.108025   0.00128125   0.015
0.115475   0.00128125   0.015
0.122925   0.00128125   0.015
0.130375   0.00128125   0.015
0.137825   0.00128125   0.015
0.145275   0.00128125   0.015
0.152725   0.00128125   0.015
0.160175   0.00128125   0.015
0.167625   0.00128125   0.015
0.175075   0.00128125   0.015
0.182525   0.00128125   0.015
0.189975   0.00128125   0.015
0.197425   0.00128125   0.015
0.204875   0.00128125   0.015
0.212325   0.00128125   0.015
0.219775   0.00128125   0.015
0.227225   0.00128125   0.015
0.234675   0.00128125   0.015
0.242125   0.00128125   0.015
0.249575   0.00128125   0.015
0.257025   0.00128125   0.015
0.264475   0.00128125   0.015
0.271925   0.00128125   0.015
0.279375   0.00128125   0.015
0.286825   0.00128125   0.015
0.294275   0.00128125   0.015
0.003725   0.00179375   0.015
0.011175   0.00179375   0.015
0.018625   0.00179375   0.015
0.026075   0.00179375   0.015
0.033525   0.00179375   0.015
0.040975   0.00179375   0.015
0.048425   0.00179375   0.015
0.055875   0.00179375   0.015
0.063325   0.00179375   0.015
0.070775   0.00179375   0.015
0.078225   0.00179375   0.015
0.085675   0.00179375   0.015
0.093125   0.00179375   0.015
0.100575   0.00179375   0.015
0.108025   0.00179375   0.015
0.115475   0.00179375   0.015
0.122925   0.00179375   0.015
0.130375   0.00179375   0.015
0.137825   0.00179375   0.015
0.145275   0.00179375   0.015
0.152725   0.00179375   0.015
0.160175   0.00179375   0.015
0.167625   0.00179375   0.015
0.175075   0.00179375   0.015
0.182525   0.00179375   0.015
0.189975   0.00179375   0.015
0.197425   0.00179375   0.015
0.204875   0.00179375   0.015
0.212325   0.00179375   0.015
0.219775   0.00179375   0.015
0.227225   0.00179375   0.015
0.234675   0.00179375   0.015
0.242125   0.00179375   0.015
0.249575   0.00179375   0.015
0.257025   0.00179375   0.015
0.264475   0.00179375   0.015
0.271925   0.00179375   0.015
0.279375   0.00179375   0.015
0.286825   0.00179375   0.015
0.294275   0.00179375   0.015
0.003725   0.00230625   0.015
0.011175   0.00230625   0.015
0.018625   0.00230625   0.015
0.026075   0.00230625   0.015
0.033525   0.00230625   0.015
0.040975   0.00230625   0.015
0.048425   0.00230625   0.015
0.055875   0.00230625   0.015
0.063325   0.00230625   0.015
0.070775   0.00230625   0.015
0.078225   0.00230625   0.015
0.085675   0.00230625   0.015
0.093125   0.00230625   0.015
0.100575   0.00230625   0.015
0.108025   0.00230625   0.015
0.115475   0.00230625   0.015
0.122925   0.00230625   0.015
0.130375   0.00230625   0.015
0.137825   0.00230625   0.015
0.145275   0.00230625   0.015
0.152725   0.00230625   0.015
0.160175   0.00230625   0.015
0.167625   0.00230625   0.015
0.175075   0.00230625   0.015
0.182525   0.00230625   0.015
0.189975   0.00230625   0.015
0.197425   0.00230625   0.015
0.204875   0.00230625   0.015
0.212325   0.00230625   0.015
0.219775   0.00230625   0.015
0.227225   0.00230625   0.015
0.234675   0.00230625   0.015
0.242125   0.00230625   0.015
0.249575   0.00230625   0.015
0.257025   0.00230625   0.015
0.264475   0.00230625   0.015
0.271925   0.00230625   0.015
0.279375   0.00230625   0.015
0.286825   0.00230625   0.015
0.294275   0.00230625   0.015
0.003725   0.00281875   0.015
0.011175   0.00281875   0.015
0.018625   0.00281875   0.015
0.026075   0.00281875   0.015
0.033525   0.00281875   0.015
0.040975   0.00281875   0.015
0.048425   0.00281875   0.015
0.055875   0.00281875   0.015
0.063325   0.00281875   0.015
0.070775   0.00281875   0.015
0.078225   0.00281875   0.015
0.085675   0.00281875   0.015
0.093125   0.00281875   0.015
0.100575   0.00281875   0.015
0.108025   0.00281875   0.015
0.115475   0.00281875   0.015
0.122925   0.00281875   0.015
0.130375   0.00281875   0.015
0.137825   0.00281875   0.015
0.145275   0.00281875   0.015
0.152725   0.00281875   0.015
0.160175   0.00281875   0.015
0.167625   0.00281875   0.015
0.175075   0.00281875   0.015
0.182525   0.00281875   0.015
0.189975   0.00281875   0.015
0.197425   0.00281875   0.015
0.204875   0.00281875   0.015
0.212325   0.00281875   0.015
0.219775   0.00281875   0.015
0.227225   0.00281875   0.015
0.234675   0.00281875   0.015
0.242125   0.00281875   0.015
0.249575   0.00281875   0.015
0.257025   0.00281875   0.015
0.264475   0.00281875   0.015
0.271925   0.00281875   0.015
0.279375   0.00281875   0.015
0.286825   0.00281875   0.015
0.294275   0.00281875   0.015
0.003725   0.00333125   0.015
0.011175   0.00333125   0.015
0.018625   0.00333125   0.015
0.026075   0.00333125   0.015
0.033525   0.00333125   0.015
0.040975   0.00333125   0.015
0.048425   0.00333125   0.015
0.055875   0.00333125   0.015
0.063325   0.00333125   0.015
0.070775   0.00333125   0.015
0.078225   0.00333125   0.015
0.085675   0.00333125   0.015
0.093125   0.00333125   0.015
0.100575   0.00333125   0.015
0.108025   0.00333125   0.015
0.115475   0.00333125   0.015
0.122925   0.00333125   0.015
0.130375   0.00333125   0.015
0.137825   0.00333125   0.015
0.145275   0.00333125   0.015
0.152725   0.00333125   0.015
0.160175   0.00333125   0.015
0.167625   0.00333125   0.015
0.175075   0.00333125   0.015
0.182525   0.00333125   0.015
0.189975   0.00333125   0.015
0.197425   0.00333125   0.015
0.204875   0.00333125   0.015
0.212325   0.00333125   0.015
0.219775   0.00333125   0.015
0.227225   0.00333125   0.015
0.234675   0.00333125   0.015
0.242125   0.00333125   0.015
0.249575   0.00333125   0.015
0.257025   0.00333125   0.015
0.264475   0.00333125   0.015
0.271925   0.00333125   0.015
0.279375   0.00333125   0.015
0.286825   0.00333125   0.015
0.294275   0.00333125   0.015
0.003725   0.00384375   0.015
0.011175   0.00384375   0.015
0.018625   0.00384375   0.015
0.026075   0.00384375   0.015
0.033525   0.00384375   0.015
0.040975   0.00384375   0.015
0.048425   0.00384375   0.015
0.055875   0.00384375   0.015
0.063325   0.00384375   0.015
0.070775   0.00384375   0.015
0.078225   0.00384375   0.015
0.085675   0.00384375   0.015
0.093125   0.00384375   0.015
0.100575   0.00384375   0.015
0.108025   0.00384375   0.015
0.115475   0.00384375   0.015
0.122925   0.00384375   0.015
0.130375   0.00384375   0.015
0.137825   0.00384375   0.015
0.145275   0.00384375   0.015
0.152725   0.00384375   0.015
0.160175   0.00384375   0.015
0.167625   0.00384375   0.015
0.175075   0.00384375   0.015
0.182525   0.00384375   0.015
0.189975   0.00384375   0.015
0.197425   0.00384375   0.015
0.204875   0.00384375   0.015
0.212325   0.00384375   0.015
0.219775   0.00384375   0.015
0.227225   0.00384375   0.015
0.234675   0.00384375   0.015
0.242125   0.00384375   0.015
0.249575   0.00384375   0.015
0.257025   0.00384375   0.015
0.264475   0.00384375   0.015
0.271925   0.00384375   0.015
0.279375   0.00384375   0.015
0.286825   0.00384375   0.015
0.294275   0.00384375   0.015
0.003725   0.00435625   0.015
0.011175   0.00435625   0.015
0.018625   0.00435625   0.015
0.026075   0.00435625   0.015
0.033525   0.00435625   0.015
0.040975   0.00435625   0.015
0.048425   0.00435625   0.015
0.055875   0.00435625   0.015
0.063325   0.00435625   0.015
[...]
POINT_DATA   32000
SCALARS Temperatura double
LOOKUP_TABLE   Temperatura

22.4 22.4 22.4 22.4 22.4 22.4 22.4 22.4 22.4 22.4 22.4 22.4 22.4 22.4 22.4 22.4 22.4 22.4 22.4 22.4 22.4 22.4 22.4 22.4 22.4 22.4 22.4 22.4 22.4 22.4 22.4 22.4 22.4 22.4 22.4 22.4 22.4 22.4 22.4 22.4 19.1781 12.7351 15.6336 15.5931 16.0277 16.6373 17.0725 17.2075 16.9898 16.2428 11.6913 -21.3275 22.3279 22.3207 22.303 22.4735 22.5618 22.4524 22.2846 22.2635 22.3203 22.3079 22.3894 22.4313 22.4149 22.4332 22.5194 22.5766 21.2979 23.0103 21.9237 21.6147 22.1796 24.0274 24.2391 23.1811 22.588 22.4171 22.3936 22.3944 21.8348 20.5978 20.3941 20.3259 20.3737 20.5921 20.8449 21.06 21.1787 21.0798 19.3063 1.79619 22.3597 22.4352 22.4087 22.4047 22.4143 22.4141 22.4215 22.4328 22.4313 22.4232 22.4195 22.4258 22.4304 22.4436 22.4863 22.4376 22.2227 22.4257 22.2598 22.2613 22.2562 22.2353 22.0721 22.0777 22.2118 22.3206 22.3754 22.3916 22.1684 21.0234 21.7788 21.7951 21.8572 21.9299 21.9994 22.0635 22.1241 22.1792 22.1369 21.6431 22.4008 22.4082 22.4068 22.4071 22.4083 22.4116 22.4169 22.4192 22.4182 22.4169 22.4182 22.4213 22.4267 22.4376 22.4504 22.4391 22.413 22.4179 22.3608 22.3597 22.4063 22.4685 22.4012 22.3203 22.3183 22.356 22.3871 22.3953 22.3379 21.9478 22.1818 22.191 22.2154 22.2463 22.2776 22.3065 22.3314 22.3518 22.3506 22.2224 22.4029 22.4058 22.4077 22.4104 22.4128 22.4149 22.4164 22.4175 22.4187 22.4203 22.4222 22.4243 22.4272 22.4314 22.4371 22.4317 22.4357 22.4335 22.4252 22.4284 22.4097 22.3604 22.299 22.2947 22.3331 22.3746 22.3983 22.4001 22.3855 22.3227 22.3581 22.3579 22.3621 22.3684 22.3754 22.3825 22.3891 22.3956 22.4006 22.3804 22.4021 22.4038 22.4046 22.4057 22.4069 22.4083 22.4098 22.4113 22.4126 22.4142 22.4171 22.4214 22.4265 22.4315 22.4354 22.4358 22.4418 22.4416 22.4441 22.4464 22.4397 22.4218 22.3915 22.375 22.3816 22.399 22.4097 22.4048 22.3899 22.3684 22.3797 22.3807 22.383 22.3861 22.3894 22.3928 22.3962 22.3996 22.4032 22.4015 22.4042 22.4068 22.4085 22.41 22.4113 22.4125 22.4138 22.4152 22.4165 22.4179 22.4196 22.4216 22.4244 22.4288 22.4331 22.4364 22.4423 22.4454 22.4509 22.4526 22.4455 22.4293 22.4103 22.4025 22.4071 22.416 22.4187 22.4089 22.3905 22.3874 22.3893 22.3894 22.3902 22.3913 22.3925 22.3938 22.3952 22.3967 22.398 22.3971 22.3997 22.4015 22.4027 22.4039 22.4051 22.4063 22.4077 22.4093 22.4112 22.414 22.418 22.4224 22.4265 22.4301 22.4337 22.4372 22.4428 22.4474 22.4518 22.4533 22.4518 22.4457 22.4358 22.4284 22.427 22.4286 22.4256 22.4121 22.3947 22.3926 22.3938 22.3945 22.3955 22.3965 22.3977 22.399 22.4004 22.4019 22.4034 22.4039 22.4032 22.4056 22.4069 22.4081 22.4092 22.4102 22.4114 22.4126 22.4138 22.4152 22.4173 22.4205 22.4245 22.4289 22.4335 22.4377 22.4427 22.4475 22.452 22.4546 22.4547 22.4516 22.4462 22.4414 22.439 22.4371 22.4305 22.4146 22.3892 22.39 22.3897 22.3899 22.3905 22.3912 22.392 22.3929 22.394 22.3952 22.3962 22.396 22.3983 22.3999 22.4011 22.4024 22.4036 22.4049 22.4068 22.4092 22.412 22.4152 22.4189 22.4225 22.4259 22.4295 22.4336 22.4378 22.443 22.4475 22.4511 22.454 22.4559 22.4557 22.4532 22.4499 22.4468 22.4428 22.4339 22.4164 22.3943 22.3952 22.3952 22.3955 22.3961 22.3967 22.3975 22.3984 22.3994 22.4006 22.4016 22.4017 22.4012 22.4033 22.4045 22.4055 22.4066 22.4077 22.409 22.4103 22.4117 22.4137 22.4168 22.4207 22.4249 22.4294 22.4338 22.4379 22.4428 22.4473 22.4513 22.4546 22.4569 22.4577 22.4568 22.4546 22.4515 22.4465 22.4363 22.4176 22.3878 22.3885 22.3883 22.3886 22.3892 22.3899 22.3907 22.3916 22.3927 22.3939 22.3949 22.3953 22.3974 22.399 22.4003 22.4016 22.4032 22.4052 22.4076 22.4103 22.413 22.4157 22.4187 22.4219 22.4253 22.4293 22.4336 22.4379 22.4427 22.4468 22.4506 22.454 22.4569 22.4586 22.4587 22.4573 22.4544 22.4488 22.4378 22.4185 22.3919 22.3941 22.3935 22.3936 22.3939 22.3944 22.395 22.3956 22.3965 22.3974 22.3982 22.3981 22.3997 22.4013 22.4025 22.4037 22.4048 22.4059 22.4073 22.409 22.4111 22.4138 22.4174 22.4214 22.4255 22.4296 22.4337 22.4379 22.4426 22.4468 22.4507 22.4542 22.4571 22.459 22.4597 22.4588 22.4561 22.4503 22.4388 22.4191 22.3881 22.3882 22.3884 22.3889 22.3895 22.3903 22.3911 22.392 22.3931 22.3942 22.3954 22.396 22.397 22.3988 22.4005 22.4024 22.4044 22.4065 22.4087 22.411 22.4131 22.4153 22.4181 22.4214 22.4252 22.4293 22.4336 22.4379 22.4423 22.4464 22.4502 22.4537 22.4568 22.4591 22.4601 22.4596 22.457 22.4511 22.4394 22.4195 22.3894 22.3908 22.3904 22.3906 22.3911 22.3917 22.3924 22.3933 22.3943 22.3955 22.3965 22.397 22.3985 22.4 22.4011 22.4023 22.4035 22.405 22.407 22.4094 22.4119 22.4149 22.4183 22.422 22.4256 22.4295 22.4336 22.4378 22.4423 22.4464 22.4502 22.4536 22.4567 22.459 22.4602 22.4599 22.4574 22.4516 22.4398 22.4197 22.3883 22.389 22.3892 22.3895 22.39 22.3906 22.3913 22.3921 22.3932 22.3944 22.3956 22.3963 22.3984 22.4002 22.402 22.4037 22.4054 22.4071 22.4088 22.4107 22.4127 22.415 22.4181 22.4216 22.4255 22.4295 22.4337 22.4378 22.442 22.446 22.4498 22.4533 22.4564 22.4588 22.4601 22.4599 22.4575 22.4517 22.4399 22.4198 22.3891 22.3899 22.3898 22.3902 22.3907 22.3914 22.3921 22.3929 22.3939 22.395 22.396 22.3968 22.3976 22.3991 22.4007 22.4023 22.4041 22.4061 22.4084 22.4108 22.4132 22.4159 22.4189 22.4221 22.4256 22.4295 22.4335 22.4377 22.442 22.446 22.4496 22.4531 22.4561 22.4585 22.4599 22.4598 22.4575 22.4517 22.4399 22.4198 22.3892 22.3893 22.3896 22.39 22.3906 22.3914 22.3923 22.3933 22.3944 22.3958 22.397 22.3978 22.3995 22.4011 22.4025 22.404 22.4054 22.407 22.4088 22.4108 22.413 22.4156 22.4188 22.4222 22.4259 22.4297 22.4336 22.4377 22.4418 22.4457 22.4493 22.4527 22.4558 22.4582 22.4595 22.4595 22.4572 22.4515 22.4398 22.4198 22.3888 22.3897 22.3897 22.39 22.3905 22.3912 22.3919 22.3928 22.3939 22.3951 22.3963 22.3974 22.3987 22.4005 22.4023 22.4041 22.4059 22.4078 22.4098 22.4119 22.414 22.4163 22.4191 22.4223 22.4258 22.4296 22.4336 22.4376 22.4417 22.4455 22.4491 22.4524 22.4554 22.4578 22.4591 22.4591 22.4569 22.4512 22.4395 22.4197 22.3902 22.3907 22.3909 22.3913 22.3918 22.3925 22.3933 22.3942 22.3953 22.3964 22.3976 22.3985 22.3997 22.4013 22.4028 22.4044 22.406 22.4077 22.4097 22.4119 22.4142 22.4167 22.4197 22.4229 22.4263 22.4299 22.4337 22.4376 22.4416 22.4453 22.4488 22.4521 22.455 22.4573 22.4587 22.4586 22.4564 22.4508 22.4392 22.4195 22.3902 22.3906 22.3908 22.3913 22.3919 22.3927 22.3935 22.3945 22.3957 22.397 22.3984 22.3996 22.4008 22.4025 22.4042 22.4058 22.4074 22.409 22.4108 22.4126 22.4146 22.4169 22.4197 22.4229 22.4263 22.4299 22.4337 22.4376 22.4415 22.4451 22.4485 22.4518 22.4546 22.4568 22.4582 22.4581 22.4559 22.4503 22.4388 22.4193 22.3909 22.3915 22.3916 22.392 22.3926 22.3932 22.3941 22.395 22.3961 22.3973 22.3986 22.3996 22.401 22.4025 22.4042 22.4059 22.4076 22.4094 22.4113 22.4134 22.4154 22.4178 22.4204 22.4234 22.4267 22.4301 22.4338 22.4375 22.4413 22.4449 22.4483 22.4514 22.4541 22.4563 22.4576 22.4575 22.4553 22.4497 22.4383 22.4191 22.3924 22.3927 22.393 22.3935 22.3941 22.3949 22.3957 22.3967 22.3979 22.3991 22.4003 22.4014 22.4026 22.4041 22.4056 22.407 22.4085 22.41 22.4117 22.4136 22.4156 22.4179 22.4206 22.4236 22.4268 22.4303 22.4339 22.4375 22.4412 22.4447 22.4479 22.4509 22.4536 22.4557 22.4569 22.4567 22.4545 22.449 22.4377 22.4188 22.3925 22.3928 22.393 22.3935 22.3941 22.3949 22.3957 22.3968 22.3979 22.3993 22.4006 22.4017 22.4032 22.4048 22.4064 22.408 22.4096 22.4112 22.4129 22.4147 22.4166 22.4187 22.4213 22.4241 22.4272 22.4305 22.4339 22.4375 22.4411 22.4444 22.4476 22.4505 22.453 22.455 22.4561 22.4559 22.4537 22.4482 22.4371 22.4184 22.3942 22.3947 22.3949 22.3953 22.3959 22.3966 22.3974 22.3984 22.3995 22.4007 22.4018 22.4029 22.4041 22.4055 22.407 22.4085 22.41 22.4116 22.4133 22.4151 22.417 22.4192 22.4217 22.4244 22.4274 22.4306 22.434 22.4374 22.4409 22.4441 22.4471 22.4499 22.4524 22.4542 22.4552 22.455 22.4527 22.4472 22.4362 22.418 22.3953 22.3952 22.3956 22.3961 22.3968 22.3976 22.3985 22.3995 22.4007 22.402 22.4033 22.4044 22.4057 22.4071 22.4086 22.41 22.4114 22.4128 22.4144 22.416 22.4178 22.4198 22.4222 22.4248 22.4277 22.4308 22.434 22.4373 22.4406 22.4438 22.4466 22.4493 22.4516 22.4533 22.4542 22.4539 22.4515 22.4461 22.4353 22.4174 22.3961 22.3963 22.3966 22.3971 22.3977 22.3985 22.3993 22.4003 22.4015 22.4027 22.4039 22.405 22.4064 22.4078 22.4093 22.4107 22.4121 22.4135 22.4151 22.4167 22.4184 22.4204 22.4227 22.4252 22.4279 22.4309 22.434 22.4371 22.4403 22.4433 22.446 22.4485 22.4507 22.4523 22.4531 22.4526 22.4502 22.4448 22.4342 22.4169 22.398 22.3981 22.3984 22.3989 22.3996 22.4003 22.4012 22.4022 22.4033 22.4045 22.4056 22.4067 22.4079 22.4093 22.4106 22.4119 22.4132 22.4145 22.416 22.4175 22.4191 22.4209 22.4231 22.4255 22.4281 22.4309 22.4339 22.4369 22.4399 22.4427 22.4453 22.4476 22.4496 22.4511 22.4517 22.4511 22.4486 22.4433 22.4329 22.4162 22.3991 22.399 22.3994 22.3999 22.4006 22.4013 22.4022 22.4032 22.4044 22.4056 22.4068 22.4078 22.409 22.4104 22.4117 22.4129 22.4141 22.4154 22.4167 22.4181 22.4196 22.4214 22.4234 22.4257 22.4282 22.4309 22.4337 22.4365 22.4393 22.442 22.4444 22.4465 22.4483 22.4496 22.4501 22.4493 22.4468 22.4415 22.4315 22.4154 22.4008 22.4008 22.4011 22.4016 22.4023 22.403 22.4039 22.4049 22.4059 22.4071 22.4082 22.4092 22.4103 22.4115 22.4127 22.4139 22.415 22.4162 22.4174 22.4187 22.4201 22.4217 22.4236 22.4258 22.4281 22.4306 22.4332 22.4359 22.4385 22.441 22.4432 22.4452 22.4468 22.4479 22.4482 22.4473 22.4448 22.4395 22.4298 22.4145 22.4023 22.4022 22.4026 22.4031 22.4037 22.4045 22.4053 22.4063 22.4073 22.4084 22.4094 22.4104 22.4114 22.4126 22.4137 22.4147 22.4158 22.4168 22.4179 22.4191 22.4204 22.4219 22.4236 22.4256 22.4278 22.4302 22.4326 22.435 22.4375 22.4397 22.4417 22.4435 22.4449 22.4458 22.4459 22.4449 22.4423 22.4372 22.4279 22.4136 22.4038 22.4037 22.4041 22.4046 22.4052 22.4059 22.4067 22.4076 22.4086 22.4096 22.4106 22.4114 22.4124 22.4134 22.4144 22.4154 22.4163 22.4172 22.4182 22.4193 22.4204 22.4218 22.4234 22.4252 22.4272 22.4294 22.4316 22.4338 22.4361 22.4381 22.4399 22.4414 22.4426 22.4433 22.4432 22.4421 22.4395 22.4346 22.4258 22.4125 22.405 22.405 22.4054 22.4058 22.4064 22.4071 22.4078 22.4086 22.4096 22.4105 22.4114 22.4122 22.4131 22.414 22.4149 22.4157 22.4165 22.4173 22.4182 22.4191 22.4201 22.4213 22.4227 22.4244 22.4262 22.4282 22.4302 22.4322 22.4342 22.436 22.4375 22.4388 22.4398 22.4402 22.44 22.4389 22.4363 22.4316 22.4234 22.4113 22.406 22.406 22.4063 22.4067 22.4073 22.4079 22.4086 22.4093 22.4102 22.411 22.4119 22.4125 22.4133 22.4141 22.4149 22.4157 22.4163 22.417 22.4177 22.4185 22.4193 22.4204 22.4216 22.4231 22.4247 22.4264 22.4282 22.43 22.4317 22.4332 22.4345 22.4356 22.4363 22.4366 22.4363 22.435 22.4326 22.4282 22.4208 22.4099 22.4064 22.4065 22.4068 22.4072 22.4076 22.4082 22.4088 22.4095 22.4103 22.411 22.4118 22.4124 22.413 22.4137 22.4144 22.415 22.4155 22.4161 22.4166 22.4173 22.418 22.4188 22.4199 22.4212 22.4225 22.424 22.4256 22.4271 22.4285 22.4298 22.4309 22.4317 22.4322 22.4323 22.4319 22.4307 22.4283 22.4244 22.4178 22.4085 22.4063 22.4063 22.4066 22.4069 22.4074 22.4079 22.4084 22.409 22.4097 22.4104 22.411 22.4114 22.412 22.4126 22.4131 22.4136 22.4141 22.4145 22.4149 22.4154 22.4159 22.4166 22.4175 22.4185 22.4196 22.4209 22.4221 22.4234 22.4245 22.4255 22.4263 22.427 22.4273 22.4273 22.4268 22.4256 22.4236 22.4202 22.4147 22.4069 22.4055 22.4055 22.4057 22.406 22.4064 22.4068 22.4072 22.4077 22.4083 22.4088 22.4093 22.4097 22.4101 22.4106 22.411 22.4114 22.4117 22.412 22.4123 22.4127 22.413 22.4136 22.4142 22.415 22.4159 22.4168 22.4178 22.4187 22.4196 22.4204 22.4209 22.4214 22.4216 22.4215 22.421 22.42 22.4183 22.4155 22.4112 22.4053 22.404 22.404 22.4041 22.4043 22.4046 22.4049 22.4052 22.4056 22.406 22.4064 22.4068 22.4071 22.4074 22.4077 22.408 22.4083 22.4085 22.4087 22.4089 22.4091 22.4093 22.4097 22.4101 22.4106 22.4112 22.4119 22.4125 22.4132 22.4138 22.4143 22.4146 22.4149 22.415 22.4149 22.4145 22.4137 22.4125 22.4106 22.4076 22.4036 22.402 22.402 22.4021 22.4022 22.4023 22.4025 22.4027 22.4029 22.4031 22.4033 22.4035 22.4037 22.4039 22.404 22.4042 22.4044 22.4045 22.4046 22.4047 22.4048 22.4049 22.405 22.4053 22.4055 22.4058 22.4061 22.4065 22.4068 22.4071 22.4074 22.4076 22.4077 22.4077 22.4076 22.4074 22.407 22.4064 22.4054 22.4038 22.4018 22.4 22.4 22.4 22.4 22.4 22.4 22.4 22.4 22.4 22.4 22.4 22.4 22.4 22.4 22.4 22.4 22.4 22.4 22.4 22.4 22.4 22.4 22.4 22.4 22.4 22.4 22.4 22.4 22.4 22.4 22.4 22.4 22.4 22.4 22.4 22.4 22.4 22.4 22.4 22.4 -104.735 -180.338 -161.596 -140.75 -112.529 -82.4311 -59.4067 -45.2003 -38.0801 -37.2212 -56.701 -491.767 12.855 12.261 5.6407 6.44191 19.4346 30.7792 35.7745 36.2829 32.0733 22.6904 16.6614 19.4289 25.268 28.0431 22.3146 23.1032 612.991 405.601 221.663 144.914 155.228 231.939 212.165 144.837 95.0838 65.5715 49.497 40.5459 -16.3686 -61.4739 -27.0714 -25.7933 -20.9791 -15.9102 -12.1359 -10.2461 -10.1492 -12.2099 -25.4565 -157.549 19.5907 17.6127 18.8354 21.4977 24.2974 25.899 25.7954 24.3322 22.9835 22.8953 22.7191 22.3612 22.484 22.5446 22.8626 23.7494 -4.07859 51.1617 51.2177 46.36 55.8304 80.28 90.6841 77.9899 61.5604 48.7396 40.4088 35.3282 18.056 1.95221 14.4658 15.7663 17.438 18.4407 18.9114 19.0735 19.2331 19.9244 23.786 47.4765 21.422 20.6219 21.8565 22.6398 22.8373 22.7997 22.7727 22.6948 22.571 22.5311 22.4285 22.4364 22.458 22.4162 22.4242 22.7891 23.7605 23.5567 26.3767 26.5504 30.437 39.0057 46.6144 47.3914 43.46 38.449 34.3133 31.5069 21.2867 16.6993 20.9792 21.0865 21.3431 21.4493 21.4573 21.4436 21.513 21.7761 22.5083 24.7978 22.3384 22.2606 22.4558 22.5263 22.5124 22.4771 22.4495 22.4376 22.4394 22.4394 22.4386 22.4448 22.4545 22.4679 22.4596 22.5908 22.3014 22.2523 23.2361 24.078 25.1621 28.2528 32.515 34.6623 34.1645 32.2913 30.2677 28.7483 22.3499 22.1873 22.4023 22.3899 22.3834 22.373 22.359 22.3475 22.352 22.3841 22.4274 22.3128 22.4362 22.4349 22.4558 22.4568 22.4545 22.4513 22.4474 22.4454 22.4465 22.4496 22.4514 22.4494 22.45 22.4573 22.4618 22.5259 22.4859 22.3909 22.2155 22.3746 23.0571 24.4428 26.6607 28.4861 29.0254 28.5065 27.5728 26.7777 22.436 22.3985 22.4342 22.4338 22.4352 22.437 22.4394 22.4425 22.4457 22.4484 22.4494 22.445 22.4438 22.446 22.4459 22.4447 22.4443 22.4446 22.4448 22.4451 22.4458 22.4467 22.4486 22.4508 22.4506 22.4524 22.4603 22.4681 22.3829 22.4371 22.4991 22.507 22.6991 23.2866 24.4122 25.5849 26.2075 26.1832 25.7842 25.3859 22.4351 22.4183 22.4264 22.429 22.4315 22.4345 22.4381 22.4419 22.4449 22.4464 22.4461 22.442 22.4473 22.4491 22.4495 22.4498 22.4501 22.4502 22.45 22.4502 22.4513 22.4515 22.4512 22.453 22.4538 22.4511 22.4523 22.4737 22.4378 22.3739 22.3484 22.3896 22.5095 22.7882 23.3698 24.0935 24.6051 24.7433 24.6002 24.4136 22.4419 22.4412 22.4417 22.4417 22.442 22.4425 22.4433 22.4443 22.4449 22.4448 22.4436 22.4396 22.4436 22.4445 22.4444 22.4446 22.445 22.4454 22.4454 22.4455 22.4467 22.4483 22.4486 22.4488 22.4506 22.4516 22.4494 22.4542 22.4347 22.437 22.4203 22.4225 22.4672 22.598 22.9008 23.3278 23.6894 23.8497 23.8201 23.7422 22.4446 22.4422 22.443 22.4436 22.4441 22.4448 22.4458 22.4469 22.4478 22.4481 22.4483 22.4481 22.4476 22.4489 22.4494 22.4498 22.4501 22.45 22.4495 22.449 22.4494 22.4506 22.4511 22.4498 22.4482 22.4485 22.4502 22.4529 22.431 22.4179 22.4132 22.4185 22.4405 22.5051 22.6655 22.9157 23.1574 23.2941 23.3091 23.2839 22.4394 22.4403 22.4396 22.4395 22.4395 22.4398 22.4404 22.441 22.4413 22.4411 22.4405 22.4392 22.4432 22.4435 22.4437 22.4441 22.4446 22.4451 22.4453 22.4457 22.4464 22.4474 22.4486 22.4495 22.449 22.4472 22.4458 22.4473 22.437 22.4309 22.4251 22.4241 22.4318 22.4627 22.5477 22.692 22.8466 22.9491 22.9768 22.9748 22.4451 22.4447 22.4449 22.4451 22.4453 22.4457 22.4464 22.4472 22.4477 22.4479 22.4484 22.4499 22.4466 22.4478 22.4479 22.4476 22.4473 22.4471 22.4471 22.4475 22.4482 22.4482 22.4474 22.4471 22.4475 22.4474 22.4463 22.4456 22.4354 22.4301 22.4265 22.4246 22.4266 22.4409 22.4856 22.5679 22.6641 22.7356 22.7624 22.769 22.4382 22.4384 22.4382 22.4383 22.4384 22.4386 22.4391 22.4397 22.44 22.44 22.4402 22.4411 22.4425 22.443 22.4436 22.4441 22.4444 22.4443 22.4442 22.4447 22.4462 22.4479 22.4483 22.4476 22.4465 22.4454 22.4443 22.443 22.4362 22.432 22.4283 22.4252 22.4241 22.4298 22.4526 22.4986 22.5567 22.6041 22.6254 22.6338 22.4438 22.4449 22.4448 22.4447 22.4447 22.4448 22.4453 22.4457 22.4459 22.4457 22.4459 22.4469 22.4441 22.4445 22.4445 22.4448 22.4453 22.4457 22.4455 22.4451 22.4452 22.4458 22.4465 22.4469 22.4466 22.4455 22.4439 22.4422 22.4361 22.4324 22.429 22.4256 22.4229 22.4239 22.4347 22.4596 22.4936 22.5235 22.5388 22.5461 22.4384 22.4381 22.4384 22.4385 22.4386 22.4389 22.4394 22.44 22.4405 22.4407 22.4413 22.4431 22.4416 22.4423 22.4425 22.4425 22.4427 22.4432 22.444 22.4449 22.4459 22.4464 22.4462 22.4458 22.4452 22.4442 22.4427 22.4407 22.4358 22.4323 22.429 22.4255 22.4221 22.4207 22.4249 22.4375 22.4566 22.4746 22.4846 22.49 22.44 22.4427 22.442 22.4416 22.4413 22.4412 22.4413 22.4414 22.4414 22.4411 22.4412 22.4422 22.4426 22.443 22.4433 22.4434 22.4433 22.443 22.4428 22.4432 22.4443 22.4455 22.446 22.4458 22.4452 22.444 22.4424 22.4403 22.4358 22.4325 22.4292 22.4256 22.4217 22.419 22.4195 22.4251 22.435 22.4451 22.4512 22.4547 22.4388 22.4391 22.4393 22.4393 22.4394 22.4395 22.4399 22.4404 22.4406 22.4405 22.4407 22.4419 22.4407 22.4411 22.4415 22.442 22.4426 22.4431 22.4432 22.4434 22.4439 22.4446 22.4448 22.4446 22.4441 22.4431 22.4415 22.4393 22.4352 22.432 22.4289 22.4253 22.4214 22.418 22.4165 22.418 22.4225 22.4276 22.4308 22.4327 22.4378 22.4389 22.4384 22.4383 22.4383 22.4384 22.4387 22.4391 22.4394 22.4395 22.4399 22.4414 22.4403 22.4407 22.4409 22.441 22.4413 22.4417 22.4422 22.4428 22.4438 22.4446 22.4448 22.4445 22.4438 22.4427 22.4411 22.4389 22.435 22.4319 22.4288 22.4252 22.4212 22.4174 22.4148 22.4141 22.4152 22.4172 22.4185 22.4193 22.4375 22.4385 22.4384 22.4382 22.4381 22.4382 22.4384 22.4387 22.4388 22.4387 22.4389 22.44 22.4403 22.4406 22.4408 22.441 22.4412 22.4413 22.4414 22.4417 22.4425 22.4434 22.4437 22.4435 22.443 22.4419 22.4403 22.4381 22.4344 22.4314 22.4284 22.4249 22.4209 22.417 22.4138 22.4118 22.4111 22.4112 22.4112 22.4112 22.4367 22.4374 22.4372 22.4372 22.4371 22.4373 22.4376 22.438 22.4382 22.4382 22.4385 22.4398 22.4393 22.4397 22.4401 22.4405 22.4408 22.4412 22.4414 22.4418 22.4425 22.4432 22.4434 22.4431 22.4424 22.4414 22.4398 22.4376 22.434 22.431 22.428 22.4246 22.4207 22.4167 22.4132 22.4105 22.4088 22.4077 22.4069 22.4064 22.4366 22.4373 22.4371 22.4369 22.4369 22.4369 22.4371 22.4374 22.4375 22.4375 22.4377 22.4388 22.4386 22.4389 22.4392 22.4394 22.4396 22.4399 22.4401 22.4406 22.4414 22.4422 22.4425 22.4423 22.4417 22.4406 22.4391 22.4369 22.4334 22.4305 22.4276 22.4242 22.4204 22.4164 22.4128 22.4098 22.4074 22.4057 22.4044 22.4037 22.4364 22.4366 22.4366 22.4366 22.4366 22.4367 22.437 22.4374 22.4376 22.4376 22.4378 22.4389 22.4388 22.4391 22.4393 22.4394 22.4396 22.4398 22.4399 22.4403 22.4409 22.4416 22.4418 22.4416 22.441 22.44 22.4384 22.4363 22.4328 22.4299 22.4271 22.4238 22.42 22.4161 22.4125 22.4093 22.4067 22.4046 22.403 22.4021 22.4354 22.4357 22.4355 22.4355 22.4354 22.4355 22.4357 22.436 22.4362 22.4362 22.4364 22.4374 22.4376 22.4379 22.4381 22.4383 22.4385 22.4387 22.4389 22.4393 22.4401 22.4408 22.441 22.4408 22.4402 22.4392 22.4377 22.4355 22.4321 22.4293 22.4265 22.4233 22.4196 22.4158 22.4122 22.409 22.4062 22.4039 22.4022 22.4011 22.436 22.4363 22.4362 22.4362 22.4361 22.4362 22.4363 22.4366 22.4366 22.4366 22.4367 22.4375 22.4375 22.4377 22.4378 22.438 22.4381 22.4382 22.4383 22.4386 22.4393 22.4399 22.4402 22.4399 22.4394 22.4383 22.4368 22.4347 22.4314 22.4285 22.4258 22.4227 22.4191 22.4155 22.4119 22.4087 22.4059 22.4035 22.4018 22.4006 22.4349 22.4346 22.4346 22.4346 22.4346 22.4348 22.435 22.4353 22.4355 22.4355 22.4357 22.4365 22.4366 22.4368 22.4369 22.437 22.4372 22.4373 22.4375 22.4378 22.4385 22.4391 22.4393 22.4391 22.4384 22.4374 22.4359 22.4338 22.4305 22.4