# vtk DataFile Version 2.0
Concentracion
ASCII

DATASET STRUCTURED_GRID
DIMENSIONS   40   40   20

POINTS   32000   double
0.003725   0.00025625   0.015
0.011175   0.00025625   0.015
0.018625   0.00025625   0.015
0.026075   0.00025625   0.015
0.033525   0.00025625   0.015
0.040975   0.00025625   0.015
0.048425   0.00025625   0.015
0.055875   0.00025625   0.015
0.063325   0.00025625   0.015
0.070775   0.00025625   0.015
0.078225   0.00025625   0.015
0.085675   0.00025625   0.015
0.093125   0.00025625   0.015
0.100575   0.00025625   0.015
0.108025   0.00025625   0.015
0.115475   0.00025625   0.015
0.122925   0.00025625   0.015
0.130375   0.00025625   0.015
0.137825   0.00025625   0.015
0.145275   0.00025625   0.015
0.152725   0.00025625   0.015
0.160175   0.00025625   0.015
0.167625   0.00025625   0.015
0.175075   0.00025625   0.015
0.182525   0.00025625   0.015
0.189975   0.00025625   0.015
0.197425   0.00025625   0.015
0.204875   0.00025625   0.015
0.212325   0.00025625   0.015
0.219775   0.00025625   0.015
0.227225   0.00025625   0.015
0.234675   0.00025625   0.015
0.242125   0.00025625   0.015
0.249575   0.00025625   0.015
0.257025   0.00025625   0.015
0.264475   0.00025625   0.015
0.271925   0.00025625   0.015
0.279375   0.00025625   0.015
0.286825   0.00025625   0.015
0.294275   0.00025625   0.015
0.003725   0.00076875   0.015
0.011175   0.00076875   0.015
0.018625   0.00076875   0.015
0.026075   0.00076875   0.015
0.033525   0.00076875   0.015
0.040975   0.00076875   0.015
0.048425   0.00076875   0.015
0.055875   0.00076875   0.015
0.063325   0.00076875   0.015
0.070775   0.00076875   0.015
0.078225   0.00076875   0.015
0.085675   0.00076875   0.015
0.093125   0.00076875   0.015
0.100575   0.00076875   0.015
0.108025   0.00076875   0.015
0.115475   0.00076875   0.015
0.122925   0.00076875   0.015
0.130375   0.00076875   0.015
0.137825   0.00076875   0.015
0.145275   0.00076875   0.015
0.152725   0.00076875   0.015
0.160175   0.00076875   0.015
0.167625   0.00076875   0.015
0.175075   0.00076875   0.015
0.182525   0.00076875   0.015
0.189975   0.00076875   0.015
0.197425   0.00076875   0.015
0.204875   0.00076875   0.015
0.212325   0.00076875   0.015
0.219775   0.00076875   0.015
0.227225   0.00076875   0.015
0.234675   0.00076875   0.015
0.242125   0.00076875   0.015
0.249575   0.00076875   0.015
0.257025   0.00076875   0.015
0.264475   0.00076875   0.015
0.271925   0.00076875   0.015
0.279375   0.00076875   0.015
0.286825   0.00076875   0.015
0.294275   0.00076875   0.015
0.003725   0.00128125   0.015
0.011175   0.00128125   0.015
0.018625   0.00128125   0.015
0.026075   0.00128125   0.015
0.033525   0.00128125   0.015
0.040975   0.00128125   0.015
0.048425   0.00128125   0.015
0.055875   0.00128125   0.015
0.063325   0.00128125   0.015
0.070775   0.00128125   0.015
0.078225   0.00128125   0.015
0.085675   0.00128125   0.015
0.093125   0.00128125   0.015
0.100575   0.00128125   0.015
0.108025   0.00128125   0.015
0.115475   0.00128125   0.015
0.122925   0.00128125   0.015
0.130375   0.00128125   0.015
0.137825   0.00128125   0.015
0.145275   0.00128125   0.015
0.152725   0.00128125   0.015
0.160175   0.00128125   0.015
0.167625   0.00128125   0.015
0.175075   0.00128125   0.015
0.182525   0.00128125   0.015
0.189975   0.00128125   0.015
0.197425   0.00128125   0.015
0.204875   0.00128125   0.015
0.212325   0.00128125   0.015
0.219775   0.00128125   0.015
0.227225   0.00128125   0.015
0.234675   0.00128125   0.015
0.242125   0.00128125   0.015
0.249575   0.00128125   0.015
0.257025   0.00128125   0.015
0.264475   0.00128125   0.015
0.271925   0.00128125   0.015
0.279375   0.00128125   0.015
0.286825   0.00128125   0.015
0.294275   0.00128125   0.015
0.003725   0.00179375   0.015
0.011175   0.00179375   0.015
0.018625   0.00179375   0.015
0.026075   0.00179375   0.015
0.033525   0.00179375   0.015
0.040975   0.00179375   0.015
0.048425   0.00179375   0.015
0.055875   0.00179375   0.015
0.063325   0.00179375   0.015
0.070775   0.00179375   0.015
0.078225   0.00179375   0.015
0.085675   0.00179375   0.015
0.093125   0.00179375   0.015
0.100575   0.00179375   0.015
0.108025   0.00179375   0.015
0.115475   0.00179375   0.015
0.122925   0.00179375   0.015
0.130375   0.00179375   0.015
0.137825   0.00179375   0.015
0.145275   0.00179375   0.015
0.152725   0.00179375   0.015
0.160175   0.00179375   0.015
0.167625   0.00179375   0.015
0.175075   0.00179375   0.015
0.182525   0.00179375   0.015
0.189975   0.00179375   0.015
0.197425   0.00179375   0.015
0.204875   0.00179375   0.015
0.212325   0.00179375   0.015
0.219775   0.00179375   0.015
0.227225   0.00179375   0.015
0.234675   0.00179375   0.015
0.242125   0.00179375   0.015
0.249575   0.00179375   0.015
0.257025   0.00179375   0.015
0.264475   0.00179375   0.015
0.271925   0.00179375   0.015
0.279375   0.00179375   0.015
0.286825   0.00179375   0.015
0.294275   0.00179375   0.015
0.003725   0.00230625   0.015
0.011175   0.00230625   0.015
0.018625   0.00230625   0.015
0.026075   0.00230625   0.015
0.033525   0.00230625   0.015
0.040975   0.00230625   0.015
0.048425   0.00230625   0.015
0.055875   0.00230625   0.015
0.063325   0.00230625   0.015
0.070775   0.00230625   0.015
0.078225   0.00230625   0.015
0.085675   0.00230625   0.015
0.093125   0.00230625   0.015
0.100575   0.00230625   0.015
0.108025   0.00230625   0.015
0.115475   0.00230625   0.015
0.122925   0.00230625   0.015
0.130375   0.00230625   0.015
0.137825   0.00230625   0.015
0.145275   0.00230625   0.015
0.152725   0.00230625   0.015
0.160175   0.00230625   0.015
0.167625   0.00230625   0.015
0.175075   0.00230625   0.015
0.182525   0.00230625   0.015
0.189975   0.00230625   0.015
0.197425   0.00230625   0.015
0.204875   0.00230625   0.015
0.212325   0.00230625   0.015
0.219775   0.00230625   0.015
0.227225   0.00230625   0.015
0.234675   0.00230625   0.015
0.242125   0.00230625   0.015
0.249575   0.00230625   0.015
0.257025   0.00230625   0.015
0.264475   0.00230625   0.015
0.271925   0.00230625   0.015
0.279375   0.00230625   0.015
0.286825   0.00230625   0.015
0.294275   0.00230625   0.015
0.003725   0.00281875   0.015
0.011175   0.00281875   0.015
0.018625   0.00281875   0.015
0.026075   0.00281875   0.015
0.033525   0.00281875   0.015
0.040975   0.00281875   0.015
0.048425   0.00281875   0.015
0.055875   0.00281875   0.015
0.063325   0.00281875   0.015
0.070775   0.00281875   0.015
0.078225   0.00281875   0.015
0.085675   0.00281875   0.015
0.093125   0.00281875   0.015
0.100575   0.00281875   0.015
0.108025   0.00281875   0.015
0.115475   0.00281875   0.015
0.122925   0.00281875   0.015
0.130375   0.00281875   0.015
0.137825   0.00281875   0.015
0.145275   0.00281875   0.015
0.152725   0.00281875   0.015
0.160175   0.00281875   0.015
0.167625   0.00281875   0.015
0.175075   0.00281875   0.015
0.182525   0.00281875   0.015
0.189975   0.00281875   0.015
0.197425   0.00281875   0.015
0.204875   0.00281875   0.015
0.212325   0.00281875   0.015
0.219775   0.00281875   0.015
0.227225   0.00281875   0.015
0.234675   0.00281875   0.015
0.242125   0.00281875   0.015
0.249575   0.00281875   0.015
0.257025   0.00281875   0.015
0.264475   0.00281875   0.015
0.271925   0.00281875   0.015
0.279375   0.00281875   0.015
0.286825   0.00281875   0.015
0.294275   0.00281875   0.015
0.003725   0.00333125   0.015
0.011175   0.00333125   0.015
0.018625   0.00333125   0.015
0.026075   0.00333125   0.015
0.033525   0.00333125   0.015
0.040975   0.00333125   0.015
0.048425   0.00333125   0.015
0.055875   0.00333125   0.015
0.063325   0.00333125   0.015
0.070775   0.00333125   0.015
0.078225   0.00333125   0.015
0.085675   0.00333125   0.015
0.093125   0.00333125   0.015
0.100575   0.00333125   0.015
0.108025   0.00333125   0.015
0.115475   0.00333125   0.015
0.122925   0.00333125   0.015
0.130375   0.00333125   0.015
0.137825   0.00333125   0.015
0.145275   0.00333125   0.015
0.152725   0.00333125   0.015
0.160175   0.00333125   0.015
0.167625   0.00333125   0.015
0.175075   0.00333125   0.015
0.182525   0.00333125   0.015
0.189975   0.00333125   0.015
0.197425   0.00333125   0.015
0.204875   0.00333125   0.015
0.212325   0.00333125   0.015
0.219775   0.00333125   0.015
0.227225   0.00333125   0.015
0.234675   0.00333125   0.015
0.242125   0.00333125   0.015
0.249575   0.00333125   0.015
0.257025   0.00333125   0.015
0.264475   0.00333125   0.015
0.271925   0.00333125   0.015
0.279375   0.00333125   0.015
0.286825   0.00333125   0.015
0.294275   0.00333125   0.015
0.003725   0.00384375   0.015
0.011175   0.00384375   0.015
0.018625   0.00384375   0.015
0.026075   0.00384375   0.015
0.033525   0.00384375   0.015
0.040975   0.00384375   0.015
0.048425   0.00384375   0.015
0.055875   0.00384375   0.015
0.063325   0.00384375   0.015
0.070775   0.00384375   0.015
0.078225   0.00384375   0.015
0.085675   0.00384375   0.015
0.093125   0.00384375   0.015
0.100575   0.00384375   0.015
0.108025   0.00384375   0.015
0.115475   0.00384375   0.015
0.122925   0.00384375   0.015
0.130375   0.00384375   0.015
0.137825   0.00384375   0.015
0.145275   0.00384375   0.015
0.152725   0.00384375   0.015
0.160175   0.00384375   0.015
0.167625   0.00384375   0.015
0.175075   0.00384375   0.015
0.182525   0.00384375   0.015
0.189975   0.00384375   0.015
0.197425   0.00384375   0.015
0.204875   0.00384375   0.015
0.212325   0.00384375   0.015
0.219775   0.00384375   0.015
0.227225   0.00384375   0.015
0.234675   0.00384375   0.015
0.242125   0.00384375   0.015
0.249575   0.00384375   0.015
0.257025   0.00384375   0.015
0.264475   0.00384375   0.015
0.271925   0.00384375   0.015
0.279375   0.00384375   0.015
0.286825   0.00384375   0.015
0.294275   0.00384375   0.015
0.003725   0.00435625   0.015
0.011175   0.00435625   0.015
0.018625   0.00435625   0.015
0.026075   0.00435625   0.015
0.033525   0.00435625   0.015
0.040975   0.00435625   0.015
0.048425   0.00435625   0.015
0.055875   0.00435625   0.015
0.063325   0.00435625   0.015
[...]
POINT_DATA   32000
SCALARS Concentracion double
LOOKUP_TABLE   Concentracion

0 0 0 0 0 0 0 0 0 0 0 0 0 0 0 0 0 0 0 0 0 0 0 0 0 0 0 0 0 0 0 0 0 0 0 0 0 0 0 0 3.16033e-311 3.16033e-311 3.16033e-311 3.16033e-311 3.16033e-311 3.16033e-311 3.16033e-311 3.16033e-311 3.16033e-311 3.16033e-311 2.12545e-311 2.12545e-311 2.12545e-311 2.12545e-311 2.12545e-311 2.12545e-311 2.12545e-311 2.12545e-311 2.12545e-311 2.12545e-311 3.16894e-311 3.16894e-311 3.16894e-311 3.16894e-311 3.16894e-311 3.16894e-311 3.16894e-311 3.16894e-311 3.16894e-311 3.16894e-311 3.16949e-311 3.16949e-311 3.16949e-311 3.16949e-311 3.16949e-311 3.16949e-311 3.16949e-311 3.16949e-311 3.16949e-311 3.16949e-311 3.16033e-311 3.16033e-311 3.16033e-311 3.16033e-311 3.16033e-311 3.16033e-311 3.16033e-311 3.16033e-311 3.16033e-311 3.16033e-311 2.12545e-311 2.12545e-311 2.12545e-311 2.12545e-311 2.12545e-311 2.12545e-311 2.12545e-311 2.12545e-311 2.12545e-311 2.12545e-311 3.16894e-311 3.16894e-311 3.16894e-311 3.16894e-311 3.16894e-311 3.16894e-311 3.16894e-311 3.16894e-311 3.16894e-311 3.16894e-311 3.16949e-311 3.16949e-311 3.16949e-311 3.16949e-311 3.16949e-311 3.16949e-311 3.16949e-311 3.16949e-311 3.16949e-311 3.16949e-311 3.16033e-311 3.16033e-311 3.16033e-311 3.16033e-311 3.16033e-311 3.16033e-311 3.16033e-311 3.16033e-311 3.16033e-311 3.16033e-311 2.12545e-311 2.12545e-311 2.12545e-311 2.12545e-311 2.12545e-311 2.12545e-311 2.12545e-311 2.12545e-311 2.12545e-311 2.12545e-311 3.16894e-311 3.16894e-311 3.16894e-311 3.16894e-311 3.16894e-311 3.16894e-311 3.16894e-311 3.16894e-311 3.16894e-311 3.16894e-311 3.16949e-311 3.16949e-311 3.16949e-311 3.16949e-311 3.16949e-311 3.16949e-311 3.16949e-311 3.16949e-311 3.16949e-311 3.16949e-311 3.16033e-311 3.16033e-311 3.16033e-311 3.16033e-311 3.16033e-311 3.16033e-311 3.16033e-311 3.16033e-311 3.16033e-311 3.16033e-311 2.12545e-311 2.12545e-311 2.12545e-311 2.12545e-311 2.12545e-311 2.12545e-311 2.12545e-311 2.12545e-311 2.12545e-311 2.12545e-311 3.16894e-311 3.16894e-311 3.16894e-311 3.16894e-311 3.16894e-311 3.16894e-311 3.16894e-311 3.16894e-311 3.16894e-311 3.16894e-311 3.16949e-311 3.16949e-311 3.16949e-311 3.16949e-311 3.16949e-311 3.16949e-311 3.16949e-311 3.16949e-311 3.16949e-311 3.16949e-311 3.16033e-311 3.16033e-311 3.16033e-311 3.16033e-311 3.16033e-311 3.16033e-311 3.16033e-311 3.16033e-311 3.16033e-311 3.16033e-311 2.12545e-311 2.12545e-311 2.12545e-311 2.12545e-311 2.12545e-311 2.12545e-311 2.12545e-311 2.12545e-311 2.12545e-311 2.12545e-311 3.16894e-311 3.16894e-311 3.16894e-311 3.16894e-311 3.16894e-311 3.16894e-311 3.16894e-311 3.16894e-311 3.16894e-311 3.16894e-311 3.16949e-311 3.16949e-311 3.16949e-311 3.16949e-311 3.16949e-311 3.16949e-311 3.16949e-311 3.16949e-311 3.16949e-311 3.16949e-311 3.16033e-311 3.16033e-311 3.16033e-311 3.16033e-311 3.16033e-311 3.16033e-311 3.16033e-311 3.16033e-311 3.16033e-311 3.16033e-311 2.12545e-311 2.12545e-311 2.12545e-311 2.12545e-311 2.12545e-311 2.12545e-311 2.12545e-311 2.12545e-311 2.12545e-311 2.12545e-311 3.16894e-311 3.16894e-311 3.16894e-311 3.16894e-311 3.16894e-311 3.16894e-311 3.16894e-311 3.16894e-311 3.16894e-311 3.16894e-311 3.16949e-311 3.16949e-311 3.16949e-311 3.16949e-311 3.16949e-311 3.16949e-311 3.16949e-311 3.16949e-311 3.16949e-311 3.16949e-311 3.16033e-311 3.16033e-311 3.16033e-311 3.16033e-311 3.16033e-311 3.16033e-311 3.16033e-311 3.16033e-311 3.16033e-311 3.16033e-311 2.12545e-311 2.12545e-311 2.12545e-311 2.12545e-311 2.12545e-311 2.12545e-311 2.12545e-311 2.12545e-311 2.12545e-311 2.12545e-311 3.16894e-311 3.16894e-311 3.16894e-311 3.16894e-311 3.16894e-311 3.16894e-311 3.16894e-311 3.16894e-311 3.16894e-311 3.16894e-311 3.16949e-311 3.16949e-311 3.16949e-311 3.16949e-311 3.16949e-311 3.16949e-311 3.16949e-311 3.16949e-311 3.16949e-311 3.16949e-311 3.16033e-311 3.16033e-311 3.16033e-311 3.16033e-311 3.16033e-311 3.16033e-311 3.16033e-311 3.16033e-311 3.16033e-311 3.16033e-311 2.12545e-311 2.12545e-311 2.12545e-311 2.12545e-311 2.12545e-311 2.12545e-311 2.12545e-311 2.12545e-311 2.12545e-311 2.12545e-311 3.16894e-311 3.16894e-311 3.16894e-311 3.16894e-311 3.16894e-311 3.16894e-311 3.16894e-311 3.16894e-311 3.16894e-311 3.16894e-311 3.16949e-311 3.16949e-311 3.16949e-311 3.16949e-311 3.16949e-311 3.16949e-311 3.16949e-311 3.16949e-311 3.16949e-311 3.16949e-311 3.16033e-311 3.16033e-311 3.16033e-311 3.16033e-311 3.16033e-311 3.16033e-311 3.16033e-311 3.16033e-311 3.16033e-311 3.16033e-311 2.12545e-311 2.12545e-311 2.12545e-311 2.12545e-311 2.12545e-311 2.12545e-311 2.12545e-311 2.12545e-311 2.12545e-311 2.12545e-311 3.16894e-311 3.16894e-311 3.16894e-311 3.16894e-311 3.16894e-311 3.16894e-311 3.16894e-311 3.16894e-311 3.16894e-311 3.16894e-311 3.16949e-311 3.16949e-311 3.16949e-311 3.16949e-311 3.16949e-311 3.16949e-311 3.16949e-311 3.16949e-311 3.16949e-311 3.16949e-311 3.16033e-311 3.16033e-311 3.16033e-311 3.16033e-311 3.16033e-311 3.16033e-311 3.16033e-311 3.16033e-311 3.16033e-311 3.16033e-311 2.12545e-311 2.12545e-311 2.12545e-311 2.12545e-311 2.12545e-311 2.12545e-311 2.12545e-311 2.12545e-311 2.12545e-311 2.12545e-311 3.16894e-311 3.16894e-311 3.16894e-311 3.16894e-311 3.16894e-311 3.16894e-311 3.16894e-311 3.16894e-311 3.16894e-311 3.16894e-311 3.16949e-311 3.16949e-311 3.16949e-311 3.16949e-311 3.16949e-311 3.16949e-311 3.16949e-311 3.16949e-311 3.16949e-311 3.16949e-311 3.16033e-311 3.16033e-311 3.16033e-311 3.16033e-311 3.16033e-311 3.16033e-311 3.16033e-311 3.16033e-311 3.16033e-311 3.16033e-311 2.12545e-311 2.12545e-311 2.12545e-311 2.12545e-311 2.12545e-311 2.12545e-311 2.12545e-311 2.12545e-311 2.12545e-311 2.12545e-311 3.16894e-311 3.16894e-311 3.16894e-311 3.16894e-311 3.16894e-311 3.16894e-311 3.16894e-311 3.16894e-311 3.16894e-311 3.16894e-311 3.16949e-311 3.16949e-311 3.16949e-311 3.16949e-311 3.16949e-311 3.16949e-311 3.16949e-311 3.16949e-311 3.16949e-311 3.16949e-311 3.16033e-311 3.16033e-311 3.16033e-311 3.16033e-311 3.16033e-311 3.16033e-311 3.16033e-311 3.16033e-311 3.16033e-311 3.16033e-311 2.12545e-311 2.12545e-311 2.12545e-311 2.12545e-311 2.12545e-311 2.12545e-311 2.12545e-311 2.12545e-311 2.12545e-311 2.12545e-311 3.16894e-311 3.16894e-311 3.16894e-311 3.16894e-311 3.16894e-311 3.16894e-311 3.16894e-311 3.16894e-311 3.16894e-311 3.16894e-311 3.16949e-311 3.16949e-311 3.16949e-311 3.16949e-311 3.16949e-311 3.16949e-311 3.16949e-311 3.16949e-311 3.16949e-311 3.16949e-311 3.16033e-311 3.16033e-311 3.16033e-311 3.16033e-311 3.16033e-311 3.16033e-311 3.16033e-311 3.16033e-311 3.16033e-311 3.16033e-311 2.12545e-311 2.12545e-311 2.12545e-311 2.12545e-311 2.12545e-311 2.12545e-311 2.12545e-311 2.12545e-311 2.12545e-311 2.12545e-311 3.16894e-311 3.16894e-311 3.16894e-311 3.16894e-311 3.16894e-311 3.16894e-311 3.16894e-311 3.16894e-311 3.16894e-311 3.16894e-311 3.16949e-311 3.16949e-311 3.16949e-311 3.16949e-311 3.16949e-311 3.16949e-311 3.16949e-311 3.16949e-311 3.16949e-311 3.16949e-311 3.16033e-311 3.16033e-311 3.16033e-311 3.16033e-311 3.16033e-311 3.16033e-311 3.16033e-311 3.16033e-311 3.16033e-311 3.16033e-311 2.12545e-311 2.12545e-311 2.12545e-311 2.12545e-311 2.12545e-311 2.12545e-311 2.12545e-311 2.12545e-311 2.12545e-311 2.12545e-311 3.16894e-311 3.16894e-311 3.16894e-311 3.16894e-311 3.16894e-311 3.16894e-311 3.16894e-311 3.16894e-311 3.16894e-311 3.16894e-311 3.16949e-311 3.16949e-311 3.16949e-311 3.16949e-311 3.16949e-311 3.16949e-311 3.16949e-311 3.16949e-311 3.16949e-311 3.16949e-311 3.16033e-311 3.16033e-311 3.16033e-311 3.16033e-311 3.16033e-311 3.16033e-311 3.16033e-311 3.16033e-311 3.16033e-311 3.16033e-311 2.12545e-311 2.12545e-311 2.12545e-311 2.12545e-311 2.12545e-311 2.12545e-311 2.12545e-311 2.12545e-311 2.12545e-311 2.12545e-311 3.16894e-311 3.16894e-311 3.16894e-311 3.16894e-311 3.16894e-311 3.16894e-311 3.16894e-311 3.16894e-311 3.16894e-311 3.16894e-311 3.16949e-311 3.16949e-311 3.16949e-311 3.16949e-311 3.16949e-311 3.16949e-311 3.16949e-311 3.16949e-311 3.16949e-311 3.16949e-311 3.16033e-311 3.16033e-311 3.16033e-311 3.16033e-311 3.16033e-311 3.16033e-311 3.16033e-311 3.16033e-311 3.16033e-311 3.16033e-311 2.12545e-311 2.12545e-311 2.12545e-311 2.12545e-311 2.12545e-311 2.12545e-311 2.12545e-311 2.12545e-311 2.12545e-311 2.12545e-311 3.16894e-311 3.16894e-311 3.16894e-311 3.16894e-311 3.16894e-311 3.16894e-311 3.16894e-311 3.16894e-311 3.16894e-311 3.16894e-311 3.16949e-311 3.16949e-311 3.16949e-311 3.16949e-311 3.16949e-311 3.16949e-311 3.16949e-311 3.16949e-311 3.16949e-311 3.16949e-311 3.16033e-311 3.16033e-311 3.16033e-311 3.16033e-311 3.16033e-311 3.16033e-311 3.16033e-311 3.16033e-311 3.16033e-311 3.16033e-311 2.12545e-311 2.12545e-311 2.12545e-311 2.12545e-311 2.12545e-311 2.12545e-311 2.12545e-311 2.12545e-311 2.12545e-311 2.12545e-311 3.16894e-311 3.16894e-311 3.16894e-311 3.16894e-311 3.16894e-311 3.16894e-311 3.16894e-311 3.16894e-311 3.16894e-311 3.16894e-311 3.16949e-311 3.16949e-311 3.16949e-311 3.16949e-311 3.16949e-311 3.16949e-311 3.16949e-311 3.16949e-311 3.16949e-311 3.16949e-311 3.16033e-311 3.16033e-311 3.16033e-311 3.16033e-311 3.16033e-311 3.16033e-311 3.16033e-311 3.16033e-311 3.16033e-311 3.16033e-311 2.12545e-311 2.12545e-311 2.12545e-311 2.12545e-311 2.12545e-311 2.12545e-311 2.12545e-311 2.12545e-311 2.12545e-311 2.12545e-311 3.16894e-311 3.16894e-311 3.16894e-311 3.16894e-311 3.16894e-311 3.16894e-311 3.16894e-311 3.16894e-311 3.16894e-311 3.16894e-311 3.16949e-311 3.16949e-311 3.16949e-311 3.16949e-311 3.16949e-311 3.16949e-311 3.16949e-311 3.16949e-311 3.16949e-311 3.16949e-311 3.16033e-311 3.16033e-311 3.16033e-311 3.16033e-311 3.16033e-311 3.16033e-311 3.16033e-311 3.16033e-311 3.16033e-311 3.16033e-311 2.12545e-311 2.12545e-311 2.12545e-311 2.12545e-311 2.12545e-311 2.12545e-311 2.12545e-311 2.12545e-311 2.12545e-311 2.12545e-311 3.16894e-311 3.16894e-311 3.16894e-311 3.16894e-311 3.16894e-311 3.16894e-311 3.16894e-311 3.16894e-311 3.16894e-311 3.16894e-311 3.16949e-311 3.16949e-311 3.16949e-311 3.16949e-311 3.16949e-311 3.16949e-311 3.16949e-311 3.16949e-311 3.16949e-311 3.16949e-311 3.16033e-311 3.16033e-311 3.16033e-311 3.16033e-311 3.16033e-311 3.16033e-311 3.16033e-311 3.16033e-311 3.16033e-311 3.16033e-311 2.12545e-311 2.12545e-311 2.12545e-311 2.12545e-311 2.12545e-311 2.12545e-311 2.12545e-311 2.12545e-311 2.12545e-311 2.12545e-311 3.16894e-311 3.16894e-311 3.16894e-311 3.16894e-311 3.16894e-311 3.16894e-311 3.16894e-311 3.16894e-311 3.16894e-311 3.16894e-311 3.16949e-311 3.16949e-311 3.16949e-311 3.16949e-311 3.16949e-311 3.16949e-311 3.16949e-311 3.16949e-311 3.16949e-311 3.16949e-311 3.16033e-311 3.16033e-311 3.16033e-311 3.16033e-311 3.16033e-311 3.16033e-311 3.16033e-311 3.16033e-311 3.16033e-311 3.16033e-311 2.12545e-311 2.12545e-311 2.12545e-311 2.12545e-311 2.12545e-311 2.12545e-311 2.12545e-311 2.12545e-311 2.12545e-311 2.12545e-311 3.16894e-311 3.16894e-311 3.16894e-311 3.16894e-311 3.16894e-311 3.16894e-311 3.16894e-311 3.16894e-311 3.16894e-311 3.16894e-311 3.16949e-311 3.16949e-311 3.16949e-311 3.16949e-311 3.16949e-311 3.16949e-311 3.16949e-311 3.16949e-311 3.16949e-311 3.16949e-311 3.16033e-311 3.16033e-311 3.16033e-311 3.16033e-311 3.16033e-311 3.16033e-311 3.16033e-311 3.16033e-311 3.16033e-311 3.16033e-311 2.12545e-311 2.12545e-311 2.12545e-311 2.12545e-311 2.12545e-311 2.12545e-311 2.12545e-311 2.12545e-311 2.12545e-311 2.12545e-311 3.16894e-311 3.16894e-311 3.16894e-311 3.16894e-311 3.16894e-311 3.16894e-311 3.16894e-311 3.16894e-311 3.16894e-311 3.16894e-311 3.16949e-311 3.16949e-311 3.16949e-311 3.16949e-311 3.16949e-311 3.16949e-311 3.16949e-311 3.16949e-311 3.16949e-311 3.16949e-311 3.16033e-311 3.16033e-311 3.16033e-311 3.16033e-311 3.16033e-311 3.16033e-311 3.16033e-311 3.16033e-311 3.16033e-311 3.16033e-311 2.12545e-311 2.12545e-311 2.12545e-311 2.12545e-311 2.12545e-311 2.12545e-311 2.12545e-311 2.12545e-311 2.12545e-311 2.12545e-311 3.16894e-311 3.16894e-311 3.16894e-311 3.16894e-311 3.16894e-311 3.16894e-311 3.16894e-311 3.16894e-311 3.16894e-311 3.16894e-311 3.16949e-311 3.16949e-311 3.16949e-311 3.16949e-311 3.16949e-311 3.16949e-311 3.16949e-311 3.16949e-311 3.16949e-311 3.16949e-311 3.16033e-311 3.16033e-311 3.16033e-311 3.16033e-311 3.16033e-311 3.16033e-311 3.16033e-311 3.16033e-311 3.16033e-311 3.16033e-311 2.12545e-311 2.12545e-311 2.12545e-311 2.12545e-311 2.12545e-311 2.12545e-311 2.12545e-311 2.12545e-311 2.12545e-311 2.12545e-311 3.16894e-311 3.16894e-311 3.16894e-311 3.16894e-311 3.16894e-311 3.16894e-311 3.16894e-311 3.16894e-311 3.16894e-311 3.16894e-311 3.16949e-311 3.16949e-311 3.16949e-311 3.16949e-311 3.16949e-311 3.16949e-311 3.16949e-311 3.16949e-311 3.16949e-311 3.16949e-311 3.16033e-311 3.16033e-311 3.16033e-311 3.16033e-311 3.16033e-311 3.16033e-311 3.16033e-311 3.16033e-311 3.16033e-311 3.16033e-311 2.12545e-311 2.12545e-311 2.12545e-311 2.12545e-311 2.12545e-311 2.12545e-311 2.12545e-311 2.12545e-311 2.12545e-311 2.12545e-311 3.16894e-311 3.16894e-311 3.16894e-311 3.16894e-311 3.16894e-311 3.16894e-311 3.16894e-311 3.16894e-311 3.16894e-311 3.16894e-311 3.16949e-311 3.16949e-311 3.16949e-311 3.16949e-311 3.16949e-311 3.16949e-311 3.16949e-311 3.16949e-311 3.16949e-311 3.16949e-311 3.16033e-311 3.16033e-311 3.16033e-311 3.16033e-311 3.16033e-311 3.16033e-311 3.16033e-311 3.16033e-311 3.16033e-311 3.16033e-311 2.12545e-311 2.12545e-311 2.12545e-311 2.12545e-311 2.12545e-311 2.12545e-311 2.12545e-311 2.12545e-311 2.12545e-311 2.12545e-311 3.16894e-311 3.16894e-311 3.16894e-311 3.16894e-311 3.16894e-311 3.16894e-311 3.16894e-311 3.16894e-311 3.16894e-311 3.16894e-311 3.16949e-311 3.16949e-311 3.16949e-311 3.16949e-311 3.16949e-311 3.16949e-311 3.16949e-311 3.16949e-311 3.16949e-311 3.16949e-311 3.16033e-311 3.16033e-311 3.16033e-311 3.16033e-311 3.16033e-311 3.16033e-311 3.16033e-311 3.16033e-311 3.16033e-311 3.16033e-311 2.12545e-311 2.12545e-311 2.12545e-311 2.12545e-311 2.12545e-311 2.12545e-311 2.12545e-311 2.12545e-311 2.12545e-311 2.12545e-311 3.16894e-311 3.16894e-311 3.16894e-311 3.16894e-311 3.16894e-311 3.16894e-311 3.16894e-311 3.16894e-311 3.16894e-311 3.16894e-311 3.16949e-311 3.16949e-311 3.16949e-311 3.16949e-311 3.16949e-311 3.16949e-311 3.16949e-311 3.16949e-311 3.16949e-311 3.16949e-311 3.16033e-311 3.16033e-311 3.16033e-311 3.16033e-311 3.16033e-311 3.16033e-311 3.16033e-311 3.16033e-311 3.16033e-311 3.16033e-311 2.12545e-311 2.12545e-311 2.12545e-311 2.12545e-311 2.12545e-311 2.12545e-311 2.12545e-311 2.12545e-311 2.12545e-311 2.12545e-311 3.16894e-311 3.16894e-311 3.16894e-311 3.16894e-311 3.16894e-311 3.16894e-311 3.16894e-311 3.16894e-311 3.16894e-311 3.16894e-311 3.16949e-311 3.16949e-311 3.16949e-311 3.16949e-311 3.16949e-311 3.16949e-311 3.16949e-311 3.16949e-311 3.16949e-311 3.16949e-311 3.16033e-311 3.16033e-311 3.16033e-311 3.16033e-311 3.16033e-311 3.16033e-311 3.16033e-311 3.16033e-311 3.16033e-311 3.16033e-311 2.12545e-311 2.12545e-311 2.12545e-311 2.12545e-311 2.12545e-311 2.12545e-311 2.12545e-311 2.12545e-311 2.12545e-311 2.12545e-311 3.16894e-311 3.16894e-311 3.16894e-311 3.16894e-311 3.16894e-311 3.16894e-311 3.16894e-311 3.16894e-311 3.16894e-311 3.16894e-311 3.16949e-311 3.16949e-311 3.16949e-311 3.16949e-311 3.16949e-311 3.16949e-311 3.16949e-311 3.16949e-311 3.16949e-311 3.16949e-311 3.16033e-311 3.16033e-311 3.16033e-311 3.16033e-311 3.16033e-311 3.16033e-311 3.16033e-311 3.16033e-311 3.16033e-311 3.16033e-311 2.12545e-311 2.12545e-311 2.12545e-311 2.12545e-311 2.12545e-311 2.12545e-311 2.12545e-311 2.12545e-311 2.12545e-311 2.12545e-311 3.16894e-311 3.16894e-311 3.16894e-311 3.16894e-311 3.16894e-311 3.16894e-311 3.16894e-311 3.16894e-311 3.16894e-311 3.16894e-311 3.16949e-311 3.16949e-311 3.16949e-311 3.16949e-311 3.16949e-311 3.16949e-311 3.16949e-311 3.16949e-311 3.16949e-311 3.16949e-311 3.16033e-311 3.16033e-311 3.16033e-311 3.16033e-311 3.16033e-311 3.16033e-311 3.16033e-311 3.16033e-311 3.16033e-311 3.16033e-311 2.12545e-311 2.12545e-311 2.12545e-311 2.12545e-311 2.12545e-311 2.12545e-311 2.12545e-311 2.12545e-311 2.12545e-311 2.12545e-311 3.16894e-311 3.16894e-311 3.16894e-311 3.16894e-311 3.16894e-311 3.16894e-311 3.16894e-311 3.16894e-311 3.16894e-311 3.16894e-311 3.16949e-311 3.16949e-311 3.16949e-311 3.16949e-311 3.16949e-311 3.16949e-311 3.16949e-311 3.16949e-311 3.16949e-311 3.16949e-311 3.16033e-311 3.16033e-311 3.16033e-311 3.16033e-311 3.16033e-311 3.16033e-311 3.16033e-311 3.16033e-311 3.16033e-311 3.16033e-311 2.12545e-311 2.12545e-311 2.12545e-311 2.12545e-311 2.12545e-311 2.12545e-311 2.12545e-311 2.12545e-311 2.12545e-311 2.12545e-311 3.16894e-311 3.16894e-311 3.16894e-311 3.16894e-311 3.16894e-311 3.16894e-311 3.16894e-311 3.16894e-311 3.16894e-311 3.16894e-311 3.16949e-311 3.16949e-311 3.16949e-311 3.16949e-311 3.16949e-311 3.16949e-311 3.16949e-311 3.16949e-311 3.16949e-311 3.16949e-311 3.16033e-311 3.16033e-311 3.16033e-311 3.16033e-311 3.16033e-311 3.16033e-311 3.16033e-311 3.16033e-311 3.16033e-311 3.16033e-311 2.12545e-311 2.12545e-311 2.12545e-311 2.12545e-311 2.12545e-311 2.12545e-311 2.12545e-311 2.12545e-311 2.12545e-311 2.12545e-311 3.16894e-311 3.16894e-311 3.16894e-311 3.16894e-311 3.16894e-311 3.16894e-311 3.16894e-311 3.16894e-311 3.16894e-311 3.16894e-311 3.16949e-311 3.16949e-311 3.16949e-311 3.16949e-311 3.16949e-311 3.16949e-311 3.16949e-311 3.16949e-311 3.16949e-311 3.16949e-311 3.16033e-311 3.16033e-311 3.16033e-311 3.16033e-311 3.16033e-311 3.16033e-311 3.16033e-311 3.16033e-311 3.16033e-311 3.16033e-311 2.12545e-311 2.12545e-311 2.12545e-311 2.12545e-311 2.12545e-311 2.12545e-311 2.12545e-311 2.12545e-311 2.12545e-311 2.12545e-311 3.16894e-311 3.16894e-311 3.16894e-311 3.16894e-311 3.16894e-311 3.16894e-311 3.16894e-311 3.16894e-311 3.16894e-311 3.16894e-311 3.16949e-311 3.16949e-311 3.16949e-311 3.16949e-311 3.16949e-311 3.16949e-311 3.16949e-311 3.16949e-311 3.16949e-311 3.16949e-311 3.16033e-311 3.16033e-311 3.16033e-311 3.16033e-311 3.16033e-311 3.16033e-311 3.16033e-311 3.16033e-311 3.16033e-311 3.16033e-311 2.12545e-311 2.12545e-311 2.12545e-311 2.12545e-311 2.12545e-311 2.12545e-311 2.12545e-311 2.12545e-311 2.12545e-311 2.12545e-311 3.16894e-311 3.16894e-311 3.16894e-311 3.16894e-311 3.16894e-311 3.16894e-311 3.16894e-311 3.16894e-311 3.16894e-311 3.16894e-311 3.16949e-311 3.16949e-311 3.16949e-311 3.16949e-311 3.16949e-311 3.16949e-311 3.16949e-311 3.16949e-311 3.16949e-311 3.16949e-311 3.16033e-311 3.16033e-311 3.16033e-311 3.16033e-311 3.16033e-311 3.16033e-311 3.16033e-311 3.16033e-311 3.16033e-311 3.16033e-311 2.12545e-311 2.12545e-311 2.12545e-311 2.12545e-311 2.12545e-311 2.12545e-311 2.12545e-311 2.12545e-311 2.12545e-311 2.12545e-311 3.16894e-311 3.16894e-311 3.16894e-311 3.16894e-311 3.16894e-311 3.16894e-311 3.16894e-311 3.16894e-311 3.16894e-311 3.16894e-311 3.16949e-311 3.16949e-311 3.16949e-311 3.16949e-311 3.16949e-311 3.16949e-311 3.16949e-311 3.16949e-311 3.16949e-311 3.16949e-311 3.16033e-311 3.16033e-311 3.16033e-311 3.16033e-311 3.16033e-311 3.16033e-311 3.16033e-311 3.16033e-311 3.16033e-311 3.16033e-311 2.12545e-311 2.12545e-311 2.12545e-311 2.12545e-311 2.12545e-311 2.12545e-311 2.12545e-311 2.12545e-311 2.12545e-311 2.12545e-311 3.16894e-311 3.16894e-311 3.16894e-311 3.16894e-311 3.16894e-311 3.16894e-311 3.16894e-311 3.16894e-311 3.16894e-311 3.16894e-311 3.16949e-311 3.16949e-311 3.16949e-311 3.16949e-311 3.16949e-311 3.16949e-311 3.16949e-311 3.16949e-311 3.16949e-311 3.16949e-311 3.16033e-311 3.16033e-311 3.16033e-311 3.16033e-311 3.16033e-311 3.16033e-311 3.16033e-311 3.16033e-311 3.16033e-311 3.16033e-311 2.12545e-311 2.12545e-311 2.12545e-311 2.12545e-311 2.12545e-311 2.12545e-311 2.12545e-311 2.12545e-311 2.12545e-311 2.12545e-311 3.16894e-311 3.16894e-311 3.16894e-311 3.16894e-311 3.16894e-311 3.16894e-311 3.16894e-311 3.16894e-311 3.16894e-311 3.16894e-311 3.16949e-311 3.16949e-311 3.16949e-311 3.16949e-311 3.16949e-311 3.16949e-311 3.16949e-311 3.16949e-311 3.16949e-311 3.16949e-311 0 0 0 0 0 0 0 0 0 0 0 0 0 0 0 0 0 0 0 0 0 0 0 0 0 0 0 0 0 0 0 0 0 0 0 0 0 0 0 0 0 