# vtk DataFile Version 2.0
Presion
ASCII

DATASET STRUCTURED_GRID
DIMENSIONS   40   40   20

POINTS   32000   double
0.003725   0.00025625   0.015
0.011175   0.00025625   0.015
0.018625   0.00025625   0.015
0.026075   0.00025625   0.015
0.033525   0.00025625   0.015
0.040975   0.00025625   0.015
0.048425   0.00025625   0.015
0.055875   0.00025625   0.015
0.063325   0.00025625   0.015
0.070775   0.00025625   0.015
0.078225   0.00025625   0.015
0.085675   0.00025625   0.015
0.093125   0.00025625   0.015
0.100575   0.00025625   0.015
0.108025   0.00025625   0.015
0.115475   0.00025625   0.015
0.122925   0.00025625   0.015
0.130375   0.00025625   0.015
0.137825   0.00025625   0.015
0.145275   0.00025625   0.015
0.152725   0.00025625   0.015
0.160175   0.00025625   0.015
0.167625   0.00025625   0.015
0.175075   0.00025625   0.015
0.182525   0.00025625   0.015
0.189975   0.00025625   0.015
0.197425   0.00025625   0.015
0.204875   0.00025625   0.015
0.212325   0.00025625   0.015
0.219775   0.00025625   0.015
0.227225   0.00025625   0.015
0.234675   0.00025625   0.015
0.242125   0.00025625   0.015
0.249575   0.00025625   0.015
0.257025   0.00025625   0.015
0.264475   0.00025625   0.015
0.271925   0.00025625   0.015
0.279375   0.00025625   0.015
0.286825   0.00025625   0.015
0.294275   0.00025625   0.015
0.003725   0.00076875   0.015
0.011175   0.00076875   0.015
0.018625   0.00076875   0.015
0.026075   0.00076875   0.015
0.033525   0.00076875   0.015
0.040975   0.00076875   0.015
0.048425   0.00076875   0.015
0.055875   0.00076875   0.015
0.063325   0.00076875   0.015
0.070775   0.00076875   0.015
0.078225   0.00076875   0.015
0.085675   0.00076875   0.015
0.093125   0.00076875   0.015
0.100575   0.00076875   0.015
0.108025   0.00076875   0.015
0.115475   0.00076875   0.015
0.122925   0.00076875   0.015
0.130375   0.00076875   0.015
0.137825   0.00076875   0.015
0.145275   0.00076875   0.015
0.152725   0.00076875   0.015
0.160175   0.00076875   0.015
0.167625   0.00076875   0.015
0.175075   0.00076875   0.015
0.182525   0.00076875   0.015
0.189975   0.00076875   0.015
0.197425   0.00076875   0.015
0.204875   0.00076875   0.015
0.212325   0.00076875   0.015
0.219775   0.00076875   0.015
0.227225   0.00076875   0.015
0.234675   0.00076875   0.015
0.242125   0.00076875   0.015
0.249575   0.00076875   0.015
0.257025   0.00076875   0.015
0.264475   0.00076875   0.015
0.271925   0.00076875   0.015
0.279375   0.00076875   0.015
0.286825   0.00076875   0.015
0.294275   0.00076875   0.015
0.003725   0.00128125   0.015
0.011175   0.00128125   0.015
0.018625   0.00128125   0.015
0.026075   0.00128125   0.015
0.033525   0.00128125   0.015
0.040975   0.00128125   0.015
0.048425   0.00128125   0.015
0.055875   0.00128125   0.015
0.063325   0.00128125   0.015
0.070775   0.00128125   0.015
0.078225   0.00128125   0.015
0.085675   0.00128125   0.015
0.093125   0.00128125   0.015
0.100575   0.00128125   0.015
0.108025   0.00128125   0.015
0.115475   0.00128125   0.015
0.122925   0.00128125   0.015
0.130375   0.00128125   0.015
0.137825   0.00128125   0.015
0.145275   0.00128125   0.015
0.152725   0.00128125   0.015
0.160175   0.00128125   0.015
0.167625   0.00128125   0.015
0.175075   0.00128125   0.015
0.182525   0.00128125   0.015
0.189975   0.00128125   0.015
0.197425   0.00128125   0.015
0.204875   0.00128125   0.015
0.212325   0.00128125   0.015
0.219775   0.00128125   0.015
0.227225   0.00128125   0.015
0.234675   0.00128125   0.015
0.242125   0.00128125   0.015
0.249575   0.00128125   0.015
0.257025   0.00128125   0.015
0.264475   0.00128125   0.015
0.271925   0.00128125   0.015
0.279375   0.00128125   0.015
0.286825   0.00128125   0.015
0.294275   0.00128125   0.015
0.003725   0.00179375   0.015
0.011175   0.00179375   0.015
0.018625   0.00179375   0.015
0.026075   0.00179375   0.015
0.033525   0.00179375   0.015
0.040975   0.00179375   0.015
0.048425   0.00179375   0.015
0.055875   0.00179375   0.015
0.063325   0.00179375   0.015
0.070775   0.00179375   0.015
0.078225   0.00179375   0.015
0.085675   0.00179375   0.015
0.093125   0.00179375   0.015
0.100575   0.00179375   0.015
0.108025   0.00179375   0.015
0.115475   0.00179375   0.015
0.122925   0.00179375   0.015
0.130375   0.00179375   0.015
0.137825   0.00179375   0.015
0.145275   0.00179375   0.015
0.152725   0.00179375   0.015
0.160175   0.00179375   0.015
0.167625   0.00179375   0.015
0.175075   0.00179375   0.015
0.182525   0.00179375   0.015
0.189975   0.00179375   0.015
0.197425   0.00179375   0.015
0.204875   0.00179375   0.015
0.212325   0.00179375   0.015
0.219775   0.00179375   0.015
0.227225   0.00179375   0.015
0.234675   0.00179375   0.015
0.242125   0.00179375   0.015
0.249575   0.00179375   0.015
0.257025   0.00179375   0.015
0.264475   0.00179375   0.015
0.271925   0.00179375   0.015
0.279375   0.00179375   0.015
0.286825   0.00179375   0.015
0.294275   0.00179375   0.015
0.003725   0.00230625   0.015
0.011175   0.00230625   0.015
0.018625   0.00230625   0.015
0.026075   0.00230625   0.015
0.033525   0.00230625   0.015
0.040975   0.00230625   0.015
0.048425   0.00230625   0.015
0.055875   0.00230625   0.015
0.063325   0.00230625   0.015
0.070775   0.00230625   0.015
0.078225   0.00230625   0.015
0.085675   0.00230625   0.015
0.093125   0.00230625   0.015
0.100575   0.00230625   0.015
0.108025   0.00230625   0.015
0.115475   0.00230625   0.015
0.122925   0.00230625   0.015
0.130375   0.00230625   0.015
0.137825   0.00230625   0.015
0.145275   0.00230625   0.015
0.152725   0.00230625   0.015
0.160175   0.00230625   0.015
0.167625   0.00230625   0.015
0.175075   0.00230625   0.015
0.182525   0.00230625   0.015
0.189975   0.00230625   0.015
0.197425   0.00230625   0.015
0.204875   0.00230625   0.015
0.212325   0.00230625   0.015
0.219775   0.00230625   0.015
0.227225   0.00230625   0.015
0.234675   0.00230625   0.015
0.242125   0.00230625   0.015
0.249575   0.00230625   0.015
0.257025   0.00230625   0.015
0.264475   0.00230625   0.015
0.271925   0.00230625   0.015
0.279375   0.00230625   0.015
0.286825   0.00230625   0.015
0.294275   0.00230625   0.015
0.003725   0.00281875   0.015
0.011175   0.00281875   0.015
0.018625   0.00281875   0.015
0.026075   0.00281875   0.015
0.033525   0.00281875   0.015
0.040975   0.00281875   0.015
0.048425   0.00281875   0.015
0.055875   0.00281875   0.015
0.063325   0.00281875   0.015
0.070775   0.00281875   0.015
0.078225   0.00281875   0.015
0.085675   0.00281875   0.015
0.093125   0.00281875   0.015
0.100575   0.00281875   0.015
0.108025   0.00281875   0.015
0.115475   0.00281875   0.015
0.122925   0.00281875   0.015
0.130375   0.00281875   0.015
0.137825   0.00281875   0.015
0.145275   0.00281875   0.015
0.152725   0.00281875   0.015
0.160175   0.00281875   0.015
0.167625   0.00281875   0.015
0.175075   0.00281875   0.015
0.182525   0.00281875   0.015
0.189975   0.00281875   0.015
0.197425   0.00281875   0.015
0.204875   0.00281875   0.015
0.212325   0.00281875   0.015
0.219775   0.00281875   0.015
0.227225   0.00281875   0.015
0.234675   0.00281875   0.015
0.242125   0.00281875   0.015
0.249575   0.00281875   0.015
0.257025   0.00281875   0.015
0.264475   0.00281875   0.015
0.271925   0.00281875   0.015
0.279375   0.00281875   0.015
0.286825   0.00281875   0.015
0.294275   0.00281875   0.015
0.003725   0.00333125   0.015
0.011175   0.00333125   0.015
0.018625   0.00333125   0.015
0.026075   0.00333125   0.015
0.033525   0.00333125   0.015
0.040975   0.00333125   0.015
0.048425   0.00333125   0.015
0.055875   0.00333125   0.015
0.063325   0.00333125   0.015
0.070775   0.00333125   0.015
0.078225   0.00333125   0.015
0.085675   0.00333125   0.015
0.093125   0.00333125   0.015
0.100575   0.00333125   0.015
0.108025   0.00333125   0.015
0.115475   0.00333125   0.015
0.122925   0.00333125   0.015
0.130375   0.00333125   0.015
0.137825   0.00333125   0.015
0.145275   0.00333125   0.015
0.152725   0.00333125   0.015
0.160175   0.00333125   0.015
0.167625   0.00333125   0.015
0.175075   0.00333125   0.015
0.182525   0.00333125   0.015
0.189975   0.00333125   0.015
0.197425   0.00333125   0.015
0.204875   0.00333125   0.015
0.212325   0.00333125   0.015
0.219775   0.00333125   0.015
0.227225   0.00333125   0.015
0.234675   0.00333125   0.015
0.242125   0.00333125   0.015
0.249575   0.00333125   0.015
0.257025   0.00333125   0.015
0.264475   0.00333125   0.015
0.271925   0.00333125   0.015
0.279375   0.00333125   0.015
0.286825   0.00333125   0.015
0.294275   0.00333125   0.015
0.003725   0.00384375   0.015
0.011175   0.00384375   0.015
0.018625   0.00384375   0.015
0.026075   0.00384375   0.015
0.033525   0.00384375   0.015
0.040975   0.00384375   0.015
0.048425   0.00384375   0.015
0.055875   0.00384375   0.015
0.063325   0.00384375   0.015
0.070775   0.00384375   0.015
0.078225   0.00384375   0.015
0.085675   0.00384375   0.015
0.093125   0.00384375   0.015
0.100575   0.00384375   0.015
0.108025   0.00384375   0.015
0.115475   0.00384375   0.015
0.122925   0.00384375   0.015
0.130375   0.00384375   0.015
0.137825   0.00384375   0.015
0.145275   0.00384375   0.015
0.152725   0.00384375   0.015
0.160175   0.00384375   0.015
0.167625   0.00384375   0.015
0.175075   0.00384375   0.015
0.182525   0.00384375   0.015
0.189975   0.00384375   0.015
0.197425   0.00384375   0.015
0.204875   0.00384375   0.015
0.212325   0.00384375   0.015
0.219775   0.00384375   0.015
0.227225   0.00384375   0.015
0.234675   0.00384375   0.015
0.242125   0.00384375   0.015
0.249575   0.00384375   0.015
0.257025   0.00384375   0.015
0.264475   0.00384375   0.015
0.271925   0.00384375   0.015
0.279375   0.00384375   0.015
0.286825   0.00384375   0.015
0.294275   0.00384375   0.015
0.003725   0.00435625   0.015
0.011175   0.00435625   0.015
0.018625   0.00435625   0.015
0.026075   0.00435625   0.015
0.033525   0.00435625   0.015
0.040975   0.00435625   0.015
0.048425   0.00435625   0.015
0.055875   0.00435625   0.015
0.063325   0.00435625   0.015
[...]
POINT_DATA   32000
SCALARS Presion double
LOOKUP_TABLE   Presion

0 0 0 0 0 0 0 0 0 0 0 0 0 0 0 0 0 0 0 0 0 0 0 0 0 0 0 0 0 0 0 0 0 0 0 0 0 0 0 0 -0.0187296 -0.0218851 -0.0202704 -0.0202297 -0.020086 -0.0199319 -0.0197411 -0.0194998 -0.0191973 -0.0188258 -0.0183911 -0.0181168 -0.0167021 -0.016183 -0.0152337 -0.0141399 -0.0129613 -0.0117627 -0.0106106 -0.009559 -0.00863777 -0.00784782 -0.00716675 -0.00655795 -0.00598228 -0.00540608 -0.00480619 -0.00418145 -0.00342187 -0.00273196 -0.00200535 -0.00127172 -0.000553022 0.000125675 0.00073627 0.00124909 0.00163646 0.00188035 0.00198616 0.00199976 -0.0133507 -0.016082 -0.0147531 -0.014694 -0.0145803 -0.0144751 -0.0143624 -0.014236 -0.0140913 -0.0139217 -0.0137226 -0.0135987 -0.0130006 -0.0126893 -0.0121028 -0.01138 -0.0105492 -0.00965132 -0.0087351 -0.00784544 -0.00701276 -0.00624729 -0.00554166 -0.00487657 -0.00422915 -0.0035792 -0.00291308 -0.00222883 -0.00148476 -0.000767595 -4.23969e-05 0.000672093 0.00135767 0.00199284 0.00255342 0.00301443 0.00335368 0.00355896 0.00364064 0.00364596 -0.0106203 -0.0135639 -0.0122009 -0.0120178 -0.0117707 -0.011505 -0.0112084 -0.010879 -0.0105182 -0.0101291 -0.00972234 -0.00941721 -0.00849152 -0.00805681 -0.00737955 -0.00660866 -0.0057806 -0.00493697 -0.00412322 -0.00337788 -0.00272306 -0.0021599 -0.00167192 -0.00123161 -0.00080906 -0.000378569 7.7039e-05 0.000559617 0.00113972 0.00168369 0.00225646 0.00283517 0.00340076 0.00393161 0.00440347 0.00479121 0.00507277 0.00523665 0.00529422 0.00529174 -0.00636614 -0.00867917 -0.00770794 -0.00762664 -0.00752607 -0.00743054 -0.00732849 -0.00721572 -0.00708919 -0.00694434 -0.00677848 -0.00665318 -0.00618661 -0.00589847 -0.00539925 -0.00477783 -0.00406026 -0.00328409 -0.002495 -0.00173574 -0.0010359 -0.000406439 0.000158513 0.000676369 0.00116858 0.00165484 0.00214916 0.00265607 0.00320812 0.00374465 0.00428929 0.00482627 0.00533987 0.00581218 0.00622347 0.00655356 0.0067853 0.00691154 0.00694678 0.00693717 -0.00247202 -0.00485552 -0.00388934 -0.00371096 -0.00351041 -0.0033038 -0.00308525 -0.00285601 -0.00261876 -0.00237507 -0.00212844 -0.00192715 -0.00142351 -0.00111911 -0.000659756 -0.000115068 0.000489059 0.0011186 0.00173407 0.00230056 0.00279674 0.00321915 0.00357988 0.00390079 0.00420604 0.00451651 0.00484614 0.00519839 0.00561807 0.00602362 0.00645256 0.00688689 0.00730951 0.00770145 0.00804223 0.00831182 0.00849423 0.00858427 0.00859841 0.00858222 0.000368299 -0.00155744 -0.000888987 -0.00081415 -0.000739143 -0.000668343 -0.000593421 -0.000511135 -0.000418701 -0.000311553 -0.000186454 -7.80935e-05 0.00030998 0.000570534 0.00100111 0.00154187 0.00216597 0.00283654 0.00350981 0.00414542 0.00471586 0.00521134 0.00563826 0.00601396 0.00635956 0.0066943 0.00703166 0.0073768 0.00775497 0.00812601 0.00850606 0.00888246 0.00924206 0.00956978 0.00984893 0.0100629 0.010199 0.0102549 0.0102492 0.0102269 0.00498859 0.00317277 0.00375819 0.00387035 0.00397915 0.00408411 0.00418886 0.00429257 0.00439424 0.00449524 0.00459805 0.004689 0.00493264 0.00512656 0.00543597 0.00582951 0.0062863 0.00677556 0.00726029 0.00770665 0.0080925 0.00841168 0.00867257 0.00889309 0.00909426 0.00929493 0.00950813 0.00973882 0.0100149 0.0102904 0.0105843 0.010882 0.011169 0.0114297 0.0116478 0.0118081 0.0118999 0.0119234 0.0118991 0.0118711 0.00690223 0.00528553 0.00571836 0.00577267 0.00582115 0.00586721 0.00591669 0.00597197 0.00603545 0.00611134 0.0062031 0.00629349 0.00661179 0.00683832 0.00719913 0.00765464 0.00817881 0.00873698 0.00928896 0.00979831 0.0102406 0.0106073 0.0109049 0.0111493 0.0113601 0.0115552 0.0117478 0.0119442 0.0121657 0.0123875 0.012621 0.0128552 0.0130783 0.0132772 0.0134378 0.0135472 0.0135971 0.01359 0.0135481 0.0135149 0.0116829 0.0102974 0.0105943 0.0106329 0.0106579 0.0106738 0.0106831 0.0106861 0.0106839 0.0106805 0.0106823 0.01069 0.0107974 0.0109153 0.0111323 0.0114317 0.0117936 0.0121878 0.0125784 0.0129324 0.0132281 0.0134587 0.0136309 0.0137609 0.0138674 0.0139674 0.0140726 0.014188 0.0143321 0.0144819 0.0146466 0.0148149 0.0149748 0.015114 0.0152197 0.0152807 0.0152907 0.0152546 0.0151963 0.0151583 0.013267 0.0118875 0.0121426 0.0121737 0.0121993 0.0122238 0.0122503 0.0122795 0.0123131 0.0123545 0.0124078 0.0124682 0.0127054 0.0128831 0.0131665 0.0135311 0.0139531 0.0144004 0.0148357 0.0152255 0.0155471 0.0157928 0.0159688 0.0160903 0.0161761 0.0162438 0.0163065 0.0163714 0.0164554 0.016546 0.0166498 0.0167571 0.0168575 0.0169401 0.0169935 0.0170085 0.0169808 0.0169174 0.0168436 0.0168011 0.0177298 0.0166225 0.0167273 0.0167067 0.0166735 0.0166309 0.0165806 0.0165233 0.0164613 0.0163998 0.0163463 0.0163065 0.0163542 0.0164238 0.0165814 0.0168155 0.0171066 0.0174258 0.0177388 0.0180145 0.0182318 0.0183835 0.018475 0.0185203 0.0185362 0.0185384 0.0185379 0.0185409 0.0185615 0.0185914 0.0186351 0.0186836 0.0187272 0.0187558 0.0187596 0.0187309 0.0186676 0.0185784 0.0184901 0.0184434 0.0194562 0.0182766 0.0183892 0.0183909 0.01839 0.018388 0.0183854 0.0183817 0.0183781 0.0183779 0.0183861 0.0184067 0.0185622 0.0186838 0.0188894 0.0191642 0.0194865 0.0198263 0.0201493 0.020425 0.0206331 0.020767 0.0208329 0.0208453 0.0208218 0.0207788 0.0207286 0.0206782 0.0206414 0.0206147 0.0206018 0.0205945 0.0205841 0.0205614 0.0205181 0.0204481 0.020351 0.0202375 0.0201357 0.0200851 0.023347 0.0224008 0.0223878 0.0223283 0.0222623 0.0221891 0.0221087 0.0220213 0.0219294 0.0218383 0.0217557 0.0216899 0.0217094 0.0217466 0.0218617 0.0220455 0.0222791 0.0225341 0.0227779 0.0229807 0.0231226 0.0231961 0.0232063 0.023166 0.0230911 0.0229969 0.0228946 0.022791 0.0226986 0.0226176 0.0225506 0.0224902 0.0224284 0.0223571 0.0222692 0.0221601 0.0220312 0.0218949 0.0217805 0.0217262 0.0254357 0.0244263 0.024424 0.0243907 0.0243588 0.0243253 0.0242882 0.0242462 0.0241999 0.0241529 0.0241112 0.0240839 0.0241578 0.0242178 0.0243461 0.0245342 0.0247625 0.0250035 0.0252257 0.025401 0.0255108 0.0255489 0.0255208 0.0254395 0.0253214 0.0251813 0.0250309 0.0248774 0.0247327 0.0246002 0.0244818 0.024371 0.0242605 0.0241432 0.0240131 0.0238671 0.0237082 0.0235506 0.0234243 0.0233667 0.0287148 0.0278645 0.0277767 0.0276927 0.0276101 0.0275231 0.0274297 0.0273293 0.0272236 0.0271176 0.0270188 0.0269376 0.026937 0.0269471 0.027023 0.027158 0.0273335 0.0275226 0.0276945 0.0278215 0.0278852 0.0278789 0.0278075 0.0276832 0.0275214 0.0273365 0.0271398 0.0269385 0.0267443 0.0265627 0.0263957 0.0262371 0.0260805 0.0259198 0.0257499 0.0255692 0.0253822 0.0252046 0.0250673 0.0250065 0.0311394 0.0302734 0.0301801 0.030107 0.0300398 0.0299706 0.0298954 0.0298122 0.0297217 0.029628 0.0295381 0.0294635 0.0294677 0.0294719 0.0295342 0.029649 0.0297984 0.0299566 0.0300941 0.0301846 0.0302105 0.0301659 0.0300556 0.0298916 0.0296889 0.0294617 0.029221 0.0289746 0.0287336 0.0285056 0.0282925 0.0280888 0.0278888 0.027687 0.0274797 0.0272664 0.0270531 0.0268569 0.0267094 0.0266456 0.0339679 0.0331882 0.0330465 0.0329433 0.0328481 0.0327507 0.0326467 0.0325342 0.0324143 0.0322916 0.0321734 0.0320718 0.0320403 0.0320166 0.0320476 0.0321284 0.0322416 0.0323619 0.0324607 0.0325124 0.0324999 0.0324172 0.032269 0.0320667 0.0318249 0.0315574 0.0312751 0.0309859 0.0307008 0.030429 0.0301725 0.0299263 0.0296854 0.0294452 0.0292028 0.0289589 0.028721 0.0285075 0.0283506 0.0282841 0.0365133 0.0357549 0.0355954 0.0354867 0.035389 0.0352898 0.0351834 0.0350672 0.034942 0.0348121 0.034685 0.0345732 0.0345257 0.0344848 0.0344934 0.0345476 0.0346305 0.0347177 0.0347816 0.0347976 0.0347493 0.0346308 0.0344467 0.0342083 0.0339295 0.0336239 0.0333022 0.0329726 0.0326462 0.0323332 0.0320357 0.0317497 0.0314705 0.0311942 0.030919 0.0306467 0.030386 0.0301565 0.0299908 0.0299218 0.0391044 0.0383923 0.0382058 0.0380801 0.0379678 0.0378545 0.0377338 0.0376027 0.0374619 0.0373159 0.0371724 0.0370439 0.0369738 0.0369125 0.0368969 0.0369235 0.0369759 0.0370306 0.0370607 0.0370424 0.0369597 0.0368072 0.0365892 0.0363164 0.0360027 0.0356612 0.0353025 0.034935 0.0345699 0.0342182 0.0338825 0.0335592 0.0332441 0.0329343 0.0326286 0.0323299 0.0320481 0.0318037 0.0316301 0.0315587 0.041601 0.0409194 0.0407143 0.0405775 0.0404563 0.0403345 0.0402047 0.0400638 0.0399122 0.0397544 0.039598 0.0394559 0.0393667 0.0392871 0.0392493 0.0392503 0.0392743 0.0392984 0.0392966 0.0392458 0.0391309 0.0389462 0.0386961 0.0383912 0.0380446 0.0376694 0.037276 0.0368731 0.0364719 0.0360842 0.0357128 0.0353548 0.0350065 0.0346656 0.0343316 0.0340085 0.0337072 0.0334494 0.0332684 0.0331948 0.0440529 0.0434032 0.0431803 0.043031 0.0428994 0.0427677 0.0426277 0.0424759 0.0423127 0.0421423 0.0419729 0.0418169 0.041709 0.0416114 0.0415524 0.041529 0.041526 0.0415211 0.0414892 0.0414079 0.0412625 0.0410477 0.0407676 0.0404325 0.0400552 0.0396485 0.0392229 0.0387871 0.0383524 0.0379312 0.0375268 0.0371366 0.0367576 0.036388 0.036028 0.0356826 0.0353635 0.0350933 0.0349058 0.0348301 0.0464421 0.0458202 0.0455826 0.0454222 0.0452813 0.0451406 0.0449915 0.0448298 0.0446559 0.0444742 0.0442926 0.0441237 0.0439983 0.0438839 0.0438049 0.0437586 0.0437303 0.0436983 0.0436381 0.0435283 0.0433544 0.0431114 0.0428034 0.0424402 0.0420345 0.0415986 0.0411431 0.0406768 0.0402113 0.0397594 0.0393245 0.0389048 0.0384976 0.0381016 0.0377179 0.0373521 0.0370169 0.0367356 0.0365421 0.0364646 0.0487717 0.0481758 0.0479253 0.0477544 0.0476045 0.0474554 0.0472975 0.0471264 0.0469425 0.04675 0.0465571 0.0463759 0.0462341 0.0461039 0.0460063 0.0459387 0.0458867 0.0458294 0.045743 0.0456066 0.0454063 0.0451372 0.0448033 0.0444142 0.0439822 0.0435196 0.0430366 0.0425424 0.0420488 0.0415686 0.041106 0.0406593 0.0402265 0.0398066 0.0394014 0.0390171 0.0386674 0.0383762 0.0381774 0.0380982 0.0510391 0.050467 0.0502057 0.0500251 0.0498669 0.0497098 0.0495438 0.0493641 0.0491709 0.0489685 0.0487651 0.0485725 0.0484157 0.0482707 0.048156 0.0480686 0.0479947 0.047914 0.0478033 0.0476425 0.0474179 0.0471249 0.0467673 0.0463545 0.0458985 0.0454114 0.0449035 0.044384 0.0438648 0.0433591 0.0428713 0.0424003 0.0419443 0.0415029 0.0410784 0.0406777 0.0403151 0.0400151 0.0398117 0.039731 0.0532433 0.0526931 0.0524227 0.0522332 0.0520673 0.051903 0.0517294 0.0515418 0.0513401 0.0511288 0.0509157 0.0507127 0.0505421 0.0503837 0.0502532 0.0501477 0.0500539 0.0499517 0.0498189 0.0496357 0.049389 0.0490742 0.0486952 0.0482609 0.0477834 0.0472742 0.0467438 0.0462016 0.0456595 0.0451309 0.0446206 0.0441278 0.0436512 0.0431907 0.042749 0.0423338 0.0419599 0.0416523 0.0414449 0.0413628 0.0553831 0.0548533 0.0545752 0.0543777 0.0542048 0.0540338 0.0538535 0.0536588 0.0534495 0.05323 0.0530083 0.052796 0.052613 0.0524423 0.0522976 0.0521758 0.0520639 0.0519424 0.0517895 0.0515862 0.0513196 0.0509853 0.050587 0.0501336 0.0496368 0.0491081 0.0485577 0.0479953 0.047433 0.0468842 0.046354 0.045842 0.0453472 0.04487 0.0444134 0.0439855 0.0436018 0.0432878 0.043077 0.0429937 0.0574579 0.056947 0.0566625 0.0564578 0.0562787 0.0561018 0.0559155 0.0557145 0.0554984 0.0552718 0.0550426 0.0548219 0.0546279 0.0544465 0.0542892 0.0541528 0.0540247 0.053886 0.0537153 0.053494 0.0532098 0.0528583 0.052443 0.0519729 0.0514592 0.0509133 0.0503456 0.0497656 0.0491857 0.0486193 0.0480718 0.0475432 0.0470327 0.046541 0.0460716 0.0456329 0.045241 0.0449216 0.0447081 0.0446236 0.0594675 0.0589741 0.0586845 0.0584735 0.0582889 0.0581068 0.0579153 0.0577088 0.057487 0.0572542 0.0570185 0.0567906 0.0565872 0.0563964 0.056228 0.056079 0.0559368 0.0557829 0.0555966 0.0553597 0.0550601 0.0546936 0.0542638 0.0537792 0.053251 0.0526905 0.0521078 0.0515128 0.0509179 0.0503365 0.0497743 0.0492315 0.0487078 0.0482039 0.0477237 0.0472762 0.0468775 0.0465537 0.046338 0.0462526 0.0614127 0.0609354 0.0606417 0.0604253 0.0602359 0.0600495 0.0598536 0.0596425 0.0594158 0.0591779 0.0589368 0.058703 0.0584916 0.0582928 0.0581151 0.0579552 0.0578009 0.057634 0.0574343 0.057184 0.0568714 0.0564923 0.0560501 0.0555534 0.0550131 0.0544403 0.0538452 0.0532377 0.0526303 0.0520364 0.051462 0.0509076 0.0503729 0.049859 0.0493701 0.0489153 0.0485113 0.0481841 0.0479668 0.0478807 0.063295 0.0628323 0.0625355 0.0623145 0.0621212 0.0619312 0.0617317 0.0615169 0.0612864 0.0610444 0.060799 0.0605604 0.0603425 0.0601373 0.0599519 0.059783 0.0596185 0.0594407 0.0592299 0.0589685 0.058645 0.0582555 0.0578033 0.0572967 0.0567466 0.056164 0.0555588 0.0549412 0.0543238 0.0537199 0.0531356 0.0525719 0.0520285 0.0515067 0.051011 0.0505506 0.0501426 0.049813 0.0495945 0.0495077 0.0651172 0.0646677 0.0643685 0.0641438 0.0639473 0.0637545 0.0635523 0.0633347 0.0631012 0.0628562 0.0626075 0.0623653 0.0621424 0.0619321 0.0617406 0.0615645 0.0613918 0.0612053 0.0609854 0.060715 0.060383 0.0599852 0.0595251 0.0590109 0.0584532 0.0578629 0.05725 0.0566246 0.0559995 0.0553878 0.0547961 0.0542252 0.0536752 0.0531475 0.0526467 0.0521823 0.0517714 0.0514403 0.0512211 0.0511337 0.0668832 0.0664455 0.0661446 0.065917 0.0657181 0.0655232 0.065319 0.0650994 0.0648639 0.0646168 0.0643659 0.0641211 0.0638946 0.0636806 0.0634846 0.0633029 0.0631239 0.0629306 0.0627037 0.0624265 0.0620879 0.0616839 0.061218 0.0606981 0.0601349 0.059539 0.0589205 0.0582896 0.0576588 0.0570416 0.0564444 0.0558685 0.0553138 0.054782 0.0542777 0.0538107 0.0533981 0.0530661 0.0528466 0.0527588 0.0685988 0.068171 0.0678689 0.0676393 0.0674386 0.0672424 0.067037 0.0668162 0.0665794 0.066331 0.0660788 0.0658326 0.0656036 0.0653872 0.0651881 0.0650024 0.0648189 0.0646206 0.0643886 0.0641064 0.0637631 0.0633548 0.0628849 0.0623613 0.0617944 0.0611949 0.0605727 0.0599381 0.0593036 0.0586828 0.0580821 0.0575028 0.0569452 0.0564108 0.0559045 0.0554361 0.0550227 0.0546906 0.054471 0.0543828 0.0702708 0.0698512 0.0695484 0.0693173 0.0691156 0.0689186 0.0687126 0.0684912 0.0682539 0.068005 0.0677524 0.0675055 0.0672752 0.0670575 0.0668564 0.0666683 0.0664817 0.06628 0.0660446 0.0657592 0.0654128 0.0650019 0.0645296 0.0640039 0.0634349 0.0628334 0.0622092 0.0615725 0.060936 0.0603132 0.0597106 0.0591296 0.0585705 0.0580349 0.0575278 0.0570589 0.0566456 0.0563138 0.0560944 0.0560059 0.0719077 0.0714944 0.0711911 0.0709592 0.0707571 0.0705598 0.0703536 0.0701322 0.069895 0.0696462 0.0693936 0.0691468 0.0689162 0.0686981 0.0684961 0.0683065 0.0681182 0.0679146 0.0676772 0.0673898 0.0670419 0.0666297 0.0661563 0.0656298 0.0650601 0.0644578 0.0638329 0.0631955 0.0625584 0.0619349 0.0613317 0.0607502 0.0601908 0.0596552 0.0591481 0.0586797 0.058267 0.0579359 0.0577169 0.0576281 0.073519 0.0731098 0.0728064 0.0725742 0.0723719 0.0721747 0.0719688 0.0717478 0.071511 0.0712626 0.0710106 0.0707644 0.070534 0.0703161 0.070114 0.069924 0.0697349 0.0695304 0.0692921 0.069004 0.0686556 0.0682431 0.0677697 0.0672432 0.0666738 0.0660718 0.0654472 0.0648101 0.0641733 0.06355 0.0629472 0.0623663 0.0618075 0.0612725 0.0607663 0.0602988 0.0598871 0.0595569 0.0593384 0.0592494 0.0751143 0.0747071 0.0744037 0.0741715 0.0739695 0.0737726 0.0735672 0.0733466 0.0731104 0.0728628 0.0726116 0.0723661 0.0721364 0.0719191 0.0717174 0.0715275 0.0713385 0.0711338 0.0708955 0.0706074 0.0702592 0.0698471 0.0693743 0.0688486 0.06828 0.0676789 0.0670552 0.066419 0.0657831 0.0651609 0.064559 0.0639792 0.0634215 0.0628878 0.0623828 0.0619166 0.0615062 0.0611771 0.0609592 0.06087 0.0767027 0.0762954 0.0759922 0.0757602 0.0755586 0.0753622 0.0751572 0.0749372 0.0747017 0.0744547 0.0742043 0.0739597 0.0737307 0.0735142 0.0733131 0.0731238 0.0729351 0.0727309 0.072493 0.0722054 0.0718578 0.0714465 0.0709747 0.07045 0.0698825 0.0692826 0.06866 0.0680251 0.0673904 0.0667695 0.066169 0.0655905 0.0650342 0.064502 0.0639985 0.0635337 0.0631246 0.0627966 0.0625792 0.06249 0.0766703 0.0762612 0.075958 0.0757265 0.0755252 0.0753292 0.0751246 0.0749051 0.07467 0.0744236 0.0741738 0.0739298 0.0737015 0.0734856 0.0732851 0.0730964 0.0729083 0.0727046 0.0724673 0.0721804 0.0718336 0.0714231 0.0709521 0.0704284 0.0698619 0.0692631 0.0686416 0.0680078 0.0673742 0.0667544 0.0661552 0.065578 0.065023 0.064492 0.0639898 0.0635262 0.0631182 0.062791 0.0625739 0.0624848 0 0 0 0 0 0 0 0 0 0 0 0 0 0 0 0 0 0 0 0 0 0 0 0 0 0 0 0 0 0 0 0 0 0 0 0 0 0 0 0 -0.000564335 -0.0013782 -0.00100577 -0.000685799 -0.000321594 0.000103858 0.000591773 0.00113472 0.00171093 0.00227608 0.00274892 0.0030242 0.00351396 0.00346506 0.00314824 0.00257382 0.00179602 0.000925261 9.29179e-05 -0.000584172 -0.00103 -0.00121961 -0.00117304 -0.000939694 -0.0005805 -0.000153501 0.000296843 0.000747846 -0.0002064 0.000352554 0.000771935 0.00109328 0.0013331 0.00150282 0.00161348 0.00167624 0.00170267 0.00170504 0.0016961 0.00168576 -0.00226192 -0.00279195 -0.00262098 -0.00245087 -0.00224597 -0.00198731 -0.00166113 -0.00125797 -0.000778956 -0.000246763 0.000270115 0.000579782 0.00199334 0.00216964 0.00235464 0.00238425 0.00225275 0.00201555 0.00175482 0.00155043 0.00145774 0.00149775 0.0016601 0.00191388 0.00222038 0.00254322 0.00285419 0.00311272 0.00187109 0.00223799 0.00254116 0.00277626 0.00295386 0.0030824 0.00317002 0.00322466 0.0032539 0.00326517 0.00326612 0.00326332 0.00217339 0.00218912 0.00210169 0.00217399 0.00223847 0.00231516 0.00241039 0.00252849 0.00266656 0.00280675 0.00290533 0.00293619 0.00323413 0.00314235 0.00294076 0.00264701 0.00229285 0.00194506 0.00167955 0.00155719 0.00160788 0.00182685 0.00218171 0.00262532 0.00310837 0.00358794 0.00402989 0.0043689 0.00327229 0.00365688 0.00400351 0.00427791 0.00448725 0.00463986 0.00474437 0.00480988 0.00484577 0.00486142 0.00486565 0.00486546 0.000739793 0.000220444 0.000366208 0.00053613 0.000743523 0.000999671 0.00131336 0.00168934 0.0021225 0.00258884 0.00302955 0.00334908 0.00438028 0.00457707 0.0047283 0.00477112 0.00471372 0.00460748 0.00451797 0.0045014 0.00458909 0.0047833 0.00506287 0.005394 0.00574089 0.00607226 0.00636048 0.0065261 0.00542162 0.00564343 0.00587978 0.00606994 0.00621562 0.00632264 0.00639695 0.00644423 0.00647019 0.00648097 0.0064832 0.00648272 0.00247701 0.00252932 0.00234315 0.00234602 0.00235846 0.00239883 0.00248135 0.00261892 0.00281647 0.00306212 0.00331475 0.00352777 0.00429372 0.00447503 0.00463113 0.00472953 0.00477666 0.00481378 0.00489277 0.00505567 0.00532161 0.00568392 0.00611586 0.00658081 0.00704182 0.00746714 0.00782706 0.00803081 0.00707714 0.00729819 0.00754488 0.00774157 0.00788732 0.00798877 0.00805404 0.00809138 0.00810855 0.00811282 0.00811102 0.00810888 0.00319144 0.00273685 0.00280245 0.00293717 0.00311072 0.00333415 0.00361881 0.00397342 0.00439762 0.00487308 0.00535125 0.00577693 0.00681033 0.00715884 0.00745996 0.00767083 0.00779153 0.00785971 0.00792658 0.00803675 0.00821517 0.00846348 0.00876447 0.00909078 0.00941312 0.0097048 0.00993682 0.0100097 0.00907585 0.00918582 0.00935751 0.00950021 0.00960689 0.00968037 0.00972556 0.00974823 0.00975459 0.00975115 0.00974441 0.00973999 0.00335865 0.00298783 0.00296718 0.00304172 0.0031595 0.00333213 0.00357509 0.00390167 0.00431572 0.00480262 0.00531785 0.00580954 0.00693114 0.0073869 0.00781763 0.00817386 0.00844993 0.00867613 0.00889616 0.00914827 0.00945303 0.00981008 0.0102021 0.0106027 0.0109843 0.011321 0.0115825 0.0116644 0.0108372 0.0109293 0.0110884 0.0112179 0.0113096 0.0113675 0.011398 0.0114078 0.0114038 0.0113925 0.0113806 0.0113737 0.00557119 0.00494702 0.00505698 0.00522716 0.00545344 0.00574461 0.00611211 0.00656425 0.00709932 0.0076971 0.00830987 0.00889747 0.0100287 0.0105229 0.0109479 0.0112705 0.0114886 0.0116355 0.0117581 0.0118986 0.0120822 0.0123133 0.0125795 0.0128588 0.0131268 0.0133596 0.0135261 0.0135191 0.0127214 0.0127434 0.012855 0.012951 0.0130178 0.0130563 0.0130711 0.0130682 0.013054 0.013035 0.0130179 0.0130085 0.00567871 0.00486408 0.00504665 0.00524301 0.00550909 0.00585143 0.00628194 0.00680892 0.00742998 0.00812384 0.00884219 0.00954162 0.0108013 0.0114086 0.0119506 0.0123891 0.0127194 0.0129717 0.0131899 0.0134139 0.0136674 0.0139551 0.0142651 0.0145765 0.0148657 0.0151089 0.0152738 0.0152531 0.0145222 0.0145135 0.0145992 0.0146733 0.0147208 0.0147425 0.014743 0.0147281 0.0147042 0.0146778 0.0146557 0.0146438 0.00879462 0.00797347 0.00816788 0.00840351 0.008