# vtk DataFile Version 2.0
Velocidades
ASCII

DATASET STRUCTURED_GRID
DIMENSIONS   40   40   20

POINTS   32000   double
0.003725   0.00025625   0.015
0.003725   0.00076875   0.015
0.003725   0.00128125   0.015
0.003725   0.00179375   0.015
0.003725   0.00230625   0.015
0.003725   0.00281875   0.015
0.003725   0.00333125   0.015
0.003725   0.00384375   0.015
0.003725   0.00435625   0.015
0.003725   0.00486875   0.015
0.003725   0.00538125   0.015
0.003725   0.00589375   0.015
0.003725   0.00640625   0.015
0.003725   0.00691875   0.015
0.003725   0.00743125   0.015
0.003725   0.00794375   0.015
0.003725   0.00845625   0.015
0.003725   0.00896875   0.015
0.003725   0.00948125   0.015
0.003725   0.00999375   0.015
0.003725   0.0105063   0.015
0.003725   0.0110188   0.015
0.003725   0.0115312   0.015
0.003725   0.0120438   0.015
0.003725   0.0125563   0.015
0.003725   0.0130688   0.015
0.003725   0.0135813   0.015
0.003725   0.0140938   0.015
0.003725   0.0146063   0.015
0.003725   0.0151188   0.015
0.003725   0.0156313   0.015
0.003725   0.0161438   0.015
0.003725   0.0166563   0.015
0.003725   0.0171688   0.015
0.003725   0.0176813   0.015
0.003725   0.0181938   0.015
0.003725   0.0187063   0.015
0.003725   0.0192187   0.015
0.003725   0.0197313   0.015
0.003725   0.0202438   0.015
0.011175   0.00025625   0.015
0.011175   0.00076875   0.015
0.011175   0.00128125   0.015
0.011175   0.00179375   0.015
0.011175   0.00230625   0.015
0.011175   0.00281875   0.015
0.011175   0.00333125   0.015
0.011175   0.00384375   0.015
0.011175   0.00435625   0.015
0.011175   0.00486875   0.015
0.011175   0.00538125   0.015
0.011175   0.00589375   0.015
0.011175   0.00640625   0.015
0.011175   0.00691875   0.015
0.011175   0.00743125   0.015
0.011175   0.00794375   0.015
0.011175   0.00845625   0.015
0.011175   0.00896875   0.015
0.011175   0.00948125   0.015
0.011175   0.00999375   0.015
0.011175   0.0105063   0.015
0.011175   0.0110188   0.015
0.011175   0.0115312   0.015
0.011175   0.0120438   0.015
0.011175   0.0125563   0.015
0.011175   0.0130688   0.015
0.011175   0.0135813   0.015
0.011175   0.0140938   0.015
0.011175   0.0146063   0.015
0.011175   0.0151188   0.015
0.011175   0.0156313   0.015
0.011175   0.0161438   0.015
0.011175   0.0166563   0.015
0.011175   0.0171688   0.015
0.011175   0.0176813   0.015
0.011175   0.0181938   0.015
0.011175   0.0187063   0.015
0.011175   0.0192187   0.015
0.011175   0.0197313   0.015
0.011175   0.0202438   0.015
0.018625   0.00025625   0.015
0.018625   0.00076875   0.015
0.018625   0.00128125   0.015
0.018625   0.00179375   0.015
0.018625   0.00230625   0.015
0.018625   0.00281875   0.015
0.018625   0.00333125   0.015
0.018625   0.00384375   0.015
0.018625   0.00435625   0.015
0.018625   0.00486875   0.015
0.018625   0.00538125   0.015
0.018625   0.00589375   0.015
0.018625   0.00640625   0.015
0.018625   0.00691875   0.015
0.018625   0.00743125   0.015
0.018625   0.00794375   0.015
0.018625   0.00845625   0.015
0.018625   0.00896875   0.015
0.018625   0.00948125   0.015
0.018625   0.00999375   0.015
0.018625   0.0105063   0.015
0.018625   0.0110188   0.015
0.018625   0.0115312   0.015
0.018625   0.0120438   0.015
0.018625   0.0125563   0.015
0.018625   0.0130688   0.015
0.018625   0.0135813   0.015
0.018625   0.0140938   0.015
0.018625   0.0146063   0.015
0.018625   0.0151188   0.015
0.018625   0.0156313   0.015
0.018625   0.0161438   0.015
0.018625   0.0166563   0.015
0.018625   0.0171688   0.015
0.018625   0.0176813   0.015
0.018625   0.0181938   0.015
0.018625   0.0187063   0.015
0.018625   0.0192187   0.015
0.018625   0.0197313   0.015
0.018625   0.0202438   0.015
0.026075   0.00025625   0.015
0.026075   0.00076875   0.015
0.026075   0.00128125   0.015
0.026075   0.00179375   0.015
0.026075   0.00230625   0.015
0.026075   0.00281875   0.015
0.026075   0.00333125   0.015
0.026075   0.00384375   0.015
0.026075   0.00435625   0.015
0.026075   0.00486875   0.015
0.026075   0.00538125   0.015
0.026075   0.00589375   0.015
0.026075   0.00640625   0.015
0.026075   0.00691875   0.015
0.026075   0.00743125   0.015
0.026075   0.00794375   0.015
0.026075   0.00845625   0.015
0.026075   0.00896875   0.015
0.026075   0.00948125   0.015
0.026075   0.00999375   0.015
0.026075   0.0105063   0.015
0.026075   0.0110188   0.015
0.026075   0.0115312   0.015
0.026075   0.0120438   0.015
0.026075   0.0125563   0.015
0.026075   0.0130688   0.015
0.026075   0.0135813   0.015
0.026075   0.0140938   0.015
0.026075   0.0146063   0.015
0.026075   0.0151188   0.015
0.026075   0.0156313   0.015
0.026075   0.0161438   0.015
0.026075   0.0166563   0.015
0.026075   0.0171688   0.015
0.026075   0.0176813   0.015
0.026075   0.0181938   0.015
0.026075   0.0187063   0.015
0.026075   0.0192187   0.015
0.026075   0.0197313   0.015
0.026075   0.0202438   0.015
0.033525   0.00025625   0.015
0.033525   0.00076875   0.015
0.033525   0.00128125   0.015
0.033525   0.00179375   0.015
0.033525   0.00230625   0.015
0.033525   0.00281875   0.015
0.033525   0.00333125   0.015
0.033525   0.00384375   0.015
0.033525   0.00435625   0.015
0.033525   0.00486875   0.015
0.033525   0.00538125   0.015
0.033525   0.00589375   0.015
0.033525   0.00640625   0.015
0.033525   0.00691875   0.015
0.033525   0.00743125   0.015
0.033525   0.00794375   0.015
0.033525   0.00845625   0.015
0.033525   0.00896875   0.015
0.033525   0.00948125   0.015
0.033525   0.00999375   0.015
0.033525   0.0105063   0.015
0.033525   0.0110188   0.015
0.033525   0.0115312   0.015
0.033525   0.0120438   0.015
0.033525   0.0125563   0.015
0.033525   0.0130688   0.015
0.033525   0.0135813   0.015
0.033525   0.0140938   0.015
0.033525   0.0146063   0.015
0.033525   0.0151188   0.015
0.033525   0.0156313   0.015
0.033525   0.0161438   0.015
0.033525   0.0166563   0.015
0.033525   0.0171688   0.015
0.033525   0.0176813   0.015
0.033525   0.0181938   0.015
0.033525   0.0187063   0.015
0.033525   0.0192187   0.015
0.033525   0.0197313   0.015
0.033525   0.0202438   0.015
0.040975   0.00025625   0.015
0.040975   0.00076875   0.015
0.040975   0.00128125   0.015
0.040975   0.00179375   0.015
0.040975   0.00230625   0.015
0.040975   0.00281875   0.015
0.040975   0.00333125   0.015
0.040975   0.00384375   0.015
0.040975   0.00435625   0.015
0.040975   0.00486875   0.015
0.040975   0.00538125   0.015
0.040975   0.00589375   0.015
0.040975   0.00640625   0.015
0.040975   0.00691875   0.015
0.040975   0.00743125   0.015
0.040975   0.00794375   0.015
0.040975   0.00845625   0.015
0.040975   0.00896875   0.015
0.040975   0.00948125   0.015
0.040975   0.00999375   0.015
0.040975   0.0105063   0.015
0.040975   0.0110188   0.015
0.040975   0.0115312   0.015
0.040975   0.0120438   0.015
0.040975   0.0125563   0.015
0.040975   0.0130688   0.015
0.040975   0.0135813   0.015
0.040975   0.0140938   0.015
0.040975   0.0146063   0.015
0.040975   0.0151188   0.015
0.040975   0.0156313   0.015
0.040975   0.0161438   0.015
0.040975   0.0166563   0.015
0.040975   0.0171688   0.015
0.040975   0.0176813   0.015
0.040975   0.0181938   0.015
0.040975   0.0187063   0.015
0.040975   0.0192187   0.015
0.040975   0.0197313   0.015
0.040975   0.0202438   0.015
0.048425   0.00025625   0.015
0.048425   0.00076875   0.015
0.048425   0.00128125   0.015
0.048425   0.00179375   0.015
0.048425   0.00230625   0.015
0.048425   0.00281875   0.015
0.048425   0.00333125   0.015
0.048425   0.00384375   0.015
0.048425   0.00435625   0.015
0.048425   0.00486875   0.015
0.048425   0.00538125   0.015
0.048425   0.00589375   0.015
0.048425   0.00640625   0.015
0.048425   0.00691875   0.015
0.048425   0.00743125   0.015
0.048425   0.00794375   0.015
0.048425   0.00845625   0.015
0.048425   0.00896875   0.015
0.048425   0.00948125   0.015
0.048425   0.00999375   0.015
0.048425   0.0105063   0.015
0.048425   0.0110188   0.015
0.048425   0.0115312   0.015
0.048425   0.0120438   0.015
0.048425   0.0125563   0.015
0.048425   0.0130688   0.015
0.048425   0.0135813   0.015
0.048425   0.0140938   0.015
0.048425   0.0146063   0.015
0.048425   0.0151188   0.015
0.048425   0.0156313   0.015
0.048425   0.0161438   0.015
0.048425   0.0166563   0.015
0.048425   0.0171688   0.015
0.048425   0.0176813   0.015
0.048425   0.0181938   0.015
0.048425   0.0187063   0.015
0.048425   0.0192187   0.015
0.048425   0.0197313   0.015
0.048425   0.0202438   0.015
0.055875   0.00025625   0.015
0.055875   0.00076875   0.015
0.055875   0.00128125   0.015
0.055875   0.00179375   0.015
0.055875   0.00230625   0.015
0.055875   0.00281875   0.015
0.055875   0.00333125   0.015
0.055875   0.00384375   0.015
0.055875   0.00435625   0.015
0.055875   0.00486875   0.015
0.055875   0.00538125   0.015
0.055875   0.00589375   0.015
0.055875   0.00640625   0.015
0.055875   0.00691875   0.015
0.055875   0.00743125   0.015
0.055875   0.00794375   0.015
0.055875   0.00845625   0.015
0.055875   0.00896875   0.015
0.055875   0.00948125   0.015
0.055875   0.00999375   0.015
0.055875   0.0105063   0.015
0.055875   0.0110188   0.015
0.055875   0.0115312   0.015
0.055875   0.0120438   0.015
0.055875   0.0125563   0.015
0.055875   0.0130688   0.015
0.055875   0.0135813   0.015
0.055875   0.0140938   0.015
0.055875   0.0146063   0.015
0.055875   0.0151188   0.015
0.055875   0.0156313   0.015
0.055875   0.0161438   0.015
0.055875   0.0166563   0.015
0.055875   0.0171688   0.015
0.055875   0.0176813   0.015
0.055875   0.0181938   0.015
0.055875   0.0187063   0.015
0.055875   0.0192187   0.015
0.055875   0.0197313   0.015
0.055875   0.0202438   0.015
0.063325   0.00025625   0.015
0.063325   0.00076875   0.015
0.063325   0.00128125   0.015
0.063325   0.00179375   0.015
0.063325   0.00230625   0.015
0.063325   0.00281875   0.015
0.063325   0.00333125   0.015
0.063325   0.00384375   0.015
0.063325   0.00435625   0.015
0.063325   0.00486875   0.015
0.063325   0.00538125   0.015
0.063325   0.00589375   0.015
0.063325   0.00640625   0.015
0.063325   0.00691875   0.015
[...]
POINT_DATA   32000
VECTORS Velocidades double

-0.000924252 -0.0311108 0.412573
-0.00108503 -0.0554609 0.224299
-0.000673641 -0.0539011 0.922837
-0.00100221 -0.0451095 -0.199359
-0.000454243 -0.0394106 1.10299
-0.000872695 -0.0385448 0.0830342
-0.000700428 -0.0302304 0.667955
-0.0008868 -0.0335554 0.764407
-0.000568356 -0.0278682 0.13985
-0.000775221 -0.027574 1.07959
-0.000451722 -0.0249462 0.00267291
-0.000661431 -0.0222178 1.07307
-0.000420555 -0.0216613 0.129398
-0.00050848 -0.0165265 0.804019
-0.000473696 -0.0163141 0.417109
-0.000473992 -0.0132688 0.637106
-0.000391484 -0.0121375 0.527482
-0.000343308 -0.0096788 0.557029
-0.000371095 -0.00954535 0.660989
-0.000210063 -0.00849458 0.499425
-0.000185747 -0.00681671 0.619092
-0.000133176 -0.00741291 0.626456
1.23791e-05 -0.00614056 0.501503
2.62413e-05 -0.00568975 0.664495
0.000149328 -0.00573548 0.518196
0.000256208 -0.00412686 0.552018
0.000303794 -0.00432171 0.604995
0.000438316 -0.00371123 0.481935
0.000529244 -0.00291241 0.566084
0.000643453 -0.00285804 0.492144
0.000762556 -0.00216856 0.488961
0.000882045 -0.00165374 0.454937
0.00100359 -0.000992362 0.424359
0.00112159 -0.000321977 0.388569
0.00122648 0.000325169 0.348747
0.00129951 0.000879451 0.3045
0.00130887 0.0012556 0.255669
0.00120634 0.00135116 0.201909
0.000928797 0.00107046 0.141612
0.000408888 0.000412908 0.0691517
-0.000488487 -0.027095 0.80212
-0.000534501 -0.0459103 0.122539
-0.000509474 -0.0470397 1.16119
-0.000172069 -0.0394525 -0.38849
-0.000562961 -0.0390721 1.58503
-0.000317308 -0.0387908 -0.381059
-0.000582581 -0.0285367 0.999344
-0.00053955 -0.0320123 0.423393
-0.000141314 -0.0244696 0.353629
-0.000413674 -0.0257963 0.942909
8.83265e-05 -0.0212993 0.0126429
-0.000327947 -0.0204789 1.15852
0.000105169 -0.0190603 -0.0224703
-0.000186372 -0.014905 0.998552
-2.0049e-05 -0.0160215 0.285556
-9.09956e-05 -0.0115723 0.6717
3.85666e-05 -0.01048 0.481162
6.57715e-05 -0.00840733 0.612881
6.17278e-05 -0.00825255 0.590989
0.000239968 -0.00638459 0.509607
0.000258259 -0.00528274 0.632106
0.000337559 -0.00562384 0.588543
0.000507795 -0.00395903 0.507888
0.000516102 -0.00405343 0.682705
0.000697687 -0.00357434 0.462871
0.000802855 -0.00194683 0.601512
0.000887348 -0.00277139 0.588795
0.00108133 -0.00174034 0.471095
0.00120142 -0.00117399 0.589653
0.00139117 -0.00142857 0.48711
0.00158003 -0.000868425 0.503431
0.00178637 -0.000671697 0.462386
0.00200099 -0.0002073 0.433125
0.00221458 0.000277522 0.396718
0.00240683 0.000776984 0.356589
0.00253997 0.00121364 0.312001
0.00255038 0.00149717 0.262782
0.00234227 0.00151686 0.208467
0.00179262 0.00116768 0.147174
0.000779031 0.00044475 0.0726749
0.000734803 -0.0281609 0.580684
0.000907195 -0.0476921 0.106301
0.000414588 -0.0474504 1.10133
0.00133437 -0.0388279 -0.383752
-4.96576e-06 -0.036135 1.44791
0.000994482 -0.0356168 -0.257297
0.000328533 -0.0256258 0.893884
0.000677347 -0.0296775 0.564297
0.000846279 -0.0230039 0.26644
0.000672793 -0.0244535 1.03988
0.00105464 -0.0210625 -0.0169532
0.000634229 -0.019787 1.16347
0.00102768 -0.0191561 0.0204974
0.000655579 -0.0144337 0.92336
0.000886406 -0.0153684 0.350988
0.000776205 -0.0113544 0.632755
0.000858536 -0.0100801 0.509952
0.000835638 -0.00804768 0.586517
0.000867208 -0.00786945 0.615976
0.000920769 -0.00628204 0.50067
0.00090486 -0.00491705 0.624528
0.000956259 -0.00544008 0.605485
0.00101591 -0.00394731 0.499143
0.00100361 -0.00388656 0.679941
0.00112069 -0.0036496 0.477108
0.0011259 -0.00203494 0.58467
0.00119495 -0.00273463 0.594565
0.00131471 -0.00185347 0.47012
0.00137031 -0.00124775 0.583939
0.00151671 -0.00148857 0.487425
0.00165048 -0.000945477 0.499404
0.00181682 -0.000720838 0.460027
0.00199464 -0.000251546 0.430542
0.00217663 0.000240979 0.394389
0.00234168 0.000745292 0.354473
0.0024523 0.00118588 0.310131
0.00244594 0.00147321 0.261182
0.00222929 0.00149757 0.207161
0.00168627 0.00115485 0.146193
0.000715514 0.000440233 0.072118
0.000614963 -0.0277596 0.628167
0.000752878 -0.0467489 0.0929564
0.000438935 -0.0471623 1.14434
0.00101436 -0.0390319 -0.407034
6.61023e-05 -0.0350114 1.38524
0.000786363 -0.0348342 -0.181663
0.000302668 -0.0250464 0.822561
0.000504063 -0.0291986 0.634585
0.000762841 -0.0228646 0.208528
0.000464355 -0.0240314 1.07361
0.000951496 -0.0211134 -0.0306794
0.000453004 -0.0195171 1.15077
0.000904811 -0.0191414 0.04058
0.000544793 -0.0142202 0.884153
0.000751937 -0.0149607 0.371419
0.000674282 -0.0112528 0.62279
0.000755636 -0.00991359 0.508707
0.000755476 -0.00786512 0.57939
0.000769275 -0.00777431 0.620813
0.000857968 -0.00634274 0.497528
0.000840207 -0.00490082 0.615758
0.000892093 -0.00550768 0.61175
0.000976698 -0.00407907 0.489236
0.000958781 -0.00392257 0.676905
0.001087 -0.00384274 0.482053
0.00110688 -0.00220482 0.57114
0.00116997 -0.00283832 0.597116
0.00130066 -0.00207621 0.467532
0.00135432 -0.00144089 0.577918
0.00150084 -0.00166935 0.486014
0.00163188 -0.00112672 0.494325
0.00179314 -0.000862718 0.456526
0.00196397 -0.000373977 0.426923
0.00213709 0.00014045 0.391107
0.00229157 0.000663334 0.35149
0.00239057 0.00112068 0.307489
0.00237304 0.0014235 0.258919
0.00214913 0.00146279 0.205322
0.00161036 0.00113488 0.144846
0.000671532 0.000433945 0.0714119
0.000735768 -0.0274991 0.533903
0.000860023 -0.0465202 0.104833
0.000414005 -0.0475713 1.15905
0.00105364 -0.0394841 -0.429963
-7.63364e-05 -0.0343394 1.33145
0.000697178 -0.0343304 -0.129216
0.000197637 -0.0247163 0.769136
0.000325191 -0.0288603 0.67623
0.0006966 -0.0226887 0.16528
0.00026587 -0.0236211 1.09208
0.000863839 -0.0209758 -0.0441663
0.000247083 -0.0191478 1.13982
0.000766735 -0.0189587 0.0516086
0.000365953 -0.0139119 0.855041
0.000582779 -0.0144895 0.38028
0.000500969 -0.011027 0.617644
0.000596749 -0.00972112 0.505224
0.000601903 -0.00761879 0.569193
0.000606033 -0.00759554 0.62449
0.00071969 -0.00632986 0.493168
0.000704106 -0.00483218 0.606532
0.000756484 -0.00551818 0.61536
0.000866033 -0.00415717 0.479433
0.000837992 -0.00392555 0.672261
0.00098401 -0.00399482 0.485496
0.00101521 -0.00234526 0.557229
0.00107425 -0.00291772 0.597829
0.0012236 -0.0022675 0.463941
0.00127937 -0.0016107 0.571052
0.00143575 -0.00182551 0.483148
0.00157421 -0.00128125 0.48848
0.00174198 -0.000982409 0.452088
0.0019181 -0.000475832 0.422513
0.00209474 5.78243e-05 0.387104
0.00225039 0.000596613 0.347884
0.00234762 0.00106775 0.304327
0.00232541 0.0013828 0.25625
0.00209595 0.00143364 0.203197
0.0015573 0.00111754 0.143338
0.000638822 0.000428306 0.0706714
0.000922136 -0.0276098 0.294564
0.000911512 -0.0472414 0.128436
0.000416711 -0.0487015 1.14801
0.0010631 -0.0404225 -0.441622
-0.000113302 -0.0341345 1.26456
0.000667241 -0.0342063 -0.0693124
0.000211805 -0.0248293 0.711313
0.000269606 -0.0288787 0.716608
0.000705308 -0.0228428 0.120929
0.000192182 -0.0234741 1.10683
0.000840361 -0.0210471 -0.0581419
0.000152658 -0.0189604 1.12659
0.000698264 -0.018897 0.060091
0.000276622 -0.0137398 0.827978
0.000496775 -0.0141075 0.382877
0.000406464 -0.0108586 0.615369
0.000509044 -0.00964167 0.500527
0.000520324 -0.00743836 0.555807
0.000509813 -0.00745795 0.628221
0.000639094 -0.00637117 0.487784
0.000625761 -0.00481601 0.596472
0.000673817 -0.00557386 0.617597
0.000801681 -0.0042785 0.469091
0.000765078 -0.00396784 0.666119
0.000921465 -0.00418204 0.48838
0.000964619 -0.00252277 0.542185
0.00101876 -0.00302424 0.597294
0.00118358 -0.00248194 0.459589
0.001244 -0.00180181 0.563096
0.00141002 -0.00199377 0.479135
0.00155789 -0.00144236 0.481824
0.00173458 -0.00110665 0.446783
0.00191917 -0.000579518 0.417344
0.00210291 -2.50749e-05 0.382412
0.00226305 0.000530677 0.343675
0.0023604 0.00101606 0.30066
0.00233216 0.00134325 0.253179
0.00209002 0.00140523 0.200781
0.00153612 0.00110046 0.141654
0.000614999 0.0004227 0.0698762
0.00106283 -0.0282235 0.00195489
0.000832331 -0.0486174 0.13049
0.000299068 -0.0500222 1.12945
0.000987771 -0.0415051 -0.450348
-0.000197445 -0.034033 1.19047
0.000583298 -0.0341821 -0.00423179
0.000207416 -0.0250696 0.648151
0.000199475 -0.0290038 0.759405
0.000699493 -0.0231457 0.0749169
0.00013273 -0.0234411 1.11951
0.000813814 -0.021221 -0.0724042
9.82961e-05 -0.0188492 1.11043
0.000651178 -0.0188917 0.0686691
0.000236019 -0.0136472 0.800492
0.000460931 -0.0137633 0.381797
0.000369181 -0.0107206 0.614667
0.000477615 -0.00965654 0.496327
0.000500978 -0.00731964 0.538349
0.000479307 -0.00734926 0.632432
0.00062032 -0.00647752 0.48236
0.000613805 -0.00486242 0.584632
0.00065819 -0.00568143 0.61931
0.00080035 -0.00445931 0.458046
0.000762106 -0.00405546 0.658184
0.000923385 -0.00441535 0.491443
0.000981458 -0.00275096 0.525588
0.00103343 -0.00316519 0.595737
0.00121033 -0.00273223 0.454745
0.00127957 -0.00202558 0.553884
0.00145393 -0.00218345 0.474204
0.00161192 -0.00162034 0.474356
0.00179765 -0.00124407 0.44068
0.00199098 -0.000692918 0.411458
0.00218186 -0.000115058 0.377068
0.00234585 0.000459802 0.338892
0.00244111 0.000961038 0.296503
0.00240131 0.00130154 0.24971
0.00213518 0.00137545 0.198067
0.00154665 0.00108262 0.139778
0.000597304 0.000416841 0.069004
0.00114244 -0.0293222 -0.257018
0.000688732 -0.0502674 0.090904
9.72128e-05 -0.0510563 1.11795
0.00087669 -0.0424056 -0.461745
-0.000290038 -0.0338123 1.12101
0.000474744 -0.0341477 0.0608931
0.000204666 -0.025243 0.579942
0.000136578 -0.0290818 0.806712
0.000697939 -0.0234895 0.0278395
0.000106768 -0.0234423 1.13115
0.000803454 -0.0214284 -0.0873775
0.000102952 -0.018746 1.09176
0.000645872 -0.018885 0.0774767
0.000263929 -0.0135879 0.773083
0.000492066 -0.0134322 0.377724
0.000408858 -0.0105807 0.614359
0.00052138 -0.00973696 0.493957
0.000561513 -0.00724987 0.516374
0.000535283 -0.00724637 0.636924
0.000683916 -0.00663804 0.477779
0.000689122 -0.00496288 0.570245
0.000732297 -0.00582605 0.620887
0.000883941 -0.00469339 0.446407
0.000853057 -0.00417608 0.647991
0.00101452 -0.00468189 0.495123
0.00108957 -0.00302311 0.507372
0.00114419 -0.00333083 0.593066
0.00132901 -0.00301023 0.449613
0.00141122 -0.00227525 0.543313
0.00159189 -0.00238755 0.468463
0.00175964 -0.00181005 0.466101
0.00195313 -0.00139038 0.433821
0.0021537 -0.000812793 0.404886
0.00234971 -0.000209756 0.371097
0.00251468 0.000385561 0.333551
0.00260329 0.000903586 0.291864
0.00254418 0.001258 0.245844
0.00224069 0.00134426 0.195045
0.0015959 0.00106377 0.137691
0.000589323 0.000410607 0.0680346
0.00112693 -0.0306942 -0.44232
0.000521325 -0.0516109 0.000565244
-0.000187707 -0.0513352 1.12942
0.000747203 -0.0427041 -0.488598
-0.000380474 -0.0331796 1.07664
0.000349766 -0.0340073 0.117376
0.000215633 -0.0251313 0.508387
0.00011203 -0.028967 0.861183
0.000717821 -0.0237693 -0.0204571
0.000161961 -0.0234147 1.14441
0.000838266 -0.0216268 -0.104512
0.00022074 -0.0186125 1.07228
0.000727034 -0.0188485 0.0853451
0.000413077 -0.0135406 0.747294
0.000636292 -0.013135 0.371543
0.00057511 -0.0104358 0.612125
0.00068893 -0.00986306 0.494713
0.00074511 -0.00723762 0.49022
0.000725626 -0.00714739 0.640715
0.000874722 -0.00685095 0.474995
0.000894133 -0.00511911 0.552539
0.000940806 -0.0059998 0.622511
0.00109293 -0.0049814 0.434477
0.00107976 -0.00432411 0.634863
0.001237 -0.00496951 0.499705
0.00132769 -0.00333519 0.487721
0.00139173 -0.00351477 0.588953
0.00157863 -0.00330674 0.444354
0.00167709 -0.00254355 0.531335
0.00186124 -0.00259877 0.461957
0.00203733 -0.00200559 0.457088
0.00223638 -0.00154075 0.426232
0.00244166 -0.000935323 0.397647
0.00263969 -0.00030631 0.364513
0.00280163 0.000309922 0.32766
0.00287783 0.000844866 0.286743
0.00279023 0.0012131 0.24157
0.00243369 0.00131161 0.191696
0.00170627 0.00104364 0.135368
0.000602814 0.000403825 0.0669435
0.000829437 -0.0318616 -0.562686
0.000212866 -0.0514957 -0.151434
-0.000840049 -0.0501211 1.20069
0.000438558 -0.0417309 -0.562036
-0.000679506 -0.0314924 1.09156
4.66701e-05 -0.0335044 0.155042
0.000115625 -0.0243374 0.436604
8.73641e-05 -0.0284444 0.9312
0.000704015 -0.0238338 -0.0740473
0.000351309 -0.0232802 1.16799
0.000925822 -0.0218138 -0.127921
0.000537731 -0.0184495 1.05639
0.000961106 -0.0188281 0.0904756
0.000767078 -0.0135335 0.723817
0.000968305 -0.0129585 0.365918
0.000942444 -0.0103455 0.603639
0.00105597 -0.0100443 0.499939
0.00111488 -0.00733999 0.461291
0.00111622 -0.00709493 0.641551
0.00125534 -0.00714729 0.475591
0.00128269 -0.00536811 0.530302
0.00133993 -0.00622162 0.624383
0.00147743 -0.00535348 0.422758
0.0014898 -0.00452009 0.617798
0.0016394 -0.00528546 0.505487
0.00173892 -0.00370424 0.466985
0.00181863 -0.00372985 0.582894
0.00200062 -0.00362778 0.439166
0.00211598 -0.00283804 0.517936
0.00230026 -0.00282339 0.454726
0.00248236 -0.00221287 0.447354
0.00268444 -0.00170061 0.417938
0.0028918 -0.00106527 0.389763
0.00308895 -0.000408761 0.35733
0.00324433 0.000229654 0.321224
0.00330333 0.000782515 0.281137
0.00317946 0.00116536 0.236875
0.00275524 0.00127671 0.187998
0.00191618 0.00102187 0.132777
0.000660969 0.000396392 0.0656973
0.000200638 -0.0310664 -0.402656
0.00216625 -0.043372 -0.553346
-0.00149506 -0.042563 1.60513
-0.000106836 -0.0370356 -0.819555
-0.00191794 -0.0255429 1.25923
-0.000924914 -0.0310667 0.178263
-0.000454461 -0.0211326 0.352258
-0.000200028 -0.0263272 1.06192
0.00059887 -0.0229954 -0.148433
0.00061622 -0.0226146 1.23303
0.0011178 -0.0219976 -0.163199
0.00104083 -0.0182501 1.04901
0.00141584 -0.0190308 0.100995
0.00133531 -0.0137429 0.693207
0.00152844 -0.0130913 0.371618
0.00153631 -0.0105507 0.581698
0.00164009 -0.010391 0.509773
0.00169919 -0.00775196 0.434917
0.00170679 -0.00726684 0.633607
0.00183644 -0.00766074 0.483376
0.00185859 -0.00586147 0.501261
0.00192633 -0.0065968 0.626562
0.00204286 -0.00591922 0.411911
0.00207693 -0.00486273 0.595927
0.00221547 -0.00570325 0.512321
0.00231818 -0.00420836 0.446014
0.00240906 -0.00405163 0.574321
0.00258256 -0.00403435 0.434215
0.00271008 -0.00321739 0.503253
0.00289177 -0.00311471 0.446755
0.00307719 -0.00247857 0.436956
0.00328042 -0.00191076 0.408964
0.00348825 -0.0012371 0.381257
0.0036833 -0.000545163 0.349563
0.0038316 0.000123202 0.31425
0.00387419 0.000701451 0.275041
0.00371658 0.00110578 0.231743
0.00322694 0.00123569 0.183922
0.00226709 0.000997771 0.129883
0.000805937 0.000388457 0.0642596
0.00288355 -0.0243632 5.10075
0.00513852 -0.00846163 -1.81708
0.00466064 -0.0175894 3.4089
0.00465012 -0.030563 -1.60914
0.00296715 -0.0122072 1.57681
0.00317911 -0.024997 0.214908
0.00269214 -0.0119913 0.0759443
0.00200742 -0.0187049 1.37874
0.00263954 -0.0194837 -0.265475
0.00164883 -0.0196641 1.34997
0.00235938 -0.0212784 -0.177555
0.00163977 -0.0170592 1.01069
0.0021897 -0.0186993 0.167684
0.00203685 -0.0138891 0.632494
0.00219162 -0.0130063 0.397639
0.00221808 -0.0110332 0.568006
0.00231878 -0.0109362 0.506239
0.00237702 -0.00856929 0.433493
0.00238626 -0.00798828 0.60854
0.00251511 -0.00859461 0.499981
0.00255594 -0.00679736 0.463822
0.00258737 -0.00730898 0.630101
0.00271964 -0.00680477 0.397879
0.00272736 -0.00549812 0.574866
0.00285227 -0.006389 0.516253
0.00295322 -0.0049778 0.427174
0.00302976 -0.00465117 0.56381
0.00319494 -0.00468034 0.428494
0.00332055 -0.00382086 0.488035
0.00349626 -0.00360735 0.437641
0.00368006 -0.0029198 0.425907
0.00388121 -0.00227572 0.399214
0.00408686 -0.00154099 0.372057
0.00427841 -0.000791515 0.341143
0.00442096 -7.11457e-05 0.306676
0.00445451 0.000554167 0.268405
0.00428232 0.00100076 0.226138
0.00376343 0.00116802 0.179447
0.00272849 0.000961978 0.126673
0.00106232 0.000377797 0.0626195
0.00375388 -0.0342591 -0.492506
0.0034139 -0.0668768 0.445977
0.0061385 -0.0612973 0.320895
0.0056019 -0.0519632 0.2326
0.00522712 -0.0444808 0.424309
0.00492734 -0.0427484 0.565075
0.00409919 -0.0349807 0.0653468
0.00321028 -0.0323811 0.860228
0.00339572 -0.0284002 -0.0189241
0.00225679 -0.0244834 0.860016
0.00274593 -0.0220039 0.0625419
0.00194916 -0.0180987 0.77525
0.0023936 -0.0161117 0.172822
0.00221597 -0.0133534 0.730481
0.00235185 -0.0137822 0.35837
0.0023817 -0.0100488 0.485918
0.00245574 -0.0110615 0.635179
0.00255653 -0.0096035 0.339631
0.00256411 -0.00810379 0.630413
0.00269542 -0.00946432 0.504184
0.00276429 -0.00790677 0.45574
0.00279282 -0.00819219 0.606914
0.00293632 -0.0080786 0.425887
0.00295647 -0.0067072 0.525024
0.00307414 -0.00738566 0.535479
0.00319468 -0.00629391 0.408604
0.00327583 -0.00571575 0.549688
0.00344707 -0.00575349 0.425344
0.0035861 -0.00483746 0.470432
0.0037697 -0.00444929 0.428001
0.00396384 -0.0036742 0.413984
0.00417376 -0.00291485 0.388678
0.00438699 -0.00208355 0.362127
0.00458425 -0.00124356 0.332049
0.00473041 -0.000440293 0.298496
0.00476572 0.000261558 0.261238
0.00459373 0.000779883 0.220086
0.0040703 0.00101615 0.174616
0.00300846 0.000877373 0.123206
0.00123535 0.00035207 0.0608215
0.00117117 -0.0361345 -0.460067
0.000431814 -0.0670875 0.218604
0.000956856 -0.0593451 0.371498
0.00123394 -0.0514568 0.209249
0.00139008 -0.0434178 0.362233
0.00165791 -0.0429336 0.651165
0.00176692 -0.0355984 -0.0391903
0.00184655 -0.0332451 0.942458
0.00196845 -0.0295786 -0.116346
0.00196831 -0.0257925 0.934992
0.00207027 -0.0235486 -0.0266033
0.00207085 -0.0188945 0.79326
0.00221573 -0.0173872 0.157122
0.00218422 -0.0141826 0.693403
0.00233824 -0.0147066 0.374626
0.00233643 -0.0107997 0.433402
0.00242472 -0.0115801 0.647801
0.00252952 -0.0105626 0.326585
0.00253038 -0.00881126 0.602869
0.00265662 -0.0103116 0.514089
0.00270893 -0.00878288 0.421918
0.00277784 -0.00884768 0.602555
0.00289713 -0.00897554 0.419375
0.00295623 -0.00740327 0.49516
0.00307736 -0.00800469 0.536646
0.00321008 -0.00708326 0.393619
0.00331705 -0.00634584 0.532111
0.00349226 -0.00634999 0.418274
0.00365195 -0.00540759 0.453935
0.00384662 -0.0049118 0.416926
0.00405424 -0.00408799 0.40179
0.00427591 -0.00326307 0.377602
0.00449975 -0.00237784 0.351752
0.0047057 -0.00148837 0.322548
0.00485757 -0.000640984 0.289957
0.0048938 0.000100478 0.253763
0.00471491 0.000655173 0.213782
0.00417231 0.000926578 0.169591
0.00307576 0.000823861 0.119604
0.00125829 0.000334566 0.0589488
0.000969089 -0.0348278 -0.205972
0.000393581 -0.0598509 -0.068057
0.000804927 -0.052793 0.667621
0.00118442 -0.050148 0.191125
0.00129896 -0.0404185 0.25311
0.00158116 -0.0413721 0.8169
0.00174634 -0.0354916 -0.146839
0.00181702 -0.0328087 1.00419
0.00199434 -0.0298348 -0.163826
0.00207701 -0.0256916 0.935556
0.00223342 -0.0237115 -0.0373963
0.00234372 -0.0190576 0.77873
0.00245457 -0.0180979 0.178553
0.00248576 -0.0146308 0.631617
0.00264737 -0.0154813 0.430682
0.00260163 -0.0116871 0.358944
0.00274345 -0.0119675 0.668123
0.00280395 -0.0118215 0.332436
0.00280271 -0.00977641 0.554906
0.00292156 -0.0112072 0.533154
0.00295012 -0.00989982 0.390972
0.00302022 -0.00956092 0.585113
0.00312885 -0.00993459 0.426582
0.00317669 -0.00824044 0.456328
0.00330141 -0.00860288 0.537237
0.00342103 -0.00789972 0.381835
0.00353418 -0.00699652 0.510571
0.00370046 -0.00691534 0.411649
0.00386277 -0.00595386 0.436807
0.00405637 -0.00534235 0.4053
0.0042654 -0.00446714 0.389211
0.00448862 -0.00357715 0.366117
0.00471407 -0.00263928 0.341016
0.00492079 -0.00170297 0.312719
0.00507123 -0.000814887 0.281126
0.00510144 -3.78123e-05 0.246035
0.00490769 0.000548758 0.207262
0.00433476 0.000850133 0.164392
0.00318518 0.00077758 0.115874
0.00129349 0.000319122 0.0570008
0.00126642 -0.0336749 0.305373
0.00115797 -0.0553079 -0.211811
0.0012364 -0.0479406 0.767084
0.00164557 -0.049456 0.308511
0.00160811 -0.0391888 0.0776702
0.0018715 -0.040197 0.968797
0.00198909 -0.0360132 -0.226092
0.00207808 -0.0326852 1.01887
0.00222531 -0.0299315 -0.192525
0.00240007 -0.0253955 0.914393
0.0025288 -0.0235935 -0.0327272
0.00269697 -0.0191819 0.761534
0.00278377 -0.0188926 0.208286
0.00279701 -0.0149842 0.549481
0.00300468 -0.0160938 0.501465
0.00291922 -0.012797 0.290774
0.00306398 -0.0124346 0.672283
0.00312617 -0.0131476 0.352238
0.0031068 -0.0109254 0.498484
0.00322507 -0.012104 0.548649
0.00324594 -0.0111249 0.368625
0.00330787 -0.0103478 0.555873
0.00341778 -0.0108939 0.440144
0.00345814 -0.00919698 0.417031
0.00358139 -0.00924533 0.532832
0.00369649 -0.00874935 0.373367