# vtk DataFile Version 2.0
Velocidades
ASCII

DATASET STRUCTURED_GRID
DIMENSIONS   40   40   20

POINTS   32000   double
0.003725   0.00025625   0.015
0.003725   0.00076875   0.015
0.003725   0.00128125   0.015
0.003725   0.00179375   0.015
0.003725   0.00230625   0.015
0.003725   0.00281875   0.015
0.003725   0.00333125   0.015
0.003725   0.00384375   0.015
0.003725   0.00435625   0.015
0.003725   0.00486875   0.015
0.003725   0.00538125   0.015
0.003725   0.00589375   0.015
0.003725   0.00640625   0.015
0.003725   0.00691875   0.015
0.003725   0.00743125   0.015
0.003725   0.00794375   0.015
0.003725   0.00845625   0.015
0.003725   0.00896875   0.015
0.003725   0.00948125   0.015
0.003725   0.00999375   0.015
0.003725   0.0105063   0.015
0.003725   0.0110188   0.015
0.003725   0.0115312   0.015
0.003725   0.0120438   0.015
0.003725   0.0125563   0.015
0.003725   0.0130688   0.015
0.003725   0.0135813   0.015
0.003725   0.0140938   0.015
0.003725   0.0146063   0.015
0.003725   0.0151188   0.015
0.003725   0.0156313   0.015
0.003725   0.0161438   0.015
0.003725   0.0166563   0.015
0.003725   0.0171688   0.015
0.003725   0.0176813   0.015
0.003725   0.0181938   0.015
0.003725   0.0187063   0.015
0.003725   0.0192187   0.015
0.003725   0.0197313   0.015
0.003725   0.0202438   0.015
0.011175   0.00025625   0.015
0.011175   0.00076875   0.015
0.011175   0.00128125   0.015
0.011175   0.00179375   0.015
0.011175   0.00230625   0.015
0.011175   0.00281875   0.015
0.011175   0.00333125   0.015
0.011175   0.00384375   0.015
0.011175   0.00435625   0.015
0.011175   0.00486875   0.015
0.011175   0.00538125   0.015
0.011175   0.00589375   0.015
0.011175   0.00640625   0.015
0.011175   0.00691875   0.015
0.011175   0.00743125   0.015
0.011175   0.00794375   0.015
0.011175   0.00845625   0.015
0.011175   0.00896875   0.015
0.011175   0.00948125   0.015
0.011175   0.00999375   0.015
0.011175   0.0105063   0.015
0.011175   0.0110188   0.015
0.011175   0.0115312   0.015
0.011175   0.0120438   0.015
0.011175   0.0125563   0.015
0.011175   0.0130688   0.015
0.011175   0.0135813   0.015
0.011175   0.0140938   0.015
0.011175   0.0146063   0.015
0.011175   0.0151188   0.015
0.011175   0.0156313   0.015
0.011175   0.0161438   0.015
0.011175   0.0166563   0.015
0.011175   0.0171688   0.015
0.011175   0.0176813   0.015
0.011175   0.0181938   0.015
0.011175   0.0187063   0.015
0.011175   0.0192187   0.015
0.011175   0.0197313   0.015
0.011175   0.0202438   0.015
0.018625   0.00025625   0.015
0.018625   0.00076875   0.015
0.018625   0.00128125   0.015
0.018625   0.00179375   0.015
0.018625   0.00230625   0.015
0.018625   0.00281875   0.015
0.018625   0.00333125   0.015
0.018625   0.00384375   0.015
0.018625   0.00435625   0.015
0.018625   0.00486875   0.015
0.018625   0.00538125   0.015
0.018625   0.00589375   0.015
0.018625   0.00640625   0.015
0.018625   0.00691875   0.015
0.018625   0.00743125   0.015
0.018625   0.00794375   0.015
0.018625   0.00845625   0.015
0.018625   0.00896875   0.015
0.018625   0.00948125   0.015
0.018625   0.00999375   0.015
0.018625   0.0105063   0.015
0.018625   0.0110188   0.015
0.018625   0.0115312   0.015
0.018625   0.0120438   0.015
0.018625   0.0125563   0.015
0.018625   0.0130688   0.015
0.018625   0.0135813   0.015
0.018625   0.0140938   0.015
0.018625   0.0146063   0.015
0.018625   0.0151188   0.015
0.018625   0.0156313   0.015
0.018625   0.0161438   0.015
0.018625   0.0166563   0.015
0.018625   0.0171688   0.015
0.018625   0.0176813   0.015
0.018625   0.0181938   0.015
0.018625   0.0187063   0.015
0.018625   0.0192187   0.015
0.018625   0.0197313   0.015
0.018625   0.0202438   0.015
0.026075   0.00025625   0.015
0.026075   0.00076875   0.015
0.026075   0.00128125   0.015
0.026075   0.00179375   0.015
0.026075   0.00230625   0.015
0.026075   0.00281875   0.015
0.026075   0.00333125   0.015
0.026075   0.00384375   0.015
0.026075   0.00435625   0.015
0.026075   0.00486875   0.015
0.026075   0.00538125   0.015
0.026075   0.00589375   0.015
0.026075   0.00640625   0.015
0.026075   0.00691875   0.015
0.026075   0.00743125   0.015
0.026075   0.00794375   0.015
0.026075   0.00845625   0.015
0.026075   0.00896875   0.015
0.026075   0.00948125   0.015
0.026075   0.00999375   0.015
0.026075   0.0105063   0.015
0.026075   0.0110188   0.015
0.026075   0.0115312   0.015
0.026075   0.0120438   0.015
0.026075   0.0125563   0.015
0.026075   0.0130688   0.015
0.026075   0.0135813   0.015
0.026075   0.0140938   0.015
0.026075   0.0146063   0.015
0.026075   0.0151188   0.015
0.026075   0.0156313   0.015
0.026075   0.0161438   0.015
0.026075   0.0166563   0.015
0.026075   0.0171688   0.015
0.026075   0.0176813   0.015
0.026075   0.0181938   0.015
0.026075   0.0187063   0.015
0.026075   0.0192187   0.015
0.026075   0.0197313   0.015
0.026075   0.0202438   0.015
0.033525   0.00025625   0.015
0.033525   0.00076875   0.015
0.033525   0.00128125   0.015
0.033525   0.00179375   0.015
0.033525   0.00230625   0.015
0.033525   0.00281875   0.015
0.033525   0.00333125   0.015
0.033525   0.00384375   0.015
0.033525   0.00435625   0.015
0.033525   0.00486875   0.015
0.033525   0.00538125   0.015
0.033525   0.00589375   0.015
0.033525   0.00640625   0.015
0.033525   0.00691875   0.015
0.033525   0.00743125   0.015
0.033525   0.00794375   0.015
0.033525   0.00845625   0.015
0.033525   0.00896875   0.015
0.033525   0.00948125   0.015
0.033525   0.00999375   0.015
0.033525   0.0105063   0.015
0.033525   0.0110188   0.015
0.033525   0.0115312   0.015
0.033525   0.0120438   0.015
0.033525   0.0125563   0.015
0.033525   0.0130688   0.015
0.033525   0.0135813   0.015
0.033525   0.0140938   0.015
0.033525   0.0146063   0.015
0.033525   0.0151188   0.015
0.033525   0.0156313   0.015
0.033525   0.0161438   0.015
0.033525   0.0166563   0.015
0.033525   0.0171688   0.015
0.033525   0.0176813   0.015
0.033525   0.0181938   0.015
0.033525   0.0187063   0.015
0.033525   0.0192187   0.015
0.033525   0.0197313   0.015
0.033525   0.0202438   0.015
0.040975   0.00025625   0.015
0.040975   0.00076875   0.015
0.040975   0.00128125   0.015
0.040975   0.00179375   0.015
0.040975   0.00230625   0.015
0.040975   0.00281875   0.015
0.040975   0.00333125   0.015
0.040975   0.00384375   0.015
0.040975   0.00435625   0.015
0.040975   0.00486875   0.015
0.040975   0.00538125   0.015
0.040975   0.00589375   0.015
0.040975   0.00640625   0.015
0.040975   0.00691875   0.015
0.040975   0.00743125   0.015
0.040975   0.00794375   0.015
0.040975   0.00845625   0.015
0.040975   0.00896875   0.015
0.040975   0.00948125   0.015
0.040975   0.00999375   0.015
0.040975   0.0105063   0.015
0.040975   0.0110188   0.015
0.040975   0.0115312   0.015
0.040975   0.0120438   0.015
0.040975   0.0125563   0.015
0.040975   0.0130688   0.015
0.040975   0.0135813   0.015
0.040975   0.0140938   0.015
0.040975   0.0146063   0.015
0.040975   0.0151188   0.015
0.040975   0.0156313   0.015
0.040975   0.0161438   0.015
0.040975   0.0166563   0.015
0.040975   0.0171688   0.015
0.040975   0.0176813   0.015
0.040975   0.0181938   0.015
0.040975   0.0187063   0.015
0.040975   0.0192187   0.015
0.040975   0.0197313   0.015
0.040975   0.0202438   0.015
0.048425   0.00025625   0.015
0.048425   0.00076875   0.015
0.048425   0.00128125   0.015
0.048425   0.00179375   0.015
0.048425   0.00230625   0.015
0.048425   0.00281875   0.015
0.048425   0.00333125   0.015
0.048425   0.00384375   0.015
0.048425   0.00435625   0.015
0.048425   0.00486875   0.015
0.048425   0.00538125   0.015
0.048425   0.00589375   0.015
0.048425   0.00640625   0.015
0.048425   0.00691875   0.015
0.048425   0.00743125   0.015
0.048425   0.00794375   0.015
0.048425   0.00845625   0.015
0.048425   0.00896875   0.015
0.048425   0.00948125   0.015
0.048425   0.00999375   0.015
0.048425   0.0105063   0.015
0.048425   0.0110188   0.015
0.048425   0.0115312   0.015
0.048425   0.0120438   0.015
0.048425   0.0125563   0.015
0.048425   0.0130688   0.015
0.048425   0.0135813   0.015
0.048425   0.0140938   0.015
0.048425   0.0146063   0.015
0.048425   0.0151188   0.015
0.048425   0.0156313   0.015
0.048425   0.0161438   0.015
0.048425   0.0166563   0.015
0.048425   0.0171688   0.015
0.048425   0.0176813   0.015
0.048425   0.0181938   0.015
0.048425   0.0187063   0.015
0.048425   0.0192187   0.015
0.048425   0.0197313   0.015
0.048425   0.0202438   0.015
0.055875   0.00025625   0.015
0.055875   0.00076875   0.015
0.055875   0.00128125   0.015
0.055875   0.00179375   0.015
0.055875   0.00230625   0.015
0.055875   0.00281875   0.015
0.055875   0.00333125   0.015
0.055875   0.00384375   0.015
0.055875   0.00435625   0.015
0.055875   0.00486875   0.015
0.055875   0.00538125   0.015
0.055875   0.00589375   0.015
0.055875   0.00640625   0.015
0.055875   0.00691875   0.015
0.055875   0.00743125   0.015
0.055875   0.00794375   0.015
0.055875   0.00845625   0.015
0.055875   0.00896875   0.015
0.055875   0.00948125   0.015
0.055875   0.00999375   0.015
0.055875   0.0105063   0.015
0.055875   0.0110188   0.015
0.055875   0.0115312   0.015
0.055875   0.0120438   0.015
0.055875   0.0125563   0.015
0.055875   0.0130688   0.015
0.055875   0.0135813   0.015
0.055875   0.0140938   0.015
0.055875   0.0146063   0.015
0.055875   0.0151188   0.015
0.055875   0.0156313   0.015
0.055875   0.0161438   0.015
0.055875   0.0166563   0.015
0.055875   0.0171688   0.015
0.055875   0.0176813   0.015
0.055875   0.0181938   0.015
0.055875   0.0187063   0.015
0.055875   0.0192187   0.015
0.055875   0.0197313   0.015
0.055875   0.0202438   0.015
0.063325   0.00025625   0.015
0.063325   0.00076875   0.015
0.063325   0.00128125   0.015
0.063325   0.00179375   0.015
0.063325   0.00230625   0.015
0.063325   0.00281875   0.015
0.063325   0.00333125   0.015
0.063325   0.00384375   0.015
0.063325   0.00435625   0.015
0.063325   0.00486875   0.015
0.063325   0.00538125   0.015
0.063325   0.00589375   0.015
0.063325   0.00640625   0.015
0.063325   0.00691875   0.015
[...]
POINT_DATA   32000
VECTORS Velocidades double

0.00894138 -0.038277 -1.16638
0.0026257 -0.0987393 1.90376
0.00302301 -0.0930252 -1.02964
0.00288357 -0.0794823 1.44444
0.00236729 -0.0769763 -0.38094
0.00241908 -0.0648335 0.882192
0.00203172 -0.0643282 0.30163
0.00197631 -0.054092 0.314338
0.00156964 -0.0529574 0.836234
0.00168939 -0.0481782 0.102092
0.00129202 -0.0471467 1.05662
0.00145871 -0.046849 0.145803
0.00123875 -0.0422751 0.80623
0.00117745 -0.0441452 0.52372
0.00124423 -0.0388833 0.388073
0.0010196 -0.0388636 0.830271
0.00115812 -0.0365591 0.253345
0.00102482 -0.033174 0.765145
0.00102816 -0.0329604 0.436996
0.00106885 -0.0284868 0.512229
0.000957768 -0.0283341 0.685773
0.0011023 -0.0247367 0.30468
0.00100409 -0.0231055 0.793267
0.00108622 -0.0223029 0.343841
0.00110737 -0.0193956 0.657832
0.00113416 -0.0188624 0.467908
0.00117983 -0.0165592 0.535785
0.00121532 -0.0150567 0.492243
0.00125976 -0.0131306 0.483695
0.00130671 -0.0112598 0.462563
0.00135919 -0.00933222 0.440971
0.00141691 -0.00741072 0.416004
0.00147874 -0.00552955 0.387799
0.00154063 -0.00374024 0.356008
0.00159322 -0.0021067 0.320383
0.00161777 -0.000709366 0.280735
0.00158049 0.000351395 0.236963
0.0014268 0.000954835 0.188884
0.00108106 0.000981215 0.13514
0.000463761 0.000418243 0.0692429
0.00620162 -0.0418728 -0.992513
0.00135914 -0.107515 2.02082
0.00250888 -0.102051 -1.08314
0.00167197 -0.089042 1.5799
0.00198478 -0.084177 -0.60956
0.00162445 -0.0725371 1.17975
0.00170914 -0.071596 0.0151166
0.0016437 -0.0612935 0.628103
0.00143362 -0.0593415 0.501286
0.00169378 -0.0524797 0.338124
0.00138635 -0.052032 0.874592
0.00170069 -0.0487198 0.168387
0.00150811 -0.0458422 0.89883
0.00158152 -0.0465559 0.376388
0.00168314 -0.0405063 0.501625
0.0015326 -0.0415912 0.792005
0.00174443 -0.0373553 0.187889
0.00161852 -0.0348302 0.890003
0.00171336 -0.0341509 0.2925
0.00175474 -0.0292785 0.641003
0.00170955 -0.029588 0.590855
0.00187974 -0.0246575 0.328275
0.00180872 -0.0238498 0.824779
0.00194398 -0.0222961 0.274834
0.00197658 -0.019281 0.727611
0.00205356 -0.0192148 0.432733
0.00213003 -0.0166119 0.560996
0.00221023 -0.0153869 0.491278
0.00230056 -0.0134295 0.491183
0.00239946 -0.0116208 0.467512
0.00250922 -0.00970751 0.446141
0.00262934 -0.00778946 0.420868
0.00275691 -0.00589246 0.392456
0.00288344 -0.00406901 0.36047
0.00299024 -0.00238352 0.324675
0.00304104 -0.00091904 0.284878
0.00297184 0.000217981 0.240959
0.00268101 0.000895234 0.192679
0.00202941 0.000974895 0.138521
0.000870522 0.000424503 0.0715631
-0.00226751 -0.0393581 -1.05246
-0.00115227 -0.101327 1.92867
-0.000232854 -0.0957475 -1.04272
-0.000978249 -0.0825871 1.48465
-6.45115e-05 -0.0789925 -0.482394
-0.000470835 -0.0674478 1.02059
6.60418e-05 -0.0669237 0.162662
7.09019e-05 -0.0569251 0.467504
0.000332442 -0.0549744 0.634152
0.000474381 -0.0490765 0.237482
0.00061933 -0.0487163 0.958902
0.000767607 -0.0468171 0.147959
0.000821717 -0.0433933 0.869964
0.000998273 -0.0448816 0.435441
0.00102809 -0.0391227 0.445635
0.00116186 -0.03996 0.82084
0.00123488 -0.0366148 0.199837
0.00128038 -0.0337429 0.846883
0.00139947 -0.0333883 0.344821
0.00141337 -0.028682 0.589019
0.00152603 -0.0288665 0.626733
0.00155174 -0.024418 0.312273
0.00162523 -0.0233798 0.819035
0.00169629 -0.0221403 0.291223
0.0017336 -0.0191831 0.706844
0.00181648 -0.019036 0.441142
0.00187661 -0.0165546 0.552285
0.00195866 -0.0152836 0.489993
0.00204504 -0.0133626 0.487538
0.00214312 -0.0115588 0.464619
0.00225171 -0.0096585 0.44325
0.00237021 -0.0077509 0.418149
0.00249489 -0.00586391 0.389907
0.00261691 -0.00404969 0.358117
0.00271809 -0.00237266 0.322542
0.00276464 -0.00091574 0.282989
0.00269892 0.000214937 0.239337
0.00243157 0.000887846 0.191346
0.00184113 0.00096669 0.137504
0.000794439 0.000420759 0.0709551
0.000816884 -0.0394778 -1.10093
0.000151354 -0.101088 1.90235
0.000544814 -0.0952625 -1.02997
0.000431379 -0.0818908 1.46043
0.000630998 -0.078478 -0.447059
0.000647676 -0.0668154 0.977362
0.000791165 -0.0662621 0.203151
0.000831182 -0.0563376 0.428692
0.000978891 -0.0544532 0.673648
0.000974091 -0.0489114 0.214492
0.00110268 -0.0484466 0.9707
0.00109401 -0.0469573 0.154304
0.00115933 -0.043134 0.833792
0.0012408 -0.0447561 0.472591
0.00122566 -0.0390584 0.404712
0.00135407 -0.0396234 0.83824
0.00134124 -0.0366342 0.195354
0.00142552 -0.0334879 0.827246
0.00147373 -0.0332832 0.365053
0.00149808 -0.0285336 0.55792
0.00159502 -0.0286935 0.648063
0.00158439 -0.0244736 0.295877
0.00168422 -0.0232375 0.815441
0.00171053 -0.022229 0.299944
0.00176601 -0.0192572 0.688893
0.00182643 -0.0190318 0.446226
0.00188514 -0.0166212 0.543119
0.00195785 -0.0152881 0.487434
0.00203777 -0.0133797 0.48288
0.00212884 -0.0115629 0.460748
0.00223038 -0.00966035 0.439447
0.00234134 -0.00775099 0.414581
0.00245775 -0.00586467 0.386575
0.00257061 -0.00405287 0.355048
0.00266202 -0.00237956 0.319761
0.00269947 -0.000926953 0.280525
0.00262846 0.000199911 0.23722
0.00236535 0.000871143 0.18961
0.00179517 0.000952594 0.136196
0.000782979 0.000415046 0.0701975
0.000815814 -0.0390652 -1.16107
0.000118481 -0.10006 1.88489
0.00058275 -0.0941781 -1.02685
0.000455455 -0.0807023 1.44031
0.000679991 -0.0776688 -0.415599
0.000704207 -0.0658741 0.927469
0.000864342 -0.0653636 0.244908
0.000912702 -0.055539 0.38223
0.00108868 -0.053836 0.720246
0.00106373 -0.0487557 0.184486
0.00121699 -0.0481451 0.98181
0.00119543 -0.0471271 0.160449
0.00127137 -0.0429476 0.796486
0.00135492 -0.0447033 0.507442
0.00132811 -0.0391284 0.36675
0.00147127 -0.0394133 0.849537
0.00144305 -0.0367846 0.194886
0.00153577 -0.0333954 0.803221
0.00157836 -0.0333129 0.385983
0.00159647 -0.0285422 0.525509
0.0017019 -0.0286568 0.66761
0.00167579 -0.0246844 0.280627
0.00178482 -0.0232455 0.808687
0.00180072 -0.0224334 0.308127
0.00186046 -0.0194519 0.670151
0.00191605 -0.0191317 0.449539
0.0019759 -0.016778 0.533386
0.00204777 -0.0153779 0.483658
0.00212823 -0.0134705 0.477334
0.00222001 -0.0116331 0.455946
0.00232258 -0.00971982 0.434785
0.00243461 -0.00780096 0.410209
0.00255173 -0.0059079 0.382503
0.00266435 -0.00409144 0.351309
0.00275378 -0.00241512 0.316389
0.00278663 -0.000960359 0.277556
0.00270769 0.000168867 0.234691
0.0024332 0.000844193 0.18756
0.00184795 0.000933318 0.134678
0.000811248 0.000407895 0.069339
0.00101554 -0.0386182 -1.23271
0.000177819 -0.0990466 1.87202
0.000682101 -0.0931649 -1.02579
0.000549905 -0.0795968 1.42199
0.000777704 -0.0770074 -0.383144
0.000801555 -0.0649975 0.870519
0.000975832 -0.0645062 0.291071
0.00101842 -0.0547942 0.330715
0.00121679 -0.0533375 0.774248
0.00117071 -0.0488096 0.150861
0.00133246 -0.0479484 0.988809
0.00131182 -0.0474208 0.170189
0.00138103 -0.0428871 0.754041
0.00147732 -0.0447408 0.543649
0.00143812 -0.0393369 0.328568
0.00159147 -0.0392989 0.856846
0.00156191 -0.0370439 0.19748
0.00165238 -0.0334161 0.774698
0.00170179 -0.0334393 0.408743
0.00171105 -0.0286648 0.490603
0.00182743 -0.0287079 0.686443
0.00179517 -0.0250179 0.266482
0.00190607 -0.0233627 0.79839
0.00192409 -0.0227202 0.316657
0.00198419 -0.0197388 0.650037
0.00204222 -0.0193056 0.451587
0.00210526 -0.0170016 0.522959
0.00218083 -0.0155298 0.478807
0.00226594 -0.0136154 0.470942
0.00236302 -0.0117517 0.450275
0.0024715 -0.00982164 0.429314
0.00258976 -0.00788768 0.405077
0.00271291 -0.00598247 0.377729
0.00283044 -0.00415623 0.346933
0.00292217 -0.00247194 0.312453
0.00295247 -0.00101031 0.274102
0.00286326 0.000125778 0.231764
0.00256771 0.000809403 0.185205
0.00194771 0.000909945 0.132951
0.000857214 0.000399559 0.0683779
0.00114597 -0.0380879 -1.3133
0.00020066 -0.0978663 1.8582
0.000764505 -0.0920944 -1.01916
0.000608913 -0.0784582 1.39777
0.000857972 -0.076382 -0.342471
0.000874446 -0.0640923 0.799866
0.00107493 -0.0635932 0.347655
0.00110693 -0.0540909 0.272791
0.00132722 -0.0529083 0.834624
0.00126747 -0.0490594 0.116626
0.00143065 -0.0478309 0.987941
0.00142235 -0.047803 0.186697
0.00147824 -0.0429341 0.704298
0.00159336 -0.0448327 0.582411
0.00154385 -0.0396642 0.289976
0.00170505 -0.0392466 0.859612
0.00168212 -0.0373836 0.204058
0.00176607 -0.0335203 0.74075
0.0018286 -0.0336303 0.43422
0.00182865 -0.0288786 0.452925
0.00195711 -0.0288151 0.704398
0.00192418 -0.0254488 0.254044
0.00203441 -0.0235648 0.784081
0.00205984 -0.0230616 0.32587
0.00212036 -0.0200939 0.62849
0.00218378 -0.0195304 0.452531
0.00225172 -0.0172713 0.511865
0.00233322 -0.0157245 0.472974
0.00242509 -0.013797 0.463765
0.00252966 -0.0119031 0.443802
0.00264627 -0.00995201 0.423095
0.00277298 -0.00799913 0.39924
0.00290429 -0.00607819 0.372303
0.00302856 -0.0042388 0.341965
0.00312375 -0.0025434 0.307989
0.00315135 -0.0010719 0.270193
0.00304936 7.39218e-05 0.22846
0.00272672 0.000768615 0.182557
0.00206226 0.000883225 0.13102
0.000907198 0.000390194 0.067315
0.00125195 -0.037479 -1.40044
0.000211662 -0.0964965 1.8417
0.000836979 -0.0909962 -1.00197
0.000647129 -0.0772939 1.36153
0.000923149 -0.0757613 -0.28959
0.0009309 -0.0631363 0.712167
0.00116381 -0.0626066 0.418364
0.00117949 -0.0534896 0.209442
0.00141621 -0.0525458 0.896772
0.00135189 -0.0494887 0.0856499
0.00151129 -0.047784 0.975847
0.00152277 -0.0482412 0.211993
0.00156226 -0.0430814 0.64677
0.00169944 -0.0449529 0.623161
0.00164192 -0.0400943 0.252165
0.00180994 -0.0392382 0.856568
0.00179798 -0.0377772 0.215454
0.00187462 -0.0336884 0.700985
0.00195364 -0.033861 0.46251
0.00194485 -0.0291694 0.413051
0.00208671 -0.0289569 0.720496
0.0020559 -0.0259524 0.244139
0.00216645 -0.0238348 0.765412
0.00220045 -0.0234329 0.335672
0.00226358 -0.0204949 0.605779
0.00233311 -0.0197867 0.452299
0.00240734 -0.0175679 0.500209
0.00249572 -0.0159451 0.466199
0.00259526 -0.0139999 0.455852
0.00270807 -0.0120736 0.436572
0.00283342 -0.0100988 0.41617
0.00296896 -0.00812473 0.392739
0.00310854 -0.00618606 0.366262
0.00323929 -0.00433173 0.336435
0.00333712 -0.00262361 0.303025
0.00336031 -0.00114074 0.26585
0.00324258 1.6266e-05 0.224795
0.00288843 0.000723535 0.179626
0.00217462 0.000853879 0.12889
0.00095352 0.000379958 0.0661507
0.00134779 -0.0368208 -1.49036
0.000213944 -0.0949616 1.82054
0.00089928 -0.0899433 -0.969322
0.000670271 -0.0761325 1.3058
0.000974551 -0.0751068 -0.220904
0.000976631 -0.0621221 0.605696
0.00124809 -0.0615486 0.505511
0.00124272 -0.0530814 0.143567
0.00149039 -0.0522557 0.952814
0.00143119 -0.0500522 0.0628168
0.00158724 -0.0477983 0.949747
0.00162162 -0.0486973 0.247169
0.00164492 -0.0433204 0.582092
0.00180805 -0.0450765 0.664283
0.00174202 -0.0406061 0.216973
0.00192111 -0.0392611 0.846342
0.0019195 -0.0381971 0.232135
0.00199185 -0.0339035 0.655562
0.00208952 -0.0341081 0.493064
0.00207119 -0.0295253 0.372169
0.00223091 -0.0291171 0.733278
0.00220047 -0.0265008 0.23751
0.00231731 -0.0241574 0.742342
0.00235694 -0.0238109 0.345632
0.00242649 -0.0209195 0.582351
0.00250129 -0.0200573 0.450713
0.00258272 -0.0178738 0.4881
0.00267794 -0.0161764 0.458499
0.0027851 -0.0142101 0.447238
0.00290582 -0.0122508 0.428617
0.00303926 -0.010251 0.408568
0.00318268 -0.00825502 0.385599
0.00332916 -0.00629803 0.359627
0.00346455 -0.00442838 0.330363
0.00356261 -0.00270728 0.297575
0.00357833 -0.00121285 0.261085
0.00344098 -4.44566e-05 0.220777
0.00305063 0.00067576 0.176415
0.0022829 0.00082259 0.126559
0.00099501 0.000369002 0.0648818
0.00144384 -0.0361897 -1.57768
0.000193937 -0.0933399 1.79045
0.000956383 -0.0890308 -0.915882
0.000702203 -0.0750002 1.2212
0.0010354 -0.0743534 -0.132479
0.00104024 -0.0610579 0.4807
0.00136645 -0.0604079 0.607579
0.00133738 -0.0529378 0.0813705
0.00160179 -0.0520289 0.991616
0.00155065 -0.0506576 0.0541785
0.00171607 -0.0478527 0.907555
0.00176905 -0.0491197 0.292294
0.00177559 -0.0436309 0.511847
0.00197686 -0.045176 0.70358
0.00188716 -0.0411686 0.186202
0.002096 -0.0393037 0.828123
0.00209213 -0.0386148 0.253754
0.0021672 -0.0341497 0.605397
0.00228536 -0.034352 0.524602
0.00224973 -0.0299348 0.331915
0.00243997 -0.0292868 0.741139
0.00239735 -0.0270658 0.234518
0.00253314 -0.024519 0.715274
0.00256903 -0.0241791 0.355067
0.00264896 -0.0213495 0.558715
0.00272554 -0.0203308 0.447586
0.00281331 -0.0181764 0.47562
0.00291343 -0.0164086 0.449879
0.00302628 -0.0144191 0.437938
0.0031527 -0.0124273 0.419949
0.00329177 -0.0104025 0.400299
0.00344024 -0.0083849 0.37783
0.00359038 -0.00640995 0.352407
0.00372671 -0.00452543 0.323754
0.00382079 -0.00279187 0.291642
0.00382431 -0.00128641 0.255896
0.00366201 -0.000107063 0.2164
0.00322923 0.000625913 0.172915
0.00239999 0.000789551 0.124017
0.00103746 0.000357336 0.0634973
0.00210525 -0.0356864 -1.65374
0.000470728 -0.0915523 1.73365
0.00126927 -0.0881709 -0.826722
0.00117895 -0.0737878 1.089
0.00147056 -0.0732756 -0.0152221
0.00144523 -0.0599576 0.339747
0.00187152 -0.0590484 0.711005
0.00175471 -0.053043 0.0414504
0.00203739 -0.0518375 0.992222
0.00194227 -0.0511577 0.0723356
0.0021175 -0.0479553 0.84465
0.00216539 -0.0494665 0.348143
0.00210506 -0.0440151 0.437115
0.00238833 -0.0452672 0.740149
0.00219154 -0.0417824 0.159368
0.00248422 -0.0393976 0.8038
0.0024256 -0.0390531 0.277552
0.00250876 -0.0344516 0.553119
0.00264644 -0.034625 0.55474
0.0025599 -0.0304234 0.294109
0.00280667 -0.0295054 0.742972
0.00271515 -0.0276622 0.234763
0.00288503 -0.0249443 0.685173
0.00289712 -0.024565 0.363193
0.00298529 -0.0218059 0.535304
0.00305465 -0.0206326 0.442816
0.00314237 -0.0184988 0.462798
0.00324093 -0.0166638 0.440363
0.00335338 -0.0146477 0.427965
0.00347961 -0.0126225 0.410587
0.00361851 -0.0105712 0.391379
0.00376623 -0.0085305 0.369443
0.00391416 -0.0065361 0.34461
0.00404538 -0.00463522 0.316613
0.00412933 -0.00288767 0.285226
0.00411452 -0.00136957 0.250279
0.00392126 -0.000177529 0.211653
0.00343961 0.000570131 0.16911
0.00253977 0.000752793 0.121241
0.00108783 0.000344409 0.0619757
-0.000795585 -0.0365474 -1.59499
0.000929363 -0.090106 1.5382
0.000569758 -0.0874478 -0.60433
0.0016562 -0.0733088 0.866711
0.0019009 -0.0722592 0.157779
0.00166098 -0.0602664 0.226816
0.00266908 -0.0583686 0.747349
0.00193604 -0.0544925 0.111094
0.00268158 -0.052834 0.877466
0.00220064 -0.0521554 0.167926
0.00252426 -0.0489251 0.728775
0.00257319 -0.050266 0.434697
0.00238597 -0.0450081 0.342485
0.00280768 -0.0458289 0.790089
0.00252521 -0.0428548 0.119447
0.00284892 -0.0398855 0.789644
0.00283288 -0.0398814 0.291607
0.0028343 -0.0350658 0.506341
0.00308178 -0.0352264 0.580616
0.00288404 -0.0312199 0.259324
0.00322011 -0.0300001 0.739906
0.003069 -0.0284965 0.237494
0.00325846 -0.0256104 0.652537
0.00325183 -0.0251368 0.370416
0.0033356 -0.0224366 0.511799
0.00339761 -0.0210918 0.436814
0.00348039 -0.0189575 0.449587
0.0035748 -0.0170431 0.430112
0.00368401 -0.0149853 0.41741
0.00380756 -0.0129144 0.400639
0.00394391 -0.0108247 0.381908
0.00408859 -0.00875006 0.360535
0.00423202 -0.00672606 0.336322
0.00435592 -0.0047992 0.309013
0.00442776 -0.0030284 0.278387
0.00439326 -0.00148864 0.244274
0.00416892 -0.000274975 0.206559
0.00363996 0.000496207 0.165004
0.00267201 0.000706339 0.118222
0.0011328 0.000328663 0.0603001
-0.000944228 -0.0337187 -1.30024
0.00104204 -0.0838996 1.49574
0.000482622 -0.0823064 -0.528616
0.00147985 -0.0684539 0.778725
0.00182282 -0.0703 0.394384
0.00150109 -0.0587965 -0.00347461
0.00260209 -0.0598286 1.12947
0.00181672 -0.0575285 -0.198806
0.00264698 -0.0540229 1.05841
0.00217325 -0.055101 0.0695603
0.00246872 -0.0493759 0.659403
0.00259061 -0.0511442 0.508518
0.00236971 -0.046391 0.277034
0.00279235 -0.0456617 0.743863
0.00257434 -0.0439143 0.216948
0.00281542 -0.0402046 0.628148
0.00288637 -0.040137 0.429215
0.00282713 -0.0358408 0.378941
0.00312267 -0.0353672 0.650905
0.00292398 -0.0323119 0.224835
0.00324311 -0.0304464 0.716702
0.00313269 -0.0294386 0.270091
0.0032947 -0.0264908 0.596594
0.00331563 -0.0257343 0.390229
0.0033996 -0.0232045 0.48244
0.00347569 -0.021611 0.432241
0.00356862 -0.0194875 0.435632
0.00367467 -0.017478 0.419629
0.00379545 -0.0153717 0.406559
0.00393074 -0.0132483 0.390413
0.00407873 -0.0111148 0.37217
0.00423452 -0.00900165 0.351368
0.00438782 -0.00694438 0.327783
0.00451908 -0.00498849 0.301168
0.00459372 -0.00319179 0.271306
0.00455428 -0.00162775 0.238032
0.00431263 -0.000389467 0.201237
0.00374907 0.000409203 0.160687
0.00272898 0.000652026 0.115025
0.00113665 0.00031045 0.0585098
0.00178672 -0.0345089 -1.49651
0.000451146 -0.0848688 1.4501
0.0010299 -0.0839982 -0.45736
0.000943457 -0.0674178 0.529682
0.00153684 -0.0690478 0.607907
0.00125147 -0.0588932 -0.160552
0.00186394 -0.0587148 1.19239
0.00164853 -0.0583301 -0.172696
0.00201133 -0.0544093 0.985423
0.00198642 -0.0559131 0.144759
0.00205525 -0.0501843 0.561752
0.00228063 -0.051844 0.577142
0.00213091 -0.0474271 0.20549
0.00243874 -0.046129 0.759335
0.0023621 -0.0448777 0.207513
0.00250607 -0.0407292 0.588807
0.00262173 -0.0407986 0.453272
0.00258984 -0.0364928 0.330936
0.00282807 -0.0358464 0.665361
0.00274377 -0.0331253 0.206497
0.00295799 -0.0309369 0.692756
0.00295524 -0.0300869 0.279925
0.00307507 -0.0271038 0.561518
0.00314667 -0.0261693 0.391862
0.00324307 -0.0237021 0.461704
0.00334653 -0.0219744 0.422653
0.0034626 -0.0198363 0.422259
0.00359256 -0.0177687 0.407928
0.00373704 -0.015626 0.394992
0.00389606 -0.0134673 0.379406
0.00406777 -0.0113044 0.361709
0.00424705 -0.00916662 0.341528
0.00442299 -0.00708889 0.318633
0.00457486 -0.00511603 0.292782
0.00466579 -0.00330488 0.263765
0.00463428 -0.00172755 0.231421
0.00438599 -0.000475258 0.19564
0.00379466 0.000340636 0.156191
0.00272831 0.000606784 0.111738
0.00110402 0.000294603 0.056709
0.00122951 -0.03582 -1.30688
-5.37636e-05 -0.0829746 1.17092
0.000750001 -0.0822458 -0.198848
0.000634104 -0.0649211 0.199486
0.00144375 -0.0664457 0.904481
0.00106436 -0.0598391 -0.276573
0.00154863 -0.0581136 1.19058
0.00144401 -0.0590881 -0.118404
0.00166522 -0.0546203 0.872059
0.001779 -0.0563105 0.24206
0.00176445 -0.0507011 0.444667
0.002042 -0.0519058 0.6409
0.00194737 -0.0482179 0.157923
0.00218576 -0.0461194 0.73365
0.00222906 -0.0454167 0.239065
0.00229933 -0.0410108 0.516055
0.00248198 -0.0410253 0.496761
0.00245478 -0.0369796 0.276777
0.00267591 -0.0360065 0.674582
0.00266196 -0.0337388 0.198163
0.0028159 -0.0312574 0.658395
0.00288212 -0.0304854 0.293474
0.0029785 -0.0275476 0.525444
0.00308382 -0.0264174 0.391516
0.00318988 -0.0240244 0.441717
0.00331299 -0.0221861 0.411818
0.00344638 -0.0200392 0.408639
0.00359479 -0.0179296 0.395634
0.00375808 -0.0157621 0.38295
0.00393642 -0.0135805 0.367924
0.00412779 -0.0114002 0.350803
0.00432673 -0.0092494 0.331273
0.00452166 -0.00716262 0.309104
0.00469058 -0.00518397 0.28406
0.00479435 -0.00336925 0.255938
0.00476742 -0.00178921 0.224579
0.00450879 -0.000533186 0.189873
0.00388381 0.00029011 0.151587
0.00275884 0.000570654 0.108407
0.00108088 0.000281234 0.0549188
0.00138551 -0.0373774 -1.05174
2.1338e-05 -0.0802744 0.817397
0.000986222 -0.0798134 0.143721
0.000740619 -0.0633636 -0.118696
0.00156489 -0.0642481 1.15893
0.00122261 -0.0616289 -0.323913
0.00155841 -0.0584162 1.12426
0.00153879 -0.0599752 -0.0444745
0.00166285 -0.0550472 0.744493
0.00185029 -0.056795 0.346313
0.00178578 -0.0514446 0.328823
0.00206456 -0.051919 0.687234
0.00202339 -0.0490778 0.134411
0.00219025 -0.0461394 0.681215
0.00230852 -0.0458589 0.289485
0.0023333 -0.0413497 0.432856
0.00254086 -0.0411664 0.541687
0.00252852 -0.0375133 0.228182
0.00271885 -0.0361353 0.672866
0.0027583 -0.0343138 0.199486
0.00286947 -0.0315927 0.616606
0.00297544 -0.0308028 0.307905
0.00306256 -0.0279525 0.489984
0.00318512 -0.0266155 0.388913
0.00330003 -0.0242876 0.422447
0.00343538 -0.022351 0.399957
0.00358114 -0.0201912 0.394772
0.00374263 -0.0180448 0.382855
0.00391962 -0.0158548 0.370507
0.00411217 -0.0136542 0.356047
0.00431803 -0.0114603 0.339527
0.00453129 -0.00930065 0.320674
0.0047396 -0.00720916 0.29926
0.00491962 -0.00522914 0.275057
0.00503004 -0.00341528 0.247866
0.00500157 -0.00183686 0.217532
0.00472668 -0.000581175 0.183945
0.00406042 0.00024581 0.14687
0.00286027 0.000537556 0.105014
0.00109043 0.000268661 0.05312
0.00154359 -0.0388117 -0.781684
8.79584e-05 -0.0759266 0.381299