# vtk DataFile Version 2.0
Velocidades
ASCII

DATASET STRUCTURED_GRID
DIMENSIONS   40   40   20

POINTS   32000   double
0.003725   0.00025625   0.015
0.003725   0.00076875   0.015
0.003725   0.00128125   0.015
0.003725   0.00179375   0.015
0.003725   0.00230625   0.015
0.003725   0.00281875   0.015
0.003725   0.00333125   0.015
0.003725   0.00384375   0.015
0.003725   0.00435625   0.015
0.003725   0.00486875   0.015
0.003725   0.00538125   0.015
0.003725   0.00589375   0.015
0.003725   0.00640625   0.015
0.003725   0.00691875   0.015
0.003725   0.00743125   0.015
0.003725   0.00794375   0.015
0.003725   0.00845625   0.015
0.003725   0.00896875   0.015
0.003725   0.00948125   0.015
0.003725   0.00999375   0.015
0.003725   0.0105063   0.015
0.003725   0.0110188   0.015
0.003725   0.0115312   0.015
0.003725   0.0120438   0.015
0.003725   0.0125563   0.015
0.003725   0.0130688   0.015
0.003725   0.0135813   0.015
0.003725   0.0140938   0.015
0.003725   0.0146063   0.015
0.003725   0.0151188   0.015
0.003725   0.0156313   0.015
0.003725   0.0161438   0.015
0.003725   0.0166563   0.015
0.003725   0.0171688   0.015
0.003725   0.0176813   0.015
0.003725   0.0181938   0.015
0.003725   0.0187063   0.015
0.003725   0.0192187   0.015
0.003725   0.0197313   0.015
0.003725   0.0202438   0.015
0.011175   0.00025625   0.015
0.011175   0.00076875   0.015
0.011175   0.00128125   0.015
0.011175   0.00179375   0.015
0.011175   0.00230625   0.015
0.011175   0.00281875   0.015
0.011175   0.00333125   0.015
0.011175   0.00384375   0.015
0.011175   0.00435625   0.015
0.011175   0.00486875   0.015
0.011175   0.00538125   0.015
0.011175   0.00589375   0.015
0.011175   0.00640625   0.015
0.011175   0.00691875   0.015
0.011175   0.00743125   0.015
0.011175   0.00794375   0.015
0.011175   0.00845625   0.015
0.011175   0.00896875   0.015
0.011175   0.00948125   0.015
0.011175   0.00999375   0.015
0.011175   0.0105063   0.015
0.011175   0.0110188   0.015
0.011175   0.0115312   0.015
0.011175   0.0120438   0.015
0.011175   0.0125563   0.015
0.011175   0.0130688   0.015
0.011175   0.0135813   0.015
0.011175   0.0140938   0.015
0.011175   0.0146063   0.015
0.011175   0.0151188   0.015
0.011175   0.0156313   0.015
0.011175   0.0161438   0.015
0.011175   0.0166563   0.015
0.011175   0.0171688   0.015
0.011175   0.0176813   0.015
0.011175   0.0181938   0.015
0.011175   0.0187063   0.015
0.011175   0.0192187   0.015
0.011175   0.0197313   0.015
0.011175   0.0202438   0.015
0.018625   0.00025625   0.015
0.018625   0.00076875   0.015
0.018625   0.00128125   0.015
0.018625   0.00179375   0.015
0.018625   0.00230625   0.015
0.018625   0.00281875   0.015
0.018625   0.00333125   0.015
0.018625   0.00384375   0.015
0.018625   0.00435625   0.015
0.018625   0.00486875   0.015
0.018625   0.00538125   0.015
0.018625   0.00589375   0.015
0.018625   0.00640625   0.015
0.018625   0.00691875   0.015
0.018625   0.00743125   0.015
0.018625   0.00794375   0.015
0.018625   0.00845625   0.015
0.018625   0.00896875   0.015
0.018625   0.00948125   0.015
0.018625   0.00999375   0.015
0.018625   0.0105063   0.015
0.018625   0.0110188   0.015
0.018625   0.0115312   0.015
0.018625   0.0120438   0.015
0.018625   0.0125563   0.015
0.018625   0.0130688   0.015
0.018625   0.0135813   0.015
0.018625   0.0140938   0.015
0.018625   0.0146063   0.015
0.018625   0.0151188   0.015
0.018625   0.0156313   0.015
0.018625   0.0161438   0.015
0.018625   0.0166563   0.015
0.018625   0.0171688   0.015
0.018625   0.0176813   0.015
0.018625   0.0181938   0.015
0.018625   0.0187063   0.015
0.018625   0.0192187   0.015
0.018625   0.0197313   0.015
0.018625   0.0202438   0.015
0.026075   0.00025625   0.015
0.026075   0.00076875   0.015
0.026075   0.00128125   0.015
0.026075   0.00179375   0.015
0.026075   0.00230625   0.015
0.026075   0.00281875   0.015
0.026075   0.00333125   0.015
0.026075   0.00384375   0.015
0.026075   0.00435625   0.015
0.026075   0.00486875   0.015
0.026075   0.00538125   0.015
0.026075   0.00589375   0.015
0.026075   0.00640625   0.015
0.026075   0.00691875   0.015
0.026075   0.00743125   0.015
0.026075   0.00794375   0.015
0.026075   0.00845625   0.015
0.026075   0.00896875   0.015
0.026075   0.00948125   0.015
0.026075   0.00999375   0.015
0.026075   0.0105063   0.015
0.026075   0.0110188   0.015
0.026075   0.0115312   0.015
0.026075   0.0120438   0.015
0.026075   0.0125563   0.015
0.026075   0.0130688   0.015
0.026075   0.0135813   0.015
0.026075   0.0140938   0.015
0.026075   0.0146063   0.015
0.026075   0.0151188   0.015
0.026075   0.0156313   0.015
0.026075   0.0161438   0.015
0.026075   0.0166563   0.015
0.026075   0.0171688   0.015
0.026075   0.0176813   0.015
0.026075   0.0181938   0.015
0.026075   0.0187063   0.015
0.026075   0.0192187   0.015
0.026075   0.0197313   0.015
0.026075   0.0202438   0.015
0.033525   0.00025625   0.015
0.033525   0.00076875   0.015
0.033525   0.00128125   0.015
0.033525   0.00179375   0.015
0.033525   0.00230625   0.015
0.033525   0.00281875   0.015
0.033525   0.00333125   0.015
0.033525   0.00384375   0.015
0.033525   0.00435625   0.015
0.033525   0.00486875   0.015
0.033525   0.00538125   0.015
0.033525   0.00589375   0.015
0.033525   0.00640625   0.015
0.033525   0.00691875   0.015
0.033525   0.00743125   0.015
0.033525   0.00794375   0.015
0.033525   0.00845625   0.015
0.033525   0.00896875   0.015
0.033525   0.00948125   0.015
0.033525   0.00999375   0.015
0.033525   0.0105063   0.015
0.033525   0.0110188   0.015
0.033525   0.0115312   0.015
0.033525   0.0120438   0.015
0.033525   0.0125563   0.015
0.033525   0.0130688   0.015
0.033525   0.0135813   0.015
0.033525   0.0140938   0.015
0.033525   0.0146063   0.015
0.033525   0.0151188   0.015
0.033525   0.0156313   0.015
0.033525   0.0161438   0.015
0.033525   0.0166563   0.015
0.033525   0.0171688   0.015
0.033525   0.0176813   0.015
0.033525   0.0181938   0.015
0.033525   0.0187063   0.015
0.033525   0.0192187   0.015
0.033525   0.0197313   0.015
0.033525   0.0202438   0.015
0.040975   0.00025625   0.015
0.040975   0.00076875   0.015
0.040975   0.00128125   0.015
0.040975   0.00179375   0.015
0.040975   0.00230625   0.015
0.040975   0.00281875   0.015
0.040975   0.00333125   0.015
0.040975   0.00384375   0.015
0.040975   0.00435625   0.015
0.040975   0.00486875   0.015
0.040975   0.00538125   0.015
0.040975   0.00589375   0.015
0.040975   0.00640625   0.015
0.040975   0.00691875   0.015
0.040975   0.00743125   0.015
0.040975   0.00794375   0.015
0.040975   0.00845625   0.015
0.040975   0.00896875   0.015
0.040975   0.00948125   0.015
0.040975   0.00999375   0.015
0.040975   0.0105063   0.015
0.040975   0.0110188   0.015
0.040975   0.0115312   0.015
0.040975   0.0120438   0.015
0.040975   0.0125563   0.015
0.040975   0.0130688   0.015
0.040975   0.0135813   0.015
0.040975   0.0140938   0.015
0.040975   0.0146063   0.015
0.040975   0.0151188   0.015
0.040975   0.0156313   0.015
0.040975   0.0161438   0.015
0.040975   0.0166563   0.015
0.040975   0.0171688   0.015
0.040975   0.0176813   0.015
0.040975   0.0181938   0.015
0.040975   0.0187063   0.015
0.040975   0.0192187   0.015
0.040975   0.0197313   0.015
0.040975   0.0202438   0.015
0.048425   0.00025625   0.015
0.048425   0.00076875   0.015
0.048425   0.00128125   0.015
0.048425   0.00179375   0.015
0.048425   0.00230625   0.015
0.048425   0.00281875   0.015
0.048425   0.00333125   0.015
0.048425   0.00384375   0.015
0.048425   0.00435625   0.015
0.048425   0.00486875   0.015
0.048425   0.00538125   0.015
0.048425   0.00589375   0.015
0.048425   0.00640625   0.015
0.048425   0.00691875   0.015
0.048425   0.00743125   0.015
0.048425   0.00794375   0.015
0.048425   0.00845625   0.015
0.048425   0.00896875   0.015
0.048425   0.00948125   0.015
0.048425   0.00999375   0.015
0.048425   0.0105063   0.015
0.048425   0.0110188   0.015
0.048425   0.0115312   0.015
0.048425   0.0120438   0.015
0.048425   0.0125563   0.015
0.048425   0.0130688   0.015
0.048425   0.0135813   0.015
0.048425   0.0140938   0.015
0.048425   0.0146063   0.015
0.048425   0.0151188   0.015
0.048425   0.0156313   0.015
0.048425   0.0161438   0.015
0.048425   0.0166563   0.015
0.048425   0.0171688   0.015
0.048425   0.0176813   0.015
0.048425   0.0181938   0.015
0.048425   0.0187063   0.015
0.048425   0.0192187   0.015
0.048425   0.0197313   0.015
0.048425   0.0202438   0.015
0.055875   0.00025625   0.015
0.055875   0.00076875   0.015
0.055875   0.00128125   0.015
0.055875   0.00179375   0.015
0.055875   0.00230625   0.015
0.055875   0.00281875   0.015
0.055875   0.00333125   0.015
0.055875   0.00384375   0.015
0.055875   0.00435625   0.015
0.055875   0.00486875   0.015
0.055875   0.00538125   0.015
0.055875   0.00589375   0.015
0.055875   0.00640625   0.015
0.055875   0.00691875   0.015
0.055875   0.00743125   0.015
0.055875   0.00794375   0.015
0.055875   0.00845625   0.015
0.055875   0.00896875   0.015
0.055875   0.00948125   0.015
0.055875   0.00999375   0.015
0.055875   0.0105063   0.015
0.055875   0.0110188   0.015
0.055875   0.0115312   0.015
0.055875   0.0120438   0.015
0.055875   0.0125563   0.015
0.055875   0.0130688   0.015
0.055875   0.0135813   0.015
0.055875   0.0140938   0.015
0.055875   0.0146063   0.015
0.055875   0.0151188   0.015
0.055875   0.0156313   0.015
0.055875   0.0161438   0.015
0.055875   0.0166563   0.015
0.055875   0.0171688   0.015
0.055875   0.0176813   0.015
0.055875   0.0181938   0.015
0.055875   0.0187063   0.015
0.055875   0.0192187   0.015
0.055875   0.0197313   0.015
0.055875   0.0202438   0.015
0.063325   0.00025625   0.015
0.063325   0.00076875   0.015
0.063325   0.00128125   0.015
0.063325   0.00179375   0.015
0.063325   0.00230625   0.015
0.063325   0.00281875   0.015
0.063325   0.00333125   0.015
0.063325   0.00384375   0.015
0.063325   0.00435625   0.015
0.063325   0.00486875   0.015
0.063325   0.00538125   0.015
0.063325   0.00589375   0.015
0.063325   0.00640625   0.015
0.063325   0.00691875   0.015
[...]
POINT_DATA   32000
VECTORS Velocidades double

0.0112676 -0.0787791 -0.182688
0.000461386 -0.165598 1.08439
0.004562 -0.159261 -0.244404
0.0025254 -0.150195 0.916274
0.00289432 -0.148653 0.202704
0.0025022 -0.137266 0.340053
0.00246688 -0.135808 0.785583
0.0021965 -0.126985 -0.0899104
0.00223628 -0.123387 1.09239
0.0019661 -0.117578 -0.218527
0.00205502 -0.112131 1.11427
0.00181237 -0.108459 -0.114209
0.00189529 -0.102145 0.95998
0.00170614 -0.0993388 0.0911694
0.001751 -0.0928872 0.74654
0.00162741 -0.090016 0.300157
0.00162582 -0.0841587 0.570942
0.0015584 -0.0804564 0.424756
0.00153162 -0.0754252 0.491038
0.00149245 -0.0710739 0.461477
0.00146331 -0.0664089 0.468538
0.0014356 -0.0618513 0.462242
0.0014119 -0.057251 0.458855
0.00139142 -0.0526596 0.453553
0.00137441 -0.0480706 0.447352
0.00136095 -0.0434961 0.439828
0.00135128 -0.0389476 0.430841
0.00134573 -0.0344414 0.420173
0.00134472 -0.0299984 0.407597
0.00134876 -0.0256447 0.392867
0.00135833 -0.0214136 0.375718
0.00137374 -0.017346 0.355876
0.00139466 -0.0134924 0.333056
0.00141922 -0.00991486 0.306982
0.00144211 -0.00668923 0.277397
0.00145105 -0.00390812 0.244091
0.00142062 -0.00168436 0.206938
0.00130333 -0.000153552 0.16586
0.00102071 0.000536673 0.12014
0.000465159 0.000326578 0.0638718
0.00897303 -0.082706 -0.233685
0.000257718 -0.175061 1.18121
0.00382365 -0.167886 -0.349766
0.00218001 -0.159234 1.10352
0.0026902 -0.156941 0.0136227
0.00241903 -0.144314 0.497339
0.00252696 -0.143149 0.68177
0.00235467 -0.132684 -0.0492451
0.00251214 -0.129349 1.09725
0.00230268 -0.122389 -0.263167
0.00250382 -0.116863 1.17973
0.00229648 -0.112657 -0.187309
0.00247507 -0.105965 1.03273
0.00231378 -0.103001 0.0296666
0.00242952 -0.096086 0.799782
0.00233646 -0.0932225 0.265213
0.00238324 -0.086926 0.596698
0.00234844 -0.0832134 0.414043
0.00235722 -0.0778898 0.499255
0.00234879 -0.0734371 0.461158
0.00234935 -0.0685935 0.47145
0.00234961 -0.0639046 0.464024
0.00235295 -0.0591686 0.460895
0.00235896 -0.054453 0.455467
0.00236837 -0.0497452 0.449226
0.00238179 -0.0450572 0.441643
0.00240005 -0.0403992 0.432597
0.00242406 -0.0357865 0.421869
0.00245493 -0.0312384 0.409233
0.00249378 -0.0267803 0.394442
0.00254168 -0.0224438 0.377236
0.00259909 -0.0182684 0.357339
0.002665 -0.0143035 0.334471
0.00273486 -0.0106096 0.308356
0.00279678 -0.00726167 0.27874
0.00282436 -0.00435241 0.245418
0.00276531 -0.00199702 0.208262
0.00252617 -0.000338384 0.167192
0.0019603 0.000459994 0.12145
0.000878937 0.000311489 0.0649253
-0.00236278 -0.0805319 -0.219352
-0.000120805 -0.170107 1.13879
-0.000686409 -0.163531 -0.306893
-0.000242406 -0.154706 1.0064
-3.91896e-05 -0.153001 0.111535
0.000101654 -0.141041 0.406837
0.000319508 -0.139826 0.741112
0.000426487 -0.130281 -0.0801452
0.000629667 -0.126856 1.09976
0.000687055 -0.120548 -0.248547
0.000886117 -0.115088 1.14967
0.00092099 -0.111193 -0.156846
0.00108831 -0.104709 0.998049
0.00112831 -0.101847 0.0549349
0.00125072 -0.0951663 0.774069
0.00130618 -0.0923172 0.278392
0.00139198 -0.086229 0.583241
0.00145516 -0.0825306 0.416521
0.00152294 -0.0773409 0.493495
0.00158473 -0.0729351 0.459106
0.00164534 -0.068169 0.46801
0.00170404 -0.0635342 0.461081
0.00176189 -0.0588516 0.457857
0.00181952 -0.0541822 0.452502
0.00187775 -0.0495159 0.446303
0.00193749 -0.044865 0.438777
0.00199975 -0.0402401 0.429796
0.00206566 -0.0356568 0.419144
0.00213643 -0.0311349 0.406595
0.00221328 -0.0266999 0.391904
0.00229716 -0.0223837 0.374813
0.00238824 -0.018226 0.355046
0.00248474 -0.0142762 0.332327
0.0025807 -0.0105949 0.306379
0.00266189 -0.0072572 0.276951
0.00269881 -0.00435562 0.243837
0.00263675 -0.0020053 0.20691
0.00238531 -0.000348866 0.166088
0.00181682 0.000450755 0.120611
0.000788992 0.000307659 0.0644133
-0.000158434 -0.0803224 -0.241005
0.000150283 -0.169697 1.13638
0.000115098 -0.163248 -0.301034
0.000208247 -0.15388 0.965341
0.000352117 -0.152305 0.155088
0.000387098 -0.140333 0.356616
0.000545596 -0.138961 0.775528
0.000558688 -0.129658 -0.107689
0.000734548 -0.126043 1.10844
0.000724164 -0.119973 -0.251424
0.000897631 -0.11439 1.13681
0.000896081 -0.110625 -0.145166
0.00103544 -0.104121 0.976245
0.00106113 -0.101287 0.0692809
0.00115957 -0.0946566 0.75341
0.00121097 -0.0917658 0.287289
0.00128308 -0.0857691 0.570317
0.0013448 -0.0820262 0.417426
0.00140849 -0.0769012 0.48696
0.00147097 -0.0724923 0.456052
0.00153315 -0.0677594 0.463637
0.00159545 -0.0631432 0.457212
0.00165821 -0.0584853 0.453908
0.00172201 -0.0538392 0.448646
0.00178749 -0.0491972 0.44251
0.00185543 -0.0445707 0.435065
0.00192675 -0.0399706 0.426176
0.00200249 -0.0354124 0.415628
0.00208382 -0.0309159 0.403198
0.00217186 -0.0265063 0.388644
0.00226742 -0.0222157 0.371707
0.00237034 -0.0180835 0.352116
0.00247818 -0.0141588 0.329595
0.00258371 -0.0105023 0.303869
0.00267054 -0.00718837 0.274689
0.00270605 -0.00430918 0.24185
0.00263221 -0.00197899 0.205225
0.00235856 -0.000338987 0.164729
0.00176813 0.000450182 0.119607
0.000748429 0.000305685 0.0638348
-0.000153506 -0.0800461 -0.260285
0.000140534 -0.169038 1.12495
0.00015556 -0.162836 -0.285538
0.000227905 -0.15296 0.90977
0.00040754 -0.151553 0.210162
0.0004341 -0.139691 0.297656
0.00061143 -0.138137 0.813515
0.000617718 -0.129166 -0.136592
0.000805826 -0.125343 1.11477
0.00079133 -0.11955 -0.251932
0.00096822 -0.113842 1.11958
0.000968167 -0.110203 -0.130958
0.00110426 -0.103684 0.950691
0.00113501 -0.100862 0.0849946
0.00122863 -0.0942843 0.730285
0.00128501 -0.0913312 0.296229
0.00135509 -0.0854239 0.556061
0.00141989 -0.0816211 0.41762
0.0014845 -0.0765525 0.479514
0.00154946 -0.0721298 0.452139
0.0016141 -0.0674206 0.458416
0.00167945 -0.0628138 0.452499
0.00174572 -0.058172 0.449131
0.00181357 -0.0535417 0.443975
0.00188367 -0.048917 0.437918
0.00195688 -0.044309 0.430573
0.00203419 -0.0397286 0.421795
0.00211674 -0.035191 0.411376
0.00220579 -0.0307161 0.399094
0.00230251 -0.0263291 0.384707
0.00240772 -0.0220617 0.367961
0.00252106 -0.0179532 0.348586
0.00263951 -0.0140524 0.326308
0.00275461 -0.0104195 0.300856
0.00284753 -0.00712848 0.271982
0.00288162 -0.00427069 0.239481
0.00279319 -0.00195935 0.203226
0.00248626 -0.000334106 0.163132
0.00184397 0.000446677 0.118444
0.000767225 0.000302801 0.0631867
-0.000125767 -0.0797982 -0.281065
0.00014387 -0.16834 1.10715
0.00020712 -0.162447 -0.261592
0.000257624 -0.152032 0.842315
0.000470328 -0.150772 0.27429
0.00049246 -0.13909 0.232076
0.000689237 -0.137309 0.853807
0.000694594 -0.128723 -0.166363
0.000897382 -0.124663 1.1187
0.000885435 -0.119173 -0.25019
0.00106983 -0.113334 1.09814
0.00107666 -0.109821 -0.11425
0.00121528 -0.103293 0.921365
0.00125494 -0.10047 0.102265
0.00134988 -0.0939562 0.704623
0.0014143 -0.0909269 0.305334
0.00148751 -0.0851162 0.54052
0.00155839 -0.0812463 0.417145
0.00162767 -0.0762343 0.471228
0.00169797 -0.071795 0.44741
0.00176786 -0.0671077 0.452404
0.00183868 -0.0625086 0.446991
0.00191064 -0.0578813 0.443575
0.00198447 -0.0532651 0.438535
0.00206095 -0.0486564 0.432572
0.00214102 -0.0440655 0.425342
0.0022258 -0.0395036 0.416696
0.00231657 -0.0349858 0.406427
0.00241469 -0.0305318 0.394316
0.00252149 -0.0261666 0.380126
0.0026378 -0.0219217 0.363603
0.00276312 -0.0178363 0.344481
0.00289388 -0.0139588 0.322488
0.00302032 -0.0103488 0.297357
0.00312102 -0.00707971 0.268841
0.0031547 -0.00424204 0.236737
0.00305055 -0.00194786 0.200917
0.00270381 -0.000335212 0.161294
0.00199158 0.000439714 0.117115
0.000819519 0.00029885 0.062458
-0.000131964 -0.0795472 -0.30256
0.000131807 -0.167507 1.08097
0.000249928 -0.161994 -0.226761
0.000279903 -0.151043 0.762463
0.000526925 -0.149893 0.346884
0.00054961 -0.138477 0.161415
0.000765161 -0.136422 0.894794
0.000775129 -0.128272 -0.195493
0.000991491 -0.123953 1.11902
0.000987676 -0.118784 -0.245376
0.00117927 -0.112817 1.07212
0.00119703 -0.109423 -0.0949071
0.0013396 -0.102895 0.888385
0.00139065 -0.100062 0.120928
0.0014895 -0.0936247 0.676751
0.0015635 -0.0905074 0.314376
0.00164245 -0.0848019 0.523961
0.00172097 -0.0808614 0.415916
0.00179697 -0.0759075 0.462221
0.00187425 -0.0714525 0.441886
0.00195105 -0.0667872 0.445658
0.00202887 -0.0621967 0.440731
0.00210794 -0.0575843 0.437287
0.00218911 -0.0529831 0.432371
0.00227322 -0.0483911 0.426514
0.00236133 -0.0438184 0.419415
0.00245469 -0.0392758 0.410917
0.0025547 -0.0347788 0.400818
0.0026629 -0.0303467 0.388902
0.00278071 -0.0260044 0.374935
0.00290902 -0.0217833 0.358665
0.00304718 -0.017722 0.33983
0.00319109 -0.0138687 0.318161
0.00332964 -0.0102824 0.293395
0.00343874 -0.00703576 0.265286
0.00347222 -0.0042184 0.233633
0.0033515 -0.00194111 0.198309
0.00296155 -0.000340248 0.159222
0.00217064 0.000430195 0.115621
0.000885923 0.000294033 0.061645
-0.000145274 -0.0792894 -0.323413
0.000104902 -0.166491 1.04408
0.000290303 -0.161428 -0.17877
0.000298992 -0.149985 0.670471
0.000578429 -0.148884 0.426509
0.000605862 -0.137831 0.0878087
0.000837979 -0.135457 0.934462
0.000856083 -0.127786 -0.2223
0.00108444 -0.123193 1.11451
0.0010918 -0.118354 -0.236811
0.00129024 -0.112267 1.04132
0.00132055 -0.108981 -0.0730351
0.00146825 -0.102468 0.852093
0.00153117 -0.0996114 0.140603
0.00163585 -0.0932649 0.64717
0.00171959 -0.0900498 0.323
0.00180592 -0.084457 0.506714
0.00189257 -0.0804457 0.413814
0.00197636 -0.075551 0.452615
0.00206133 -0.0710826 0.435578
0.00214583 -0.0664403 0.43823
0.00223132 -0.0618603 0.433759
0.00231816 -0.0572646 0.430307
0.00240723 -0.0526801 0.425522
0.0024995 -0.0481067 0.419784
0.00259611 -0.043554 0.412828
0.00269844 -0.0390329 0.404494
0.00280803 -0.0345586 0.394584
0.00292656 -0.0301504 0.382884
0.00305557 -0.0258332 0.369163
0.00319599 -0.0216379 0.353174
0.00334701 -0.0176028 0.334658
0.00350398 -0.0137756 0.31335
0.00365445 -0.0102148 0.288989
0.0037716 -0.00699218 0.261333
0.00380432 -0.00419634 0.230183
0.00366607 -0.00193669 0.19541
0.00323109 -0.000347738 0.156921
0.00235793 0.000418791 0.113964
0.000955056 0.00028851 0.060747
-0.00015 -0.0790321 -0.341475
6.41797e-05 -0.165264 0.994019
0.000329714 -0.160706 -0.115877
0.000318594 -0.148865 0.56751
0.000625798 -0.147733 0.51089
0.000661542 -0.137144 0.0138366
0.000909043 -0.134409 0.970575
0.000935623 -0.127252 -0.245096
0.00117746 -0.122378 1.10407
0.00119466 -0.117865 -0.224053
0.00140322 -0.111675 1.00581
0.0014436 -0.10848 -0.0489462
0.00160023 -0.101997 0.812997
0.00167265 -0.0991032 0.160766
0.00178619 -0.0928628 0.616467
0.00187832 -0.0895424 0.330799
0.00197359 -0.0840679 0.48911
0.00206816 -0.0799883 0.410718
0.00216034 -0.0751529 0.442516
0.00225319 -0.0706751 0.428498
0.00234566 -0.0660571 0.430164
0.00243901 -0.0614903 0.426107
0.00253376 -0.0569134 0.422669
0.00263083 -0.0523481 0.41802
0.00273128 -0.0477957 0.412413
0.00283637 -0.0432654 0.405612
0.00294757 -0.0387683 0.397457
0.00306658 -0.0343193 0.387752
0.00319519 -0.0299378 0.376288
0.00333507 -0.0256482 0.362836
0.00348715 -0.0214812 0.347154
0.00365048 -0.017475 0.328987
0.0038198 -0.0136764 0.308074
0.00398134 -0.0101433 0.284157
0.0041055 -0.00694678 0.256998
0.00413631 -0.00417416 0.226398
0.00397933 -0.00193338 0.19223
0.0034981 -0.00035697 0.154396
0.00254155 0.00040582 0.112146
0.0010208 0.000282355 0.0597628
-0.000121658 -0.0787894 -0.353774
1.79962e-05 -0.163818 0.928657
0.000371892 -0.159791 -0.0376496
0.000346885 -0.147695 0.456086
0.000675155 -0.146438 0.596728
0.000718145 -0.136407 -0.057533
0.000987233 -0.133282 1.0008
0.00101215 -0.126658 -0.262377
0.00128085 -0.121506 1.08691
0.00129446 -0.117302 -0.207049
0.00152788 -0.111034 0.965961
0.00156595 -0.10791 -0.0232196
0.00174308 -0.101474 0.7718
0.00181658 -0.0985295 0.18075
0.00194542 -0.0924093 0.585291
0.00204215 -0.0889796 0.337349
0.0021485 -0.0836262 0.471454
0.00225001 -0.0794839 0.406526
0.0023509 -0.0747072 0.432004
0.00245143 -0.0702249 0.420657
0.00255177 -0.0656326 0.42149
0.00265282 -0.0610821 0.4178
0.00275526 -0.0565265 0.414397
0.00286009 -0.0519832 0.409888
0.00296842 -0.0474546 0.404422
0.00308162 -0.0429495 0.397788
0.00320128 -0.0384792 0.389825
0.0033292 -0.0340585 0.380341
0.00346731 -0.0297065 0.369131
0.00361736 -0.0254474 0.355971
0.00378031 -0.0213117 0.340621
0.00395499 -0.0173369 0.322831
0.00413557 -0.0135697 0.302345
0.00430686 -0.0100669 0.278909
0.00443657 -0.00689873 0.252287
0.00446387 -0.00415128 0.222284
0.00428659 -0.00193084 0.188771
0.00375786 -0.000367786 0.151646
0.00271741 0.000391305 0.110164
0.00108072 0.00027556 0.0586871
3.09293e-05 -0.0785723 -0.358193
4.9523e-05 -0.162189 0.848605
0.000440404 -0.158673 0.0522659
0.000421226 -0.146498 0.341622
0.000761609 -0.145026 0.678724
0.000773481 -0.135618 -0.122837
0.00111615 -0.132093 1.02289
0.00107203 -0.125995 -0.273383
0.00143823 -0.120587 1.06312
0.0013824 -0.116661 -0.186712
0.00169983 -0.110343 0.922929
0.00168796 -0.107269 0.00297239
0.00192175 -0.100896 0.729583
0.00197034 -0.0978902 0.199649
0.00212939 -0.0919009 0.554354
0.00222124 -0.0883624 0.342223
0.00234178 -0.0831297 0.453984
0.0024478 -0.0789326 0.401159
0.00255716 -0.0742128 0.421119
0.00266449 -0.0697313 0.412061
0.00277206 -0.0651662 0.41222
0.00288015 -0.0606351 0.40885
0.00298968 -0.0561034 0.405505
0.00310164 -0.0515848 0.40114
0.00321724 -0.0470826 0.395825
0.00333793 -0.0426057 0.389369
0.00346539 -0.038165 0.381611
0.00360154 -0.0337754 0.372365
0.0037484 -0.0294558 0.361426
0.0039078 -0.0252302 0.348577
0.00408068 -0.0211286 0.333583
0.00426568 -0.0171883 0.316198
0.0044563 -0.0134551 0.296169
0.00463597 -0.00998531 0.273248
0.00476966 -0.0068479 0.247203
0.00479172 -0.00412769 0.21784
0.00459238 -0.00192918 0.185029
0.00401452 -0.000380379 0.148666
0.0028887 0.000375042 0.108007
0.00113595 0.000268032 0.0575085
-0.000579442 -0.0784172 -0.379324
1.53526e-05 -0.160909 0.781936
0.000319673 -0.157774 0.121628
0.000237523 -0.14547 0.245778
0.000947604 -0.143788 0.742181
0.00053478 -0.134864 -0.178083
0.0014234 -0.130985 1.03713
0.000929209 -0.125333 -0.282347
0.00175385 -0.119686 1.03744
0.00137323 -0.116001 -0.167992
0.00197734 -0.109634 0.880485
0.00178257 -0.106604 0.0268777
0.00215943 -0.100287 0.687979
0.00213191 -0.0972199 0.216528
0.00234461 -0.0913595 0.524015
0.00241917 -0.0877143 0.345299
0.00255626 -0.0825963 0.436654
0.00266464 -0.0783498 0.39465
0.00278174 -0.0736827 0.409814
0.00289518 -0.0692046 0.402723
0.00300942 -0.0646661 0.402344
0.00312414 -0.0601556 0.399262
0.00324043 -0.0556487 0.395996
0.00335928 -0.0511562 0.391785
0.00348197 -0.0466821 0.386634
0.00361 -0.0422351 0.38037
0.00374513 -0.0378262 0.372833
0.00388938 -0.03347 0.36384
0.00404485 -0.0291853 0.353192
0.00421345 -0.0249958 0.340676
0.00439607 -0.0209312 0.32606
0.00459111 -0.0170282 0.309105
0.00479142 -0.0133319 0.289563
0.004979 -0.00989781 0.267189
0.00511604 -0.00679371 0.241756
0.00513208 -0.00410295 0.213071
0.00490974 -0.0019281 0.181005
0.00428133 -0.000394626 0.14545
0.00306719 0.000357016 0.105667
0.00119244 0.000259737 0.0562152
-0.000493719 -0.0789268 -0.203904
-4.72781e-05 -0.157784 0.527706
0.000362787 -0.155219 0.384873
0.000260886 -0.144259 0.0353458
0.00100837 -0.141621 0.873089
0.000593678 -0.134216 -0.244005
0.00150447 -0.129574 1.03515
0.00102645 -0.124728 -0.255765
0.00185005 -0.118793 0.971351
0.00150019 -0.115327 -0.110997
0.00209359 -0.109018 0.804631
0.00193099 -0.105904 0.076063
0.0023001 -0.0997533 0.62646
0.00229873 -0.0964969 0.245208
0.00251223 -0.0908496 0.485771
0.00260392 -0.0870232 0.351008
0.0027487 -0.0820491 0.417335
0.00286882 -0.0777317 0.387826
0.00299559 -0.0731184 0.397785
0.00311901 -0.0686396 0.392745
0.00324282 -0.0641259 0.391858
0.00336697 -0.0596353 0.389072
0.00349256 -0.0551531 0.385908
0.00362066 -0.0506872 0.381866
0.00375262 -0.0462426 0.376897
0.00389005 -0.0418274 0.370842
0.00403482 -0.0374526 0.363543
0.00418907 -0.0331326 0.354822
0.00435501 -0.0288859 0.344485
0.00453462 -0.024736 0.332322
0.00472879 -0.0207119 0.318107
0.00493567 -0.0168498 0.301606
0.00514746 -0.0131941 0.282576
0.00534472 -0.00979916 0.260777
0.00548687 -0.00673169 0.235986
0.00549862 -0.00407337 0.208013
0.00525484 -0.00192467 0.176729
0.00457669 -0.000408342 0.142022
0.00327159 0.000338562 0.103162
0.00126208 0.000251109 0.0548214
0.000274471 -0.0789123 -0.173058
-0.000130587 -0.156213 0.426116
0.000549151 -0.153736 0.469463
0.00051051 -0.143119 -0.050748
0.000928687 -0.140104 0.914354
0.000957347 -0.133239 -0.276305
0.00135956 -0.128273 1.02543
0.0013576 -0.1238 -0.247525
0.00174114 -0.117716 0.930948
0.00175443 -0.114392 -0.0859961
0.0020689 -0.108105 0.757346
0.00212912 -0.10499 0.0994817
0.00236346 -0.0989379 0.585134
0.0024725 -0.0955989 0.257894
0.00264727 -0.0901008 0.458119
0.00278206 -0.0861852 0.349709
0.00292984 -0.0813182 0.401239
0.00306879 -0.0769789 0.378997
0.00320767 -0.0724167 0.386013
0.00334448 -0.0679574 0.38214
0.00348062 -0.0634776 0.381013
0.00361678 -0.0590184 0.378431
0.00375401 -0.0545705 0.375378
0.00389352 -0.0501407 0.371495
0.00403678 -0.0457339 0.366705
0.00418551 -0.0413583 0.360859
0.00434174 -0.0370249 0.353801
0.00450772 -0.032748 0.345358
0.00468582 -0.0285457 0.335341
0.00487811 -0.0244413 0.323544
0.00508547 -0.0204633 0.309748
0.00530583 -0.0166473 0.293723
0.00553073 -0.013037 0.275232
0.00573924 -0.00968582 0.254041
0.00588803 -0.00665904 0.229929
0.00589694 -0.00403673 0.202711
0.00563298 -0.00191716 0.172257
0.00490552 -0.000420202 0.138452
0.00350646 0.000320663 0.100569
0.00134813 0.000242561 0.0533995
0.000290372 -0.07898 -0.0640229
-0.000248925 -0.153971 0.274076
0.000553864 -0.151415 0.591319
0.000531916 -0.14168 -0.146287
0.000955077 -0.138117 0.95246
0.00105227 -0.131996 -0.296047
0.00140737 -0.126694 1.00028
0.00150005 -0.122615 -0.224497
0.00181569 -0.116449 0.877994
0.00192111 -0.11322 -0.0526054
0.00218052 -0.10702 0.703915
0.00231146 -0.103869 0.125642
0.00251691 -0.0979627 0.542399
0.0026695 -0.0945229 0.269614
0.00284073 -0.0891954 0.431315
0.0029983 -0.0852002 0.346792
0.00315526 -0.0804432 0.385571
0.0033085 -0.0760975 0.369309
0.00345918 -0.0715907 0.374026
0.00360801 -0.0671617 0.371049
0.00375563 -0.0627233 0.369774
0.00390301 -0.0583039 0.367366
0.00405122 -0.0538983 0.364433
0.00420157 -0.0495121 0.360707
0.0043556 -0.0451506 0.356099
0.00451516 -0.040822 0.350466
0.00468238 -0.0365371 0.343656
0.00485965 -0.0323099 0.3355
0.00504945 -0.0281586 0.325813
0.00525392 -0.0241059 0.314396
0.00547393 -0.02018 0.301036
0.00570715 -0.0164159 0.285508
0.00594441 -0.0128564 0.26758
0.00616327 -0.00955392 0.247025
0.00631756 -0.00657242 0.223626
0.00632221 -0.00399019 0.1972
0.00603641 -0.00190322 0.167617
0.00525762 -0.0004284 0.134759
0.00376118 0.000304445 0.0979045
0.00144489 0.000234457 0.051961
0.00045525 -0.0790679 0.0832775
-0.000239041 -0.151645 0.11442
0.000630785 -0.148802 0.707763
0.000621468 -0.140122 -0.227369
0.00106054 -0.135988 0.973786
0.00117824 -0.130585 -0.30174
0.00153792 -0.124992 0.96263
0.00166174 -0.121248 -0.193563
0.00197139 -0.115057 0.8193
0.00211067 -0.111881 -0.0171793
0.00236467 -0.105798 0.649014
0.00252528 -0.102593 0.151093
0.00273155 -0.0968545 0.500422
0.0029055 -0.0933092 0.279107
0.00308483 -0.0881578 0.405842
0.003257 -0.0840964 0.342115
0.00342504 -0.0794462 0.370267
0.00359012 -0.0751072 0.358801
0.00375187 -0.0706581 0.361767
0.0039115 -0.0662674 0.359475
0.00406959 -0.0618759 0.358124
0.00422718 -0.0575028 0.355874
0.00438538 -0.0531456 0.353067
0.00454558 -0.0488092 0.349504
0.00470941 -0.0444992 0.345083
0.00487881 -0.0402236 0.339669
0.00505601 -0.0359932 0.333114
0.00524351 -0.0318218 0.325255
0.00544389 -0.0277273 0.315911
0.00565935 -0.0237321 0.304889
0.00589071 -0.0198639 0.291981
0.00613532 -0.0161571 0.276969
0.00638329 -0.0126536 0.259628
0.0066106 -0.00940461 0.239735
0.00676818 -0.00647282 0.217078
0.00676609 -0.00393463 0.191479
0.0064559 -0.00188362 0.162805
0.0056237 -0.000433583 0.130935
0.00402853 0.000289409 0.0951534
0.00155054 0.000226592 0.0504902
0.000652534 -0.0790792 0.256274
-0.000177874 -0.149285 -0.0388425
0.000744636 -0.14598 0.806387
0.000744187 -0.138424 -0.287803
0.00120688 -0.133755 0.975329