# vtk DataFile Version 2.0
Temperatura
ASCII

DATASET STRUCTURED_GRID
DIMENSIONS   40   40   20

POINTS   32000   double
0.003725   0.00025625   0.015
0.011175   0.00025625   0.015
0.018625   0.00025625   0.015
0.026075   0.00025625   0.015
0.033525   0.00025625   0.015
0.040975   0.00025625   0.015
0.048425   0.00025625   0.015
0.055875   0.00025625   0.015
0.063325   0.00025625   0.015
0.070775   0.00025625   0.015
0.078225   0.00025625   0.015
0.085675   0.00025625   0.015
0.093125   0.00025625   0.015
0.100575   0.00025625   0.015
0.108025   0.00025625   0.015
0.115475   0.00025625   0.015
0.122925   0.00025625   0.015
0.130375   0.00025625   0.015
0.137825   0.00025625   0.015
0.145275   0.00025625   0.015
0.152725   0.00025625   0.015
0.160175   0.00025625   0.015
0.167625   0.00025625   0.015
0.175075   0.00025625   0.015
0.182525   0.00025625   0.015
0.189975   0.00025625   0.015
0.197425   0.00025625   0.015
0.204875   0.00025625   0.015
0.212325   0.00025625   0.015
0.219775   0.00025625   0.015
0.227225   0.00025625   0.015
0.234675   0.00025625   0.015
0.242125   0.00025625   0.015
0.249575   0.00025625   0.015
0.257025   0.00025625   0.015
0.264475   0.00025625   0.015
0.271925   0.00025625   0.015
0.279375   0.00025625   0.015
0.286825   0.00025625   0.015
0.294275   0.00025625   0.015
0.003725   0.00076875   0.015
0.011175   0.00076875   0.015
0.018625   0.00076875   0.015
0.026075   0.00076875   0.015
0.033525   0.00076875   0.015
0.040975   0.00076875   0.015
0.048425   0.00076875   0.015
0.055875   0.00076875   0.015
0.063325   0.00076875   0.015
0.070775   0.00076875   0.015
0.078225   0.00076875   0.015
0.085675   0.00076875   0.015
0.093125   0.00076875   0.015
0.100575   0.00076875   0.015
0.108025   0.00076875   0.015
0.115475   0.00076875   0.015
0.122925   0.00076875   0.015
0.130375   0.00076875   0.015
0.137825   0.00076875   0.015
0.145275   0.00076875   0.015
0.152725   0.00076875   0.015
0.160175   0.00076875   0.015
0.167625   0.00076875   0.015
0.175075   0.00076875   0.015
0.182525   0.00076875   0.015
0.189975   0.00076875   0.015
0.197425   0.00076875   0.015
0.204875   0.00076875   0.015
0.212325   0.00076875   0.015
0.219775   0.00076875   0.015
0.227225   0.00076875   0.015
0.234675   0.00076875   0.015
0.242125   0.00076875   0.015
0.249575   0.00076875   0.015
0.257025   0.00076875   0.015
0.264475   0.00076875   0.015
0.271925   0.00076875   0.015
0.279375   0.00076875   0.015
0.286825   0.00076875   0.015
0.294275   0.00076875   0.015
0.003725   0.00128125   0.015
0.011175   0.00128125   0.015
0.018625   0.00128125   0.015
0.026075   0.00128125   0.015
0.033525   0.00128125   0.015
0.040975   0.00128125   0.015
0.048425   0.00128125   0.015
0.055875   0.00128125   0.015
0.063325   0.00128125   0.015
0.070775   0.00128125   0.015
0.078225   0.00128125   0.015
0.085675   0.00128125   0.015
0.093125   0.00128125   0.015
0.100575   0.00128125   0.015
0.108025   0.00128125   0.015
0.115475   0.00128125   0.015
0.122925   0.00128125   0.015
0.130375   0.00128125   0.015
0.137825   0.00128125   0.015
0.145275   0.00128125   0.015
0.152725   0.00128125   0.015
0.160175   0.00128125   0.015
0.167625   0.00128125   0.015
0.175075   0.00128125   0.015
0.182525   0.00128125   0.015
0.189975   0.00128125   0.015
0.197425   0.00128125   0.015
0.204875   0.00128125   0.015
0.212325   0.00128125   0.015
0.219775   0.00128125   0.015
0.227225   0.00128125   0.015
0.234675   0.00128125   0.015
0.242125   0.00128125   0.015
0.249575   0.00128125   0.015
0.257025   0.00128125   0.015
0.264475   0.00128125   0.015
0.271925   0.00128125   0.015
0.279375   0.00128125   0.015
0.286825   0.00128125   0.015
0.294275   0.00128125   0.015
0.003725   0.00179375   0.015
0.011175   0.00179375   0.015
0.018625   0.00179375   0.015
0.026075   0.00179375   0.015
0.033525   0.00179375   0.015
0.040975   0.00179375   0.015
0.048425   0.00179375   0.015
0.055875   0.00179375   0.015
0.063325   0.00179375   0.015
0.070775   0.00179375   0.015
0.078225   0.00179375   0.015
0.085675   0.00179375   0.015
0.093125   0.00179375   0.015
0.100575   0.00179375   0.015
0.108025   0.00179375   0.015
0.115475   0.00179375   0.015
0.122925   0.00179375   0.015
0.130375   0.00179375   0.015
0.137825   0.00179375   0.015
0.145275   0.00179375   0.015
0.152725   0.00179375   0.015
0.160175   0.00179375   0.015
0.167625   0.00179375   0.015
0.175075   0.00179375   0.015
0.182525   0.00179375   0.015
0.189975   0.00179375   0.015
0.197425   0.00179375   0.015
0.204875   0.00179375   0.015
0.212325   0.00179375   0.015
0.219775   0.00179375   0.015
0.227225   0.00179375   0.015
0.234675   0.00179375   0.015
0.242125   0.00179375   0.015
0.249575   0.00179375   0.015
0.257025   0.00179375   0.015
0.264475   0.00179375   0.015
0.271925   0.00179375   0.015
0.279375   0.00179375   0.015
0.286825   0.00179375   0.015
0.294275   0.00179375   0.015
0.003725   0.00230625   0.015
0.011175   0.00230625   0.015
0.018625   0.00230625   0.015
0.026075   0.00230625   0.015
0.033525   0.00230625   0.015
0.040975   0.00230625   0.015
0.048425   0.00230625   0.015
0.055875   0.00230625   0.015
0.063325   0.00230625   0.015
0.070775   0.00230625   0.015
0.078225   0.00230625   0.015
0.085675   0.00230625   0.015
0.093125   0.00230625   0.015
0.100575   0.00230625   0.015
0.108025   0.00230625   0.015
0.115475   0.00230625   0.015
0.122925   0.00230625   0.015
0.130375   0.00230625   0.015
0.137825   0.00230625   0.015
0.145275   0.00230625   0.015
0.152725   0.00230625   0.015
0.160175   0.00230625   0.015
0.167625   0.00230625   0.015
0.175075   0.00230625   0.015
0.182525   0.00230625   0.015
0.189975   0.00230625   0.015
0.197425   0.00230625   0.015
0.204875   0.00230625   0.015
0.212325   0.00230625   0.015
0.219775   0.00230625   0.015
0.227225   0.00230625   0.015
0.234675   0.00230625   0.015
0.242125   0.00230625   0.015
0.249575   0.00230625   0.015
0.257025   0.00230625   0.015
0.264475   0.00230625   0.015
0.271925   0.00230625   0.015
0.279375   0.00230625   0.015
0.286825   0.00230625   0.015
0.294275   0.00230625   0.015
0.003725   0.00281875   0.015
0.011175   0.00281875   0.015
0.018625   0.00281875   0.015
0.026075   0.00281875   0.015
0.033525   0.00281875   0.015
0.040975   0.00281875   0.015
0.048425   0.00281875   0.015
0.055875   0.00281875   0.015
0.063325   0.00281875   0.015
0.070775   0.00281875   0.015
0.078225   0.00281875   0.015
0.085675   0.00281875   0.015
0.093125   0.00281875   0.015
0.100575   0.00281875   0.015
0.108025   0.00281875   0.015
0.115475   0.00281875   0.015
0.122925   0.00281875   0.015
0.130375   0.00281875   0.015
0.137825   0.00281875   0.015
0.145275   0.00281875   0.015
0.152725   0.00281875   0.015
0.160175   0.00281875   0.015
0.167625   0.00281875   0.015
0.175075   0.00281875   0.015
0.182525   0.00281875   0.015
0.189975   0.00281875   0.015
0.197425   0.00281875   0.015
0.204875   0.00281875   0.015
0.212325   0.00281875   0.015
0.219775   0.00281875   0.015
0.227225   0.00281875   0.015
0.234675   0.00281875   0.015
0.242125   0.00281875   0.015
0.249575   0.00281875   0.015
0.257025   0.00281875   0.015
0.264475   0.00281875   0.015
0.271925   0.00281875   0.015
0.279375   0.00281875   0.015
0.286825   0.00281875   0.015
0.294275   0.00281875   0.015
0.003725   0.00333125   0.015
0.011175   0.00333125   0.015
0.018625   0.00333125   0.015
0.026075   0.00333125   0.015
0.033525   0.00333125   0.015
0.040975   0.00333125   0.015
0.048425   0.00333125   0.015
0.055875   0.00333125   0.015
0.063325   0.00333125   0.015
0.070775   0.00333125   0.015
0.078225   0.00333125   0.015
0.085675   0.00333125   0.015
0.093125   0.00333125   0.015
0.100575   0.00333125   0.015
0.108025   0.00333125   0.015
0.115475   0.00333125   0.015
0.122925   0.00333125   0.015
0.130375   0.00333125   0.015
0.137825   0.00333125   0.015
0.145275   0.00333125   0.015
0.152725   0.00333125   0.015
0.160175   0.00333125   0.015
0.167625   0.00333125   0.015
0.175075   0.00333125   0.015
0.182525   0.00333125   0.015
0.189975   0.00333125   0.015
0.197425   0.00333125   0.015
0.204875   0.00333125   0.015
0.212325   0.00333125   0.015
0.219775   0.00333125   0.015
0.227225   0.00333125   0.015
0.234675   0.00333125   0.015
0.242125   0.00333125   0.015
0.249575   0.00333125   0.015
0.257025   0.00333125   0.015
0.264475   0.00333125   0.015
0.271925   0.00333125   0.015
0.279375   0.00333125   0.015
0.286825   0.00333125   0.015
0.294275   0.00333125   0.015
0.003725   0.00384375   0.015
0.011175   0.00384375   0.015
0.018625   0.00384375   0.015
0.026075   0.00384375   0.015
0.033525   0.00384375   0.015
0.040975   0.00384375   0.015
0.048425   0.00384375   0.015
0.055875   0.00384375   0.015
0.063325   0.00384375   0.015
0.070775   0.00384375   0.015
0.078225   0.00384375   0.015
0.085675   0.00384375   0.015
0.093125   0.00384375   0.015
0.100575   0.00384375   0.015
0.108025   0.00384375   0.015
0.115475   0.00384375   0.015
0.122925   0.00384375   0.015
0.130375   0.00384375   0.015
0.137825   0.00384375   0.015
0.145275   0.00384375   0.015
0.152725   0.00384375   0.015
0.160175   0.00384375   0.015
0.167625   0.00384375   0.015
0.175075   0.00384375   0.015
0.182525   0.00384375   0.015
0.189975   0.00384375   0.015
0.197425   0.00384375   0.015
0.204875   0.00384375   0.015
0.212325   0.00384375   0.015
0.219775   0.00384375   0.015
0.227225   0.00384375   0.015
0.234675   0.00384375   0.015
0.242125   0.00384375   0.015
0.249575   0.00384375   0.015
0.257025   0.00384375   0.015
0.264475   0.00384375   0.015
0.271925   0.00384375   0.015
0.279375   0.00384375   0.015
0.286825   0.00384375   0.015
0.294275   0.00384375   0.015
0.003725   0.00435625   0.015
0.011175   0.00435625   0.015
0.018625   0.00435625   0.015
0.026075   0.00435625   0.015
0.033525   0.00435625   0.015
0.040975   0.00435625   0.015
0.048425   0.00435625   0.015
0.055875   0.00435625   0.015
0.063325   0.00435625   0.015
[...]
POINT_DATA   32000
SCALARS Temperatura double
LOOKUP_TABLE   Temperatura

22.4 22.4 22.4 22.4 22.4 22.4 22.4 22.4 22.4 22.4 22.4 22.4 22.4 22.4 22.4 22.4 22.4 22.4 22.4 22.4 22.4 22.4 22.4 22.4 22.4 22.4 22.4 22.4 22.4 22.4 22.4 22.4 22.4 22.4 22.4 22.4 22.4 22.4 22.4 22.4 22.3409 21.7309 22.0834 22.2006 22.2661 22.3098 22.3312 22.3214 22.2661 22.1449 21.9393 21.8852 22.4228 22.4034 22.3756 22.3578 22.3512 22.3021 22.2218 22.2793 22.418 22.5001 22.5096 22.4825 22.4543 22.445 22.4525 22.4801 22.1194 23.2598 24.736 24.9826 24.2107 23.3723 22.8322 22.564 22.4565 22.4217 22.4111 22.4039 22.4827 22.5994 22.5102 22.4929 22.4897 22.495 22.5079 22.5287 22.5564 22.5849 22.5915 22.5141 22.4476 22.4479 22.4395 22.4267 22.4094 22.3833 22.3726 22.4129 22.4576 22.4739 22.4733 22.4713 22.4746 22.48 22.482 22.4811 22.48 22.3441 22.1616 22.0369 22.0345 22.1318 22.2495 22.3397 22.3926 22.4146 22.4164 22.4072 22.4263 22.433 22.4303 22.4302 22.4311 22.4327 22.435 22.4383 22.4421 22.4446 22.4414 22.4324 22.4427 22.4446 22.4465 22.4491 22.4519 22.4545 22.4571 22.4599 22.4627 22.4652 22.4678 22.471 22.4744 22.4771 22.479 22.4821 22.4965 22.529 22.5682 22.562 22.5157 22.4659 22.4355 22.4261 22.428 22.4299 22.4243 22.4103 22.4368 22.4366 22.4368 22.4373 22.4379 22.4386 22.4391 22.4392 22.4386 22.4369 22.4339 22.433 22.443 22.4438 22.445 22.4469 22.4494 22.4524 22.4559 22.4594 22.4625 22.4652 22.4679 22.4707 22.4735 22.4763 22.4792 22.4822 22.4935 22.4811 22.4561 22.4297 22.4147 22.4143 22.423 22.4334 22.4401 22.4396 22.4303 22.4129 22.4233 22.4216 22.4232 22.4243 22.4256 22.4271 22.4288 22.4306 22.4324 22.4341 22.4358 22.4382 22.444 22.4459 22.448 22.45 22.452 22.454 22.4564 22.4592 22.4621 22.4651 22.4682 22.4712 22.4741 22.477 22.4798 22.4827 22.4861 22.4884 22.4892 22.4854 22.4774 22.4683 22.4611 22.4569 22.4536 22.4474 22.4348 22.4149 22.4258 22.4288 22.428 22.4283 22.4288 22.4294 22.43 22.4308 22.4317 22.4328 22.4344 22.4369 22.4405 22.4425 22.4449 22.4475 22.4502 22.4529 22.4558 22.459 22.4621 22.4648 22.4674 22.4701 22.4731 22.4766 22.4803 22.484 22.4888 22.4892 22.4868 22.4826 22.4779 22.4738 22.4702 22.4665 22.4613 22.4526 22.4379 22.4164 22.4272 22.4255 22.427 22.428 22.4292 22.4306 22.4321 22.4338 22.4356 22.4375 22.4393 22.4406 22.4439 22.4454 22.4471 22.4489 22.4509 22.4531 22.4558 22.459 22.4622 22.4652 22.4681 22.4708 22.4736 22.4765 22.4793 22.4824 22.4851 22.4875 22.4888 22.4885 22.4865 22.483 22.4786 22.4733 22.4664 22.4561 22.4401 22.4174 22.4238 22.4253 22.4253 22.426 22.4268 22.4279 22.4292 22.4308 22.4325 22.4344 22.4365 22.4387 22.4405 22.4427 22.4451 22.4476 22.4501 22.4528 22.4557 22.4587 22.4617 22.4644 22.4672 22.4702 22.4736 22.4772 22.4809 22.4843 22.4877 22.4896 22.4903 22.49 22.4886 22.486 22.4823 22.477 22.4694 22.4582 22.4415 22.4182 22.4286 22.4273 22.4285 22.4294 22.4305 22.4318 22.4333 22.4347 22.4363 22.4378 22.4393 22.4405 22.4426 22.4442 22.446 22.448 22.4502 22.4526 22.4555 22.4587 22.462 22.4649 22.4676 22.4702 22.4729 22.4758 22.4789 22.4822 22.4851 22.4877 22.4895 22.4902 22.4897 22.4878 22.4843 22.479 22.4711 22.4596 22.4424 22.4187 22.4242 22.4245 22.4251 22.426 22.4271 22.4284 22.4299 22.4315 22.4332 22.4351 22.4372 22.4391 22.4412 22.4434 22.4456 22.448 22.4503 22.4527 22.4554 22.4584 22.4614 22.4644 22.4673 22.4705 22.4738 22.4772 22.4806 22.4836 22.4867 22.4888 22.4901 22.4907 22.4902 22.4886 22.4853 22.4801 22.4721 22.4604 22.443 22.419 22.4284 22.4286 22.4293 22.43 22.4309 22.4319 22.433 22.4342 22.4355 22.4369 22.4384 22.4398 22.4414 22.4432 22.4452 22.4474 22.4498 22.4523 22.4552 22.4584 22.4615 22.4643 22.4669 22.4695 22.4724 22.4755 22.4787 22.482 22.4849 22.4875 22.4894 22.4903 22.4902 22.4888 22.4857 22.4806 22.4727 22.4608 22.4433 22.4192 22.4257 22.4255 22.4263 22.4273 22.4285 22.4299 22.4314 22.433 22.4347 22.4366 22.4384 22.4403 22.4421 22.444 22.446 22.448 22.4502 22.4524 22.4551 22.4582 22.4614 22.4644 22.4674 22.4704 22.4735 22.4766 22.4797 22.4827 22.4856 22.4878 22.4893 22.4902 22.4901 22.4888 22.4858 22.4808 22.4729 22.4611 22.4435 22.4193 22.427 22.4279 22.4282 22.4289 22.4297 22.4307 22.4318 22.4331 22.4345 22.436 22.4376 22.4392 22.4411 22.443 22.4451 22.4474 22.4497 22.4522 22.455 22.4581 22.461 22.4637 22.4664 22.4691 22.4721 22.4752 22.4784 22.4816 22.4845 22.487 22.4888 22.4898 22.4898 22.4886 22.4857 22.4808 22.4729 22.4612 22.4436 22.4194 22.4282 22.4281 22.4289 22.4299 22.4309 22.4321 22.4334 22.4348 22.4363 22.4378 22.4393 22.4409 22.4422 22.4439 22.4457 22.4477 22.4499 22.4522 22.455 22.4581 22.4613 22.4643 22.4671 22.4699 22.4728 22.4758 22.4788 22.4817 22.4845 22.4868 22.4885 22.4894 22.4895 22.4883 22.4855 22.4806 22.4729 22.4611 22.4437 22.4195 22.4266 22.427 22.4276 22.4283 22.4292 22.4304 22.4316 22.433 22.4345 22.4362 22.4379 22.4396 22.4416 22.4434 22.4455 22.4477 22.4499 22.4523 22.4549 22.4578 22.4607 22.4634 22.4661 22.4689 22.4718 22.4749 22.478 22.481 22.4839 22.4862 22.488 22.489 22.489 22.4879 22.4852 22.4804 22.4727 22.461 22.4436 22.4195 22.4292 22.4301 22.4305 22.4312 22.432 22.433 22.434 22.4352 22.4364 22.4378 22.4392 22.4406 22.442 22.4437 22.4456 22.4476 22.4498 22.4522 22.455 22.4581 22.4611 22.464 22.4666 22.4693 22.472 22.4749 22.4779 22.4808 22.4835 22.4858 22.4875 22.4885 22.4886 22.4875 22.4848 22.48 22.4724 22.4609 22.4435 22.4194 22.4278 22.4278 22.4285 22.4294 22.4304 22.4315 22.4328 22.4342 22.4357 22.4373 22.439 22.4406 22.4424 22.4441 22.446 22.448 22.4501 22.4524 22.4549 22.4577 22.4606 22.4633 22.466 22.4686 22.4715 22.4744 22.4774 22.4803 22.4831 22.4853 22.487 22.488 22.4881 22.487 22.4844 22.4796 22.4721 22.4606 22.4434 22.4194 22.4293 22.4303 22.4306 22.4312 22.432 22.4329 22.434 22.4351 22.4364 22.4378 22.4392 22.4407 22.4422 22.4439 22.4458 22.4479 22.4501 22.4525 22.4551 22.458 22.4609 22.4636 22.4661 22.4687 22.4714 22.4742 22.4771 22.4799 22.4826 22.4848 22.4865 22.4875 22.4875 22.4865 22.4838 22.4792 22.4717 22.4603 22.4432 22.4193 22.4298 22.4298 22.4306 22.4314 22.4323 22.4334 22.4346 22.4359 22.4373 22.4387 22.4402 22.4417 22.4432 22.4448 22.4465 22.4484 22.4504 22.4526 22.4551 22.4579 22.4606 22.4633 22.4658 22.4684 22.4711 22.4739 22.4767 22.4795 22.4821 22.4843 22.486 22.4869 22.4869 22.4858 22.4832 22.4786 22.4712 22.4599 22.4429 22.4192 22.4297 22.4305 22.4309 22.4316 22.4324 22.4334 22.4345 22.4357 22.437 22.4384 22.4399 22.4414 22.443 22.4447 22.4465 22.4485 22.4506 22.4528 22.4553 22.4581 22.4608 22.4633 22.4658 22.4683 22.4709 22.4736 22.4764 22.4791 22.4817 22.4838 22.4854 22.4863 22.4863 22.4852 22.4826 22.478 22.4706 22.4594 22.4426 22.419 22.4318 22.4322 22.4328 22.4335 22.4343 22.4352 22.4363 22.4374 22.4387 22.4399 22.4413 22.4426 22.444 22.4455 22.4471 22.4489 22.4509 22.453 22.4554 22.4581 22.4608 22.4633 22.4657 22.4681 22.4707 22.4733 22.476 22.4787 22.4812 22.4832 22.4847 22.4856 22.4856 22.4844 22.4818 22.4772 22.47 22.4588 22.4421 22.4188 22.4312 22.4316 22.4322 22.4329 22.4338 22.4348 22.436 22.4372 22.4385 22.4399 22.4414 22.4428 22.4443 22.4458 22.4475 22.4493 22.4513 22.4534 22.4557 22.4583 22.4609 22.4633 22.4656 22.468 22.4705 22.4731 22.4757 22.4782 22.4806 22.4826 22.484 22.4848 22.4847 22.4836 22.481 22.4764 22.4692 22.4582 22.4416 22.4186 22.4333 22.434 22.4345 22.4351 22.4358 22.4367 22.4377 22.4388 22.4399 22.4411 22.4424 22.4437 22.445 22.4465 22.4481 22.4498 22.4517 22.4537 22.456 22.4585 22.461 22.4633 22.4656 22.4679 22.4703 22.4727 22.4753 22.4777 22.48 22.4819 22.4833 22.484 22.4838 22.4826 22.48 22.4754 22.4682 22.4573 22.441 22.4183 22.4338 22.4342 22.4347 22.4354 22.4363 22.4372 22.4382 22.4394 22.4406 22.4418 22.4431 22.4444 22.4457 22.4471 22.4486 22.4503 22.4521 22.4541 22.4563 22.4587 22.4611 22.4633 22.4655 22.4677 22.47 22.4724 22.4748 22.4772 22.4794 22.4811 22.4824 22.483 22.4828 22.4815 22.4788 22.4743 22.4671 22.4564 22.4403 22.418 22.4353 22.4359 22.4364 22.437 22.4377 22.4386 22.4395 22.4406 22.4417 22.4428 22.4441 22.4453 22.4465 22.4478 22.4493 22.4509 22.4526 22.4545 22.4566 22.4589 22.4612 22.4634 22.4654 22.4675 22.4697 22.472 22.4743 22.4766 22.4786 22.4803 22.4814 22.4819 22.4816 22.4802 22.4775 22.4729 22.4659 22.4552 22.4394 22.4176 22.4365 22.437 22.4375 22.4381 22.4389 22.4397 22.4406 22.4416 22.4427 22.4438 22.445 22.4461 22.4473 22.4485 22.4499 22.4514 22.4531 22.4549 22.4569 22.4591 22.4613 22.4633 22.4653 22.4673 22.4694 22.4715 22.4737 22.4758 22.4777 22.4792 22.4802 22.4806 22.4802 22.4788 22.476 22.4714 22.4644 22.4539 22.4384 22.4171 22.4379 22.4384 22.4389 22.4395 22.4402 22.441 22.4418 22.4428 22.4438 22.4448 22.4459 22.447 22.4481 22.4493 22.4506 22.452 22.4535 22.4552 22.4571 22.4592 22.4612 22.4632 22.465 22.4669 22.4688 22.4709 22.4729 22.4748 22.4766 22.478 22.4788 22.4791 22.4785 22.477 22.4742 22.4696 22.4626 22.4523 22.4372 22.4165 22.4393 22.4397 22.4402 22.4408 22.4414 22.4422 22.443 22.4439 22.4448 22.4458 22.4468 22.4478 22.4488 22.4499 22.4511 22.4524 22.4539 22.4555 22.4572 22.4592 22.4611 22.4629 22.4646 22.4663 22.4681 22.47 22.4719 22.4736 22.4752 22.4764 22.4771 22.4772 22.4766 22.4749 22.472 22.4674 22.4605 22.4504 22.4357 22.4158 22.4406 22.441 22.4414 22.442 22.4426 22.4433 22.4441 22.4449 22.4458 22.4467 22.4476 22.4485 22.4494 22.4504 22.4515 22.4527 22.454 22.4555 22.4571 22.4589 22.4607 22.4623 22.4639 22.4655 22.4671 22.4688 22.4705 22.4721 22.4735 22.4745 22.4751 22.475 22.4742 22.4724 22.4694 22.4648 22.458 22.4482 22.4341 22.4151 22.4418 22.4421 22.4425 22.443 22.4436 22.4442 22.4449 22.4457 22.4465 22.4473 22.4481 22.4489 22.4497 22.4506 22.4516 22.4527 22.4539 22.4552 22.4567 22.4583 22.4599 22.4614 22.4628 22.4642 22.4656 22.4672 22.4687 22.4701 22.4713 22.4721 22.4725 22.4722 22.4713 22.4694 22.4664 22.4618 22.4551 22.4457 22.4321 22.4142 22.4426 22.4428 22.4432 22.4437 22.4442 22.4448 22.4454 22.4461 22.4468 22.4475 22.4482 22.4489 22.4496 22.4504 22.4512 22.4522 22.4532 22.4544 22.4558 22.4572 22.4586 22.4599 22.4611 22.4623 22.4636 22.4649 22.4662 22.4674 22.4684 22.4691 22.4692 22.4688 22.4677 22.4657 22.4627 22.4581 22.4517 22.4426 22.4299 22.4131 22.4428 22.443 22.4434 22.4438 22.4442 22.4448 22.4453 22.4459 22.4465 22.4471 22.4477 22.4483 22.4489 22.4495 22.4502 22.451 22.4519 22.4529 22.4541 22.4554 22.4566 22.4577 22.4587 22.4597 22.4608 22.4619 22.463 22.464 22.4647 22.4652 22.4651 22.4646 22.4633 22.4613 22.4582 22.4538 22.4477 22.4392 22.4273 22.4119 22.4422 22.4424 22.4427 22.443 22.4434 22.4439 22.4444 22.4448 22.4453 22.4459 22.4463 22.4468 22.4472 22.4477 22.4483 22.4489 22.4497 22.4505 22.4515 22.4526 22.4536 22.4545 22.4553 22.4561 22.4569 22.4578 22.4587 22.4594 22.46 22.4602 22.46 22.4593 22.458 22.4559 22.4529 22.4487 22.443 22.4351 22.4244 22.4106 22.4404 22.4405 22.4407 22.441 22.4414 22.4418 22.4421 22.4425 22.4429 22.4433 22.4437 22.444 22.4443 22.4447 22.4451 22.4456 22.4461 22.4468 22.4476 22.4485 22.4493 22.45 22.4506 22.4512 22.4518 22.4524 22.4531 22.4536 22.454 22.454 22.4537 22.4529 22.4515 22.4495 22.4467 22.4428 22.4376 22.4305 22.421 22.4091 22.4369 22.4369 22.4371 22.4374 22.4377 22.4379 22.4382 22.4385 22.4388 22.439 22.4393 22.4395 22.4397 22.4399 22.4401 22.4405 22.4409 22.4414 22.442 22.4427 22.4434 22.4439 22.4443 22.4447 22.4451 22.4455 22.4459 22.4463 22.4464 22.4463 22.4459 22.4451 22.4438 22.4419 22.4393 22.4359 22.4314 22.4254 22.4174 22.4075 22.4312 22.4312 22.4314 22.4316 22.4318 22.432 22.4322 22.4324 22.4325 22.4327 22.4328 22.4328 22.4329 22.433 22.4331 22.4333 22.4336 22.4339 22.4344 22.435 22.4355 22.4358 22.4361 22.4363 22.4365 22.4367 22.437 22.4371 22.4372 22.437 22.4365 22.4358 22.4346 22.433 22.4309 22.4281 22.4244 22.4196 22.4134 22.4057 22.4231 22.4231 22.4232 22.4233 22.4235 22.4236 22.4237 22.4238 22.4238 22.4239 22.4239 22.4238 22.4238 22.4238 22.4238 22.4239 22.424 22.4243 22.4246 22.425 22.4254 22.4257 22.4258 22.4259 22.426 22.4261 22.4261 22.4262 22.4261 22.426 22.4256 22.425 22.4241 22.4229 22.4213 22.4193 22.4167 22.4134 22.4091 22.4039 22.4125 22.4125 22.4125 22.4126 22.4126 22.4127 22.4127 22.4128 22.4128 22.4128 22.4127 22.4126 22.4126 22.4125 22.4124 22.4124 22.4125 22.4126 22.4128 22.4131 22.4133 22.4135 22.4136 22.4136 22.4136 22.4136 22.4136 22.4136 22.4136 22.4134 22.4132 22.4129 22.4124 22.4118 22.4109 22.4099 22.4085 22.4068 22.4046 22.402 22.4 22.4 22.4 22.4 22.4 22.4 22.4 22.4 22.4 22.4 22.4 22.4 22.4 22.4 22.4 22.4 22.4 22.4 22.4 22.4 22.4 22.4 22.4 22.4 22.4 22.4 22.4 22.4 22.4 22.4 22.4 22.4 22.4 22.4 22.4 22.4 22.4 22.4 22.4 22.4 -21.9872 -68.0568 -39.4576 -28.578 -19.1399 -10.4503 -2.45889 4.50098 10.0346 13.7515 15.5483 18.5944 25.1654 26.544 28.0575 27.1235 22.8248 18.2903 24.2782 40.6579 51.8506 52.9154 49.107 44.3512 39.799 35.3289 30.4054 23.5926 80.849 145.778 204.741 207.677 173.074 132.361 98.719 74.0176 56.8209 45.3819 38.3644 34.3515 23.68 28.0366 25.6878 24.788 24.252 23.8233 23.4857 23.2512 23.137 23.1701 23.3697 23.1847 22.4298 22.4061 22.55 22.8558 23.2784 23.0843 21.9082 21.3743 21.8447 22.5865 23.2353 23.6445 23.7173 23.4681 23.1081 22.3938 35.8933 50.4224 69.3251 78.4634 75.8396 67.5561 58.1092 49.4224 42.184 36.6273 32.8325 30.5401 22.6893 23.2665 22.8691 22.7526 22.6882 22.6466 22.6214 22.6128 22.6257 22.6671 22.7148 22.5861 22.4612 22.4954 22.507 22.5018 22.4662 22.4767 22.618 22.6515 22.5303 22.4134 22.3792 22.4389 22.5515 22.6342 22.6491 22.5204 22.6537 27.4589 32.9141 37.3588 39.8561 40.1621 38.7885 36.4261 33.704 31.1414 29.1448 27.8626 22.492 22.4542 22.4685 22.4726 22.4759 22.4801 22.4846 22.4863 22.4793 22.456 22.4151 22.4005 22.4684 22.4615 22.4618 22.4646 22.4656 22.4595 22.4565 22.4637 22.4721 22.4762 22.4736 22.4637 22.4541 22.457 22.4756 22.4857 22.9508 23.7832 25.5391 27.5479 29.2403 30.226 30.4091 29.8953 28.9107 27.7472 26.7123 26.0086 22.5384 22.5061 22.5142 22.5172 22.5221 22.529 22.5383 22.5495 22.5612 22.5695 22.5657 22.5334 22.462 22.4672 22.4677 22.468 22.4685 22.4687 22.466 22.4616 22.4591 22.4607 22.4659 22.472 22.4766 22.4798 22.4832 22.486 22.2959 22.6343 23.2253 24.0626 25.0071 25.8185 26.3088 26.4009 26.1332 25.6413 25.1207 24.7439 22.4916 22.4927 22.4931 22.4926 22.491 22.4883 22.4842 22.4786 22.4718 22.4646 22.4584 22.456 22.4704 22.4683 22.4674 22.4671 22.4674 22.4681 22.468 22.4663 22.4631 22.4591 22.4553 22.4529 22.4526 22.4537 22.4556 22.4578 22.4239 22.5031 22.7115 23.0626 23.5234 23.9966 24.3692 24.5574 24.5347 24.3447 24.0914 23.8953 22.5062 22.4951 22.4989 22.5003 22.502 22.5037 22.5052 22.5059 22.505 22.5019 22.4962 22.4874 22.4693 22.4684 22.4664 22.4643 22.4628 22.4623 22.4621 22.4619 22.4621 22.4626 22.4627 22.4619 22.4603 22.4581 22.4554 22.4521 22.4166 22.4443 22.5191 22.6649 22.8866 23.1499 23.395 23.5611 23.6116 23.5523 23.4346 23.336 22.4727 22.479 22.4765 22.4748 22.4729 22.4709 22.4689 22.4672 22.466 22.4654 22.465 22.4651 22.4712 22.4703 22.4692 22.4678 22.4665 22.4649 22.4625 22.4595 22.4568 22.455 22.4539 22.4528 22.4512 22.4485 22.4448 22.4404 22.4268 22.4333 22.4608 22.523 22.6277 22.7654 22.9095 23.0247 23.0817 23.0733 23.0219 22.9743 22.4833 22.4877 22.4865 22.4858 22.4847 22.4833 22.4815 22.4794 22.4768 22.474 22.4713 22.4693 22.4662 22.465 22.464 22.4633 22.4633 22.4637 22.4633 22.4617 22.4596 22.4576 22.4558 22.4539 22.4518 22.449 22.4454 22.4407 22.4297 22.4291 22.4376 22.4627 22.5109 22.5813 22.6622 22.7348 22.7796 22.7875 22.767 22.7451 22.4737 22.4722 22.4723 22.4724 22.4725 22.4725 22.4727 22.4728 22.4727 22.4723 22.4715 22.4707 22.4691 22.4679 22.4657 22.4635 22.4619 22.4609 22.4598 22.458 22.4561 22.4544 22.4526 22.4503 22.4474 22.4439 22.4399 22.4357 22.4288 22.4261 22.4276 22.4372 22.4588 22.4933 22.5365 22.579 22.6092 22.6195 22.6125 22.603 22.4717 22.4775 22.4752 22.474 22.4727 22.4714 22.4701 22.4689 22.4678 22.4668 22.4658 22.4651 22.4669 22.466 22.465 22.4639 22.4631 22.4625 22.4611 22.4588 22.4564 22.4544 22.4527 22.4509 22.4485 22.4453 22.4415 22.437 22.4308 22.4266 22.4245 22.4265 22.4348 22.4506 22.4725 22.4959 22.5142 22.5224 22.5206 22.5168 22.4757 22.4766 22.4764 22.4761 22.4756 22.4749 22.4741 22.473 22.4718 22.4703 22.4687 22.4675 22.4651 22.4639 22.4624 22.461 22.4602 22.4598 22.459 22.4571 22.4549 22.4527 22.4505 22.4481 22.4454 22.4422 22.4387 22.4349 22.4296 22.4255 22.4224 22.4214 22.4236 22.43 22.4401 22.452 22.4621 22.4674 22.4672 22.4657 22.4697 22.4705 22.4699 22.4697 22.4694 22.4691 22.4688 22.4685 22.4681 22.4676 22.4668 22.4661 22.4659 22.4649 22.4635 22.462 22.4609 22.4602 22.459 22.4571 22.4549 22.4531 22.4513 22.4492 22.4467 22.4436 22.4399 22.4358 22.4307 22.426 22.4221 22.4194 22.4186 22.42 22.4238 22.4291 22.434 22.4368 22.4368 22.4361 22.4705 22.4735 22.4724 22.4716 22.4707 22.4697 22.4687 22.4676 22.4666 22.4654 22.4642 22.4633 22.463 22.4621 22.4609 22.4597 22.459 22.4586 22.4575 22.4556 22.4532 22.4511 22.4491 22.447 22.4446 22.4418 22.4385 22.4348 22.43 22.4257 22.4217 22.4185 22.4162 22.4153 22.4158 22.4173 22.4191 22.4201 22.4198 22.4194 22.4701 22.4707 22.4704 22.4701 22.4697 22.4693 22.4687 22.4681 22.4674 22.4665 22.4655 22.4646 22.4635 22.4626 22.4612 22.4599 22.459 22.4585 22.4576 22.4558 22.4537 22.4519 22.45 22.448 22.4455 22.4425 22.4391 22.4352 22.4304 22.4259 22.4217 22.4181 22.4152 22.4131 22.4119 22.4114 22.4113 22.4112 22.4106 22.4102 22.4664 22.4679 22.4672 22.4667 22.4662 22.4656 22.465 22.4644 22.4638 22.463 22.4622 22.4615 22.4613 22.4604 22.4593 22.4581 22.4573 22.4568 22.4558 22.454 22.4518 22.45 22.4482 22.4464 22.4442 22.4415 22.4384 22.4347 22.4302 22.4258 22.4217 22.418 22.4148 22.4121 22.41 22.4085 22.4074 22.4066 22.4058 22.4052 22.4677 22.4688 22.4684 22.4679 22.4674 22.4668 22.4661 22.4654 22.4646 22.4638 22.4628 22.462 22.4612 22.4604 22.4592 22.458 22.4572 22.4568 22.456 22.4543 22.4524 22.4505 22.4487 22.4468 22.4444 22.4416 22.4384 22.4347 22.4302 22.4258 22.4217 22.4179 22.4146 22.4116 22.4091 22.4071 22.4055 22.4042 22.4033 22.4026 22.4643 22.4648 22.4645 22.4642 22.4638 22.4634 22.4629 22.4624 22.4618 22.4611 22.4603 22.4596 22.4592 22.4584 22.4573 22.4562 22.4555 22.4551 22.4542 22.4526 22.4507 22.4491 22.4475 22.4458 22.4436 22.441 22.4379 22.4343 22.43 22.4257 22.4216 22.4179 22.4145 22.4114 22.4088 22.4065 22.4046 22.4031 22.402 22.4013 22.4646 22.4655 22.4651 22.4646 22.4641 22.4636 22.463 22.4624 22.4618 22.461 22.4601 22.4595 22.4589 22.4581 22.457 22.456 22.4554 22.455 22.4542 22.4527 22.4508 22.4491 22.4474 22.4455 22.4434 22.4407 22.4376 22.4341 22.4297 22.4255 22.4215 22.4178 22.4144 22.4114 22.4086 22.4062 22.4041 22.4025 22.4014 22.4007 22.4619 22.4623 22.4621 22.4617 22.4613 22.4609 22.4604 22.4598 22.4593 22.4586 22.4578 22.4572 22.4569 22.4562 22.4553 22.4543 22.4538 22.4535 22.4527 22.4513 22.4496 22.4481 22.4465 22.4448 22.4427 22.4402 22.4372 22.4337 22.4294 22.4253 22.4213 22.4177 22.4143 22.4113 22.4085 22.406 22.4039 22.4023 22.4011 22.4003 22.4615 22.4622 22.4618 22.4614 22.461 22.4605 22.46 22.4595 22.4589 22.4582 22.4574 22.4568 22.4564 22.4557 22.4548 22.4539 22.4533 22.453 22.4522 22.4508 22.4491 22.4475 22.4459 22.4442 22.4421 22.4396 22.4367 22.4332 22.4291 22.425 22.4211 22.4175 22.4142 22.4112 22.4084 22.4059 22.4038 22.4022 22.401 22.4002 22.4592 22.4594 22.4591 22.4588 22.4584 22.458 22.4576 22.4572 22.4567 22.4561 22.4554 22.4549 22.4548 22.4542 22.4533 22.4525 22.452 22.4517 22.451 22.4497 22.4481 22.4466 22.4451 22.4434 22.4414 22.439 22.4361 22.4327 22.4286 22.4246 22.4208 22.4173 22.4141 22.4111 22.4083 22.4059 22.4038 22.4021 22.4009 22.4002 22.4584 22.4587 22.4584 22.4581 22.4577 22.4573 22.4569 22.4564 22.4559 22.4553 22.4546 22.4541 22.4539 22.4533 22.4524 22.4516 22.4511 22.4508 22.4501 22.4488 22.4472 22.4457 22.4442 22.4425 22.4406 22.4382 22.4354 22.4321 22.428 22.4242 22.4204 22.417 22.4139 22.4109 22.4082 22.4058 22.4037 22.4021 22.4009 22.4001 22.4567 22.4566 22.4563 22.4561 22.4558 22.4554 22.455 22.4546 22.4542 22.4536 22.453 22.4526 22.4524 22.4518 22.4511 22.4503 22.4498 22.4495 22.4488 22.4476 22.446 22.4446 22.4431 22.4416 22.4396 22.4373 22.4346 22.4313 22.4274 22.4236 22.42 22.4167 22.4136 22.4107 22.4081 22