# vtk DataFile Version 2.0
Temperatura
ASCII

DATASET STRUCTURED_GRID
DIMENSIONS   40   40   20

POINTS   32000   double
0.003725   0.00025625   0.015
0.011175   0.00025625   0.015
0.018625   0.00025625   0.015
0.026075   0.00025625   0.015
0.033525   0.00025625   0.015
0.040975   0.00025625   0.015
0.048425   0.00025625   0.015
0.055875   0.00025625   0.015
0.063325   0.00025625   0.015
0.070775   0.00025625   0.015
0.078225   0.00025625   0.015
0.085675   0.00025625   0.015
0.093125   0.00025625   0.015
0.100575   0.00025625   0.015
0.108025   0.00025625   0.015
0.115475   0.00025625   0.015
0.122925   0.00025625   0.015
0.130375   0.00025625   0.015
0.137825   0.00025625   0.015
0.145275   0.00025625   0.015
0.152725   0.00025625   0.015
0.160175   0.00025625   0.015
0.167625   0.00025625   0.015
0.175075   0.00025625   0.015
0.182525   0.00025625   0.015
0.189975   0.00025625   0.015
0.197425   0.00025625   0.015
0.204875   0.00025625   0.015
0.212325   0.00025625   0.015
0.219775   0.00025625   0.015
0.227225   0.00025625   0.015
0.234675   0.00025625   0.015
0.242125   0.00025625   0.015
0.249575   0.00025625   0.015
0.257025   0.00025625   0.015
0.264475   0.00025625   0.015
0.271925   0.00025625   0.015
0.279375   0.00025625   0.015
0.286825   0.00025625   0.015
0.294275   0.00025625   0.015
0.003725   0.00076875   0.015
0.011175   0.00076875   0.015
0.018625   0.00076875   0.015
0.026075   0.00076875   0.015
0.033525   0.00076875   0.015
0.040975   0.00076875   0.015
0.048425   0.00076875   0.015
0.055875   0.00076875   0.015
0.063325   0.00076875   0.015
0.070775   0.00076875   0.015
0.078225   0.00076875   0.015
0.085675   0.00076875   0.015
0.093125   0.00076875   0.015
0.100575   0.00076875   0.015
0.108025   0.00076875   0.015
0.115475   0.00076875   0.015
0.122925   0.00076875   0.015
0.130375   0.00076875   0.015
0.137825   0.00076875   0.015
0.145275   0.00076875   0.015
0.152725   0.00076875   0.015
0.160175   0.00076875   0.015
0.167625   0.00076875   0.015
0.175075   0.00076875   0.015
0.182525   0.00076875   0.015
0.189975   0.00076875   0.015
0.197425   0.00076875   0.015
0.204875   0.00076875   0.015
0.212325   0.00076875   0.015
0.219775   0.00076875   0.015
0.227225   0.00076875   0.015
0.234675   0.00076875   0.015
0.242125   0.00076875   0.015
0.249575   0.00076875   0.015
0.257025   0.00076875   0.015
0.264475   0.00076875   0.015
0.271925   0.00076875   0.015
0.279375   0.00076875   0.015
0.286825   0.00076875   0.015
0.294275   0.00076875   0.015
0.003725   0.00128125   0.015
0.011175   0.00128125   0.015
0.018625   0.00128125   0.015
0.026075   0.00128125   0.015
0.033525   0.00128125   0.015
0.040975   0.00128125   0.015
0.048425   0.00128125   0.015
0.055875   0.00128125   0.015
0.063325   0.00128125   0.015
0.070775   0.00128125   0.015
0.078225   0.00128125   0.015
0.085675   0.00128125   0.015
0.093125   0.00128125   0.015
0.100575   0.00128125   0.015
0.108025   0.00128125   0.015
0.115475   0.00128125   0.015
0.122925   0.00128125   0.015
0.130375   0.00128125   0.015
0.137825   0.00128125   0.015
0.145275   0.00128125   0.015
0.152725   0.00128125   0.015
0.160175   0.00128125   0.015
0.167625   0.00128125   0.015
0.175075   0.00128125   0.015
0.182525   0.00128125   0.015
0.189975   0.00128125   0.015
0.197425   0.00128125   0.015
0.204875   0.00128125   0.015
0.212325   0.00128125   0.015
0.219775   0.00128125   0.015
0.227225   0.00128125   0.015
0.234675   0.00128125   0.015
0.242125   0.00128125   0.015
0.249575   0.00128125   0.015
0.257025   0.00128125   0.015
0.264475   0.00128125   0.015
0.271925   0.00128125   0.015
0.279375   0.00128125   0.015
0.286825   0.00128125   0.015
0.294275   0.00128125   0.015
0.003725   0.00179375   0.015
0.011175   0.00179375   0.015
0.018625   0.00179375   0.015
0.026075   0.00179375   0.015
0.033525   0.00179375   0.015
0.040975   0.00179375   0.015
0.048425   0.00179375   0.015
0.055875   0.00179375   0.015
0.063325   0.00179375   0.015
0.070775   0.00179375   0.015
0.078225   0.00179375   0.015
0.085675   0.00179375   0.015
0.093125   0.00179375   0.015
0.100575   0.00179375   0.015
0.108025   0.00179375   0.015
0.115475   0.00179375   0.015
0.122925   0.00179375   0.015
0.130375   0.00179375   0.015
0.137825   0.00179375   0.015
0.145275   0.00179375   0.015
0.152725   0.00179375   0.015
0.160175   0.00179375   0.015
0.167625   0.00179375   0.015
0.175075   0.00179375   0.015
0.182525   0.00179375   0.015
0.189975   0.00179375   0.015
0.197425   0.00179375   0.015
0.204875   0.00179375   0.015
0.212325   0.00179375   0.015
0.219775   0.00179375   0.015
0.227225   0.00179375   0.015
0.234675   0.00179375   0.015
0.242125   0.00179375   0.015
0.249575   0.00179375   0.015
0.257025   0.00179375   0.015
0.264475   0.00179375   0.015
0.271925   0.00179375   0.015
0.279375   0.00179375   0.015
0.286825   0.00179375   0.015
0.294275   0.00179375   0.015
0.003725   0.00230625   0.015
0.011175   0.00230625   0.015
0.018625   0.00230625   0.015
0.026075   0.00230625   0.015
0.033525   0.00230625   0.015
0.040975   0.00230625   0.015
0.048425   0.00230625   0.015
0.055875   0.00230625   0.015
0.063325   0.00230625   0.015
0.070775   0.00230625   0.015
0.078225   0.00230625   0.015
0.085675   0.00230625   0.015
0.093125   0.00230625   0.015
0.100575   0.00230625   0.015
0.108025   0.00230625   0.015
0.115475   0.00230625   0.015
0.122925   0.00230625   0.015
0.130375   0.00230625   0.015
0.137825   0.00230625   0.015
0.145275   0.00230625   0.015
0.152725   0.00230625   0.015
0.160175   0.00230625   0.015
0.167625   0.00230625   0.015
0.175075   0.00230625   0.015
0.182525   0.00230625   0.015
0.189975   0.00230625   0.015
0.197425   0.00230625   0.015
0.204875   0.00230625   0.015
0.212325   0.00230625   0.015
0.219775   0.00230625   0.015
0.227225   0.00230625   0.015
0.234675   0.00230625   0.015
0.242125   0.00230625   0.015
0.249575   0.00230625   0.015
0.257025   0.00230625   0.015
0.264475   0.00230625   0.015
0.271925   0.00230625   0.015
0.279375   0.00230625   0.015
0.286825   0.00230625   0.015
0.294275   0.00230625   0.015
0.003725   0.00281875   0.015
0.011175   0.00281875   0.015
0.018625   0.00281875   0.015
0.026075   0.00281875   0.015
0.033525   0.00281875   0.015
0.040975   0.00281875   0.015
0.048425   0.00281875   0.015
0.055875   0.00281875   0.015
0.063325   0.00281875   0.015
0.070775   0.00281875   0.015
0.078225   0.00281875   0.015
0.085675   0.00281875   0.015
0.093125   0.00281875   0.015
0.100575   0.00281875   0.015
0.108025   0.00281875   0.015
0.115475   0.00281875   0.015
0.122925   0.00281875   0.015
0.130375   0.00281875   0.015
0.137825   0.00281875   0.015
0.145275   0.00281875   0.015
0.152725   0.00281875   0.015
0.160175   0.00281875   0.015
0.167625   0.00281875   0.015
0.175075   0.00281875   0.015
0.182525   0.00281875   0.015
0.189975   0.00281875   0.015
0.197425   0.00281875   0.015
0.204875   0.00281875   0.015
0.212325   0.00281875   0.015
0.219775   0.00281875   0.015
0.227225   0.00281875   0.015
0.234675   0.00281875   0.015
0.242125   0.00281875   0.015
0.249575   0.00281875   0.015
0.257025   0.00281875   0.015
0.264475   0.00281875   0.015
0.271925   0.00281875   0.015
0.279375   0.00281875   0.015
0.286825   0.00281875   0.015
0.294275   0.00281875   0.015
0.003725   0.00333125   0.015
0.011175   0.00333125   0.015
0.018625   0.00333125   0.015
0.026075   0.00333125   0.015
0.033525   0.00333125   0.015
0.040975   0.00333125   0.015
0.048425   0.00333125   0.015
0.055875   0.00333125   0.015
0.063325   0.00333125   0.015
0.070775   0.00333125   0.015
0.078225   0.00333125   0.015
0.085675   0.00333125   0.015
0.093125   0.00333125   0.015
0.100575   0.00333125   0.015
0.108025   0.00333125   0.015
0.115475   0.00333125   0.015
0.122925   0.00333125   0.015
0.130375   0.00333125   0.015
0.137825   0.00333125   0.015
0.145275   0.00333125   0.015
0.152725   0.00333125   0.015
0.160175   0.00333125   0.015
0.167625   0.00333125   0.015
0.175075   0.00333125   0.015
0.182525   0.00333125   0.015
0.189975   0.00333125   0.015
0.197425   0.00333125   0.015
0.204875   0.00333125   0.015
0.212325   0.00333125   0.015
0.219775   0.00333125   0.015
0.227225   0.00333125   0.015
0.234675   0.00333125   0.015
0.242125   0.00333125   0.015
0.249575   0.00333125   0.015
0.257025   0.00333125   0.015
0.264475   0.00333125   0.015
0.271925   0.00333125   0.015
0.279375   0.00333125   0.015
0.286825   0.00333125   0.015
0.294275   0.00333125   0.015
0.003725   0.00384375   0.015
0.011175   0.00384375   0.015
0.018625   0.00384375   0.015
0.026075   0.00384375   0.015
0.033525   0.00384375   0.015
0.040975   0.00384375   0.015
0.048425   0.00384375   0.015
0.055875   0.00384375   0.015
0.063325   0.00384375   0.015
0.070775   0.00384375   0.015
0.078225   0.00384375   0.015
0.085675   0.00384375   0.015
0.093125   0.00384375   0.015
0.100575   0.00384375   0.015
0.108025   0.00384375   0.015
0.115475   0.00384375   0.015
0.122925   0.00384375   0.015
0.130375   0.00384375   0.015
0.137825   0.00384375   0.015
0.145275   0.00384375   0.015
0.152725   0.00384375   0.015
0.160175   0.00384375   0.015
0.167625   0.00384375   0.015
0.175075   0.00384375   0.015
0.182525   0.00384375   0.015
0.189975   0.00384375   0.015
0.197425   0.00384375   0.015
0.204875   0.00384375   0.015
0.212325   0.00384375   0.015
0.219775   0.00384375   0.015
0.227225   0.00384375   0.015
0.234675   0.00384375   0.015
0.242125   0.00384375   0.015
0.249575   0.00384375   0.015
0.257025   0.00384375   0.015
0.264475   0.00384375   0.015
0.271925   0.00384375   0.015
0.279375   0.00384375   0.015
0.286825   0.00384375   0.015
0.294275   0.00384375   0.015
0.003725   0.00435625   0.015
0.011175   0.00435625   0.015
0.018625   0.00435625   0.015
0.026075   0.00435625   0.015
0.033525   0.00435625   0.015
0.040975   0.00435625   0.015
0.048425   0.00435625   0.015
0.055875   0.00435625   0.015
0.063325   0.00435625   0.015
[...]
POINT_DATA   32000
SCALARS Temperatura double
LOOKUP_TABLE   Temperatura

22.4 22.4 22.4 22.4 22.4 22.4 22.4 22.4 22.4 22.4 22.4 22.4 22.4 22.4 22.4 22.4 22.4 22.4 22.4 22.4 22.4 22.4 22.4 22.4 22.4 22.4 22.4 22.4 22.4 22.4 22.4 22.4 22.4 22.4 22.4 22.4 22.4 22.4 22.4 22.4 21.5445 21.4272 21.4503 21.4493 21.4688 21.5133 21.5918 21.7109 21.8711 22.0631 22.2655 22.4234 22.6417 22.6505 22.6642 22.6823 22.7071 22.7385 22.7727 22.8032 22.8237 22.8298 22.8211 22.7997 22.7693 22.734 22.6971 22.6621 23.209 22.9953 22.8274 22.7039 22.6158 22.5542 22.5113 22.4805 22.457 22.4376 22.4211 22.4073 22.8648 23.0543 22.9601 22.9302 22.8872 22.8356 22.7774 22.7168 22.6599 22.6134 22.5828 22.575 22.5505 22.5517 22.5522 22.5517 22.5502 22.5477 22.5448 22.5418 22.5391 22.5371 22.5364 22.5376 22.5406 22.5451 22.5507 22.5549 22.328 22.374 22.4206 22.457 22.4815 22.4942 22.496 22.4885 22.4738 22.4542 22.4327 22.4118 22.5205 22.4716 22.4992 22.5085 22.5201 22.5328 22.5458 22.558 22.5683 22.5759 22.5802 22.5763 22.5821 22.5825 22.5836 22.5852 22.5871 22.5893 22.5914 22.5933 22.5948 22.5956 22.5953 22.594 22.5915 22.5879 22.5835 22.5788 22.6133 22.5921 22.5718 22.5542 22.5394 22.5265 22.514 22.5001 22.4833 22.4628 22.4392 22.4145 22.5699 22.5778 22.5732 22.5724 22.5718 22.5716 22.572 22.573 22.5746 22.5765 22.5787 22.5823 22.5772 22.5795 22.582 22.5843 22.5865 22.5884 22.5898 22.5907 22.5911 22.5908 22.59 22.5886 22.5869 22.5846 22.5818 22.5783 22.5583 22.5542 22.5501 22.5448 22.5378 22.529 22.518 22.5043 22.4875 22.467 22.4427 22.4161 22.5621 22.5615 22.5624 22.5627 22.563 22.5633 22.5636 22.564 22.5645 22.5651 22.5658 22.5658 22.5688 22.5696 22.5707 22.5721 22.5737 22.5754 22.577 22.5786 22.58 22.581 22.5816 22.5816 22.5811 22.5799 22.578 22.5754 22.5727 22.567 22.5603 22.5524 22.5435 22.5331 22.521 22.5067 22.4896 22.4691 22.4446 22.4171 22.5687 22.5668 22.5684 22.5695 22.5707 22.5721 22.5737 22.5753 22.5771 22.579 22.5808 22.5827 22.5839 22.5857 22.5875 22.5892 22.5907 22.5918 22.5925 22.5927 22.5926 22.5919 22.5907 22.5891 22.5871 22.5846 22.5816 22.5779 22.5725 22.5672 22.561 22.5537 22.5449 22.5346 22.5224 22.5079 22.4907 22.4702 22.4457 22.4176 22.5578 22.5575 22.558 22.5583 22.5588 22.5593 22.5599 22.5607 22.5616 22.5627 22.5639 22.565 22.5671 22.5686 22.5704 22.5724 22.5745 22.5765 22.5784 22.5801 22.5814 22.5823 22.5827 22.5826 22.582 22.5807 22.5787 22.576 22.5722 22.5674 22.5615 22.5543 22.5457 22.5354 22.5231 22.5086 22.4913 22.4708 22.4463 22.418 22.5712 22.5704 22.5715 22.5724 22.5734 22.5746 22.5759 22.5772 22.5787 22.5801 22.5816 22.5829 22.584 22.5853 22.5865 22.5875 22.5885 22.5892 22.5896 22.5898 22.5896 22.589 22.588 22.5867 22.5849 22.5827 22.58 22.5767 22.5726 22.5677 22.5617 22.5546 22.546 22.5357 22.5235 22.5089 22.4916 22.4711 22.4466 22.4182 22.5562 22.555 22.556 22.5566 22.5574 22.5583 22.5594 22.5606 22.5619 22.5634 22.5649 22.5664 22.5687 22.5704 22.5724 22.5744 22.5764 22.5783 22.58 22.5815 22.5826 22.5832 22.5834 22.5831 22.5823 22.5808 22.5787 22.5758 22.5721 22.5674 22.5616 22.5545 22.546 22.5358 22.5236 22.5091 22.4918 22.4713 22.4468 22.4183 22.5713 22.5715 22.5721 22.5728 22.5735 22.5744 22.5753 22.5763 22.5773 22.5783 22.5794 22.5803 22.5811 22.582 22.583 22.5839 22.5847 22.5854 22.586 22.5862 22.5863 22.5859 22.5853 22.5843 22.5829 22.581 22.5786 22.5756 22.5718 22.5671 22.5614 22.5544 22.5459 22.5358 22.5236 22.5092 22.4919 22.4714 22.4469 22.4184 22.557 22.5558 22.5568 22.5576 22.5585 22.5596 22.5608 22.5621 22.5635 22.5651 22.5666 22.5682 22.5702 22.5719 22.5737 22.5755 22.5774 22.579 22.5805 22.5818 22.5826 22.5831 22.5831 22.5826 22.5816 22.5801 22.5779 22.575 22.5714 22.5667 22.5611 22.5541 22.5458 22.5357 22.5236 22.5092 22.492 22.4715 22.447 22.4184 22.5688 22.5694 22.5698 22.5703 22.5708 22.5715 22.5722 22.5729 22.5738 22.5746 22.5755 22.5763 22.577 22.5779 22.5789 22.5799 22.5808 22.5817 22.5824 22.583 22.5833 22.5833 22.583 22.5823 22.5812 22.5795 22.5773 22.5745 22.5709 22.5663 22.5607 22.5538 22.5455 22.5355 22.5235 22.5091 22.492 22.4716 22.4471 22.4185 22.5582 22.5575 22.5583 22.5591 22.56 22.561 22.5621 22.5634 22.5648 22.5662 22.5676 22.5691 22.5708 22.5723 22.574 22.5756 22.5772 22.5787 22.5799 22.5809 22.5816 22.5819 22.5818 22.5813 22.5803 22.5788 22.5766 22.5738 22.5703 22.5658 22.5603 22.5535 22.5452 22.5353 22.5233 22.509 22.4919 22.4716 22.4471 22.4185 22.5647 22.5654 22.5657 22.5661 22.5666 22.5672 22.5679 22.5686 22.5694 22.5703 22.5712 22.5721 22.573 22.5741 22.5752 22.5764 22.5776 22.5787 22.5797 22.5805 22.581 22.5812 22.5811 22.5805 22.5795 22.578 22.5759 22.5732 22.5697 22.5652 22.5597 22.553 22.5448 22.535 22.5231 22.5089 22.4919 22.4715 22.4472 22.4186 22.5588 22.5586 22.5592 22.5599 22.5607 22.5616 22.5627 22.5638 22.565 22.5662 22.5675 22.5688 22.5702 22.5716 22.573 22.5745 22.5759 22.5772 22.5783 22.5793 22.5799 22.5802 22.5801 22.5796 22.5786 22.5771 22.5751 22.5724 22.569 22.5646 22.5592 22.5525 22.5444 22.5346 22.5228 22.5086 22.4917 22.4715 22.4471 22.4186 22.5607 22.5612 22.5616 22.562 22.5626 22.5632 22.564 22.5648 22.5658 22.5668 22.5678 22.5689 22.57 22.5712 22.5725 22.5738 22.5751 22.5763 22.5774 22.5783 22.5789 22.5792 22.5791 22.5786 22.5777 22.5763 22.5742 22.5716 22.5682 22.5639 22.5585 22.5519 22.5439 22.5341 22.5224 22.5083 22.4915 22.4714 22.4471 22.4186 22.5583 22.5584 22.5589 22.5594 22.5601 22.5609 22.5619 22.5628 22.5639 22.5651 22.5662 22.5674 22.5687 22.5699 22.5713 22.5727 22.574 22.5753 22.5764 22.5772 22.5779 22.5782 22.5781 22.5776 22.5767 22.5753 22.5733 22.5707 22.5673 22.5631 22.5577 22.5512 22.5432 22.5336 22.5219 22.508 22.4912 22.4712 22.447 22.4186 22.558 22.5583 22.5587 22.5592 22.5598 22.5606 22.5614 22.5623 22.5633 22.5644 22.5655 22.5666 22.5678 22.569 22.5704 22.5717 22.573 22.5742 22.5753 22.5762 22.5768 22.5771 22.577 22.5766 22.5757 22.5743 22.5723 22.5697 22.5664 22.5622 22.5569 22.5504 22.5425 22.5329 22.5214 22.5075 22.4909 22.4709 22.4469 22.4185 22.5569 22.5571 22.5575 22.5581 22.5587 22.5595 22.5603 22.5613 22.5623 22.5634 22.5645 22.5656 22.5668 22.5681 22.5694 22.5707 22.572 22.5732 22.5743 22.5751 22.5757 22.576 22.5759 22.5755 22.5746 22.5732 22.5712 22.5687 22.5654 22.5612 22.5559 22.5495 22.5417 22.5322 22.5207 22.5069 22.4904 22.4706 22.4467 22.4185 22.5562 22.5565 22.5569 22.5574 22.558 22.5587 22.5596 22.5605 22.5615 22.5625 22.5636 22.5648 22.5659 22.5671 22.5684 22.5697 22.571 22.5722 22.5732 22.574 22.5746 22.5749 22.5748 22.5743 22.5734 22.572 22.5701 22.5675 22.5642 22.56 22.5548 22.5485 22.5407 22.5313 22.5199 22.5063 22.4899 22.4702 22.4464 22.4184 22.5555 22.5558 22.5562 22.5567 22.5573 22.558 22.5588 22.5597 22.5607 22.5617 22.5628 22.5639 22.5651 22.5662 22.5675 22.5688 22.57 22.5711 22.5721 22.5729 22.5735 22.5737 22.5736 22.5731 22.5722 22.5708 22.5688 22.5663 22.563 22.5588 22.5536 22.5473 22.5396 22.5302 22.519 22.5054 22.4892 22.4697 22.4461 22.4183 22.5549 22.5552 22.5556 22.5561 22.5567 22.5574 22.5582 22.559 22.56 22.561 22.562 22.5631 22.5642 22.5654 22.5666 22.5678 22.569 22.5701 22.5711 22.5718 22.5723 22.5725 22.5723 22.5718 22.5709 22.5694 22.5675 22.5649 22.5616 22.5574 22.5523 22.546 22.5383 22.529 22.5179 22.5045 22.4884 22.469 22.4457 22.4181 22.5545 22.5547 22.555 22.5555 22.5561 22.5568 22.5576 22.5584 22.5593 22.5603 22.5613 22.5624 22.5634 22.5645 22.5657 22.5669 22.568 22.569 22.5699 22.5706 22.5711 22.5712 22.571 22.5704 22.5694 22.568 22.566 22.5633 22.56 22.5559 22.5507 22.5445 22.5368 22.5276 22.5166 22.5033 22.4874 22.4683 22.4451 22.4179 22.554 22.5543 22.5546 22.5551 22.5556 22.5563 22.557 22.5579 22.5587 22.5597 22.5606 22.5616 22.5626 22.5637 22.5648 22.5659 22.567 22.5679 22.5688 22.5694 22.5698 22.5698 22.5696 22.5689 22.5679 22.5663 22.5643 22.5616 22.5583 22.5541 22.549 22.5427 22.5351 22.526 22.5151 22.5019 22.4862 22.4673 22.4445 22.4177 22.5537 22.5539 22.5542 22.5546 22.5552 22.5558 22.5565 22.5573 22.5581 22.559 22.5599 22.5609 22.5618 22.5628 22.5639 22.5649 22.5659 22.5668 22.5675 22.5681 22.5683 22.5683 22.568 22.5673 22.5661 22.5645 22.5624 22.5597 22.5563 22.5521 22.547 22.5407 22.5332 22.5241 22.5133 22.5003 22.4848 22.4662 22.4437 22.4174 22.5534 22.5536 22.5538 22.5542 22.5547 22.5553 22.556 22.5567 22.5575 22.5584 22.5592 22.5601 22.561 22.5619 22.5629 22.5638 22.5647 22.5655 22.5661 22.5666 22.5668 22.5667 22.5662 22.5654 22.5642 22.5625 22.5603 22.5575 22.5541 22.5498 22.5447 22.5384 22.5309 22.5219 22.5112 22.4984 22.4831 22.4648 22.4428 22.417 22.553 22.5531 22.5534 22.5538 22.5542 22.5548 22.5554 22.5561 22.5568 22.5576 22.5583 22.5592 22.56 22.5608 22.5617 22.5625 22.5633 22.564 22.5646 22.5649 22.5649 22.5647 22.5642 22.5633 22.5619 22.5602 22.5579 22.555 22.5515 22.5472 22.542 22.5357 22.5283 22.5194 22.5088 22.4962 22.4811 22.4632 22.4417 22.4166 22.5525 22.5526 22.5528 22.5531 22.5535 22.5541 22.5546 22.5552 22.5559 22.5566 22.5573 22.558 22.5587 22.5595 22.5602 22.561 22.5617 22.5622 22.5626 22.5628 22.5628 22.5624 22.5618 22.5607 22.5593 22.5574 22.555 22.552 22.5484 22.544 22.5388 22.5325 22.5251 22.5163 22.5059 22.4935 22.4788 22.4613 22.4404 22.416 22.5516 22.5517 22.5518 22.5521 22.5525 22.553 22.5535 22.554 22.5546 22.5552 22.5558 22.5565 22.5571 22.5577 22.5584 22.559 22.5595 22.56 22.5602 22.5603 22.5601 22.5596 22.5588 22.5576 22.556 22.554 22.5515 22.5484 22.5447 22.5403 22.535 22.5287 22.5214 22.5127 22.5024 22.4903 22.476 22.459 22.4388 22.4154 22.5502 22.5502 22.5503 22.5506 22.5509 22.5513 22.5518 22.5522 22.5527 22.5533 22.5537 22.5543 22.5548 22.5553 22.5558 22.5563 22.5567 22.557 22.5571 22.557 22.5566 22.556 22.555 22.5537 22.5519 22.5498 22.5471 22.5439 22.5402 22.5357 22.5304 22.5242 22.5169 22.5083 22.4983 22.4865 22.4727 22.4563 22.437 22.4147 22.5479 22.5478 22.5478 22.5481 22.5484 22.5487 22.5491 22.5494 22.5499 22.5503 22.5506 22.5511 22.5515 22.5518 22.5522 22.5525 22.5528 22.5529 22.5529 22.5526 22.5521 22.5513 22.5501 22.5486 22.5467 22.5444 22.5417 22.5384 22.5345 22.53 22.5247 22.5185 22.5114 22.503 22.4933 22.4819 22.4687 22.4531 22.4348 22.4138 22.5441 22.5439 22.5439 22.5441 22.5443 22.5446 22.5449 22.5452 22.5455 22.5458 22.546 22.5463 22.5466 22.5468 22.547 22.5472 22.5473 22.5473 22.547 22.5466 22.5459 22.5449 22.5436 22.542 22.54 22.5376 22.5347 22.5313 22.5274 22.5229 22.5177 22.5116 22.5046 22.4965 22.4872 22.4764 22.4639 22.4493 22.4322 22.4127 22.5381 22.5377 22.5377 22.5378 22.538 22.5382 22.5384 22.5386 22.5388 22.539 22.5391 22.5393 22.5394 22.5395 22.5396 22.5396 22.5396 22.5394 22.539 22.5384 22.5376 22.5364 22.535 22.5332 22.5311 22.5286 22.5257 22.5223 22.5184 22.514 22.5088 22.503 22.4963 22.4886 22.4799 22.4698 22.4581 22.4447 22.4291 22.4115 22.5288 22.5283 22.5283 22.5284 22.5285 22.5286 22.5287 22.5288 22.5289 22.529 22.529 22.5291 22.5291 22.5291 22.529 22.5289 22.5287 22.5284 22.5279 22.5272 22.5262 22.525 22.5234 22.5216 22.5194 22.5169 22.514 22.5107 22.5069 22.5027 22.4978 22.4923 22.4861 22.479 22.4709 22.4618 22.4513 22.4393 22.4255 22.4101 22.515 22.5145 22.5144 22.5145 22.5145 22.5145 22.5146 22.5146 22.5146 22.5146 22.5145 22.5145 22.5144 22.5143 22.5141 22.5139 22.5136 22.5132 22.5126 22.5119 22.5109 22.5096 22.5081 22.5063 22.5042 22.5018 22.499 22.4959 22.4924 22.4885 22.4841 22.4791 22.4736 22.4673 22.4603 22.4523 22.4433 22.4331 22.4214 22.4084 22.4955 22.495 22.4949 22.4949 22.4949 22.4949 22.4948 22.4948 22.4947 22.4947 22.4945 22.4944 22.4942 22.494 22.4938 22.4936 22.4933 22.4929 22.4923 22.4916 22.4907 22.4895 22.4882 22.4865 22.4846 22.4825 22.4801 22.4774 22.4744 22.471 22.4673 22.4632 22.4586 22.4534 22.4477 22.4412 22.434 22.4259 22.4167 22.4066 22.4694 22.469 22.4689 22.4689 22.4688 22.4688 22.4687 22.4687 22.4686 22.4684 22.4683 22.4681 22.4679 22.4677 22.4675 22.4673 22.467 22.4667 22.4663 22.4657 22.465 22.4641 22.4631 22.4618 22.4604 22.4587 22.4569 22.4549 22.4526 22.4501 22.4474 22.4443 22.441 22.4373 22.4332 22.4286 22.4235 22.4178 22.4114 22.4045 22.4369 22.4367 22.4367 22.4366 22.4366 22.4366 22.4366 22.4365 22.4364 22.4363 22.4362 22.436 22.4359 22.4357 22.4355 22.4354 22.4352 22.435 22.4348 22.4345 22.4342 22.4337 22.4331 22.4324 22.4317 22.4308 22.4298 22.4287 22.4274 22.4261 22.4246 22.423 22.4212 22.4192 22.4171 22.4147 22.412 22.4091 22.4058 22.4023 22.4 22.4 22.4 22.4 22.4 22.4 22.4 22.4 22.4 22.4 22.4 22.4 22.4 22.4 22.4 22.4 22.4 22.4 22.4 22.4 22.4 22.4 22.4 22.4 22.4 22.4 22.4 22.4 22.4 22.4 22.4 22.4 22.4 22.4 22.4 22.4 22.4 22.4 22.4 22.4 11.9594 19.3344 15.1709 12.4312 9.04449 5.1003 0.720621 -3.80929 -7.94529 -10.806 -11.3217 -10.5917 21.7095 21.708 22.0025 22.9906 24.6593 26.8161 29.1501 31.3134 33.0091 34.0551 34.4015 34.1064 33.2892 32.0824 30.577 28.6952 116.238 97.6462 83.1464 71.1704 61.1247 52.7205 45.7519 40.0611 35.5344 32.1045 29.7547 28.388 32.5238 31.7046 32.3397 32.7575 33.239 33.7281 34.1498 34.4003 34.3512 33.875 32.9048 31.6095 22.8988 22.8726 22.8465 22.8752 22.9936 23.213 23.5147 23.8585 24.1968 24.489 24.7067 24.8335 24.8609 24.7845 24.599 24.3291 48.6556 47.039 44.5651 41.9335 39.258 36.6259 34.1154 31.8014 29.7604 28.0759 26.8429 26.1027 22.8779 23.2378 23.0949 23.031 22.9218 22.766 22.5557 22.2881 21.971 21.6286 21.3085 21.172 22.4568 22.4598 22.4602 22.4635 22.468 22.474 22.4845 22.5048 22.5399 22.592 22.6586 22.733 22.8048 22.8615 22.8898 22.9026 29.3217 30.1088 30.2385 30.046 29.5997 28.9525 28.1619 27.2925 26.4182 25.6221 24.9968 24.6092 22.5587 22.4649 22.5137 22.5309 22.5509 22.5702 22.5856 22.594 22.5924 22.58 22.5606 22.5512 22.4653 22.4623 22.4584 22.4545 22.4508 22.4478 22.4461 22.4469 22.4514 22.4605 22.4743 22.4919 22.5111 22.5282 22.5382 22.5478 24.6458 25.1381 25.4014 25.5323 25.5381 25.4234 25.2005 24.8919 24.5323 24.1696 23.8637 23.668 22.3931 22.4005 22.3967 22.3934 22.3895 22.3855 22.3816 22.3784 22.3764 22.3764 22.3787 22.3863 22.4834 22.4823 22.4795 22.4762 22.4722 22.4676 22.4626 22.4575 22.4529 22.4492 22.447 22.4465 22.4473 22.4485 22.4481 22.4484 23.1165 23.355 23.5303 23.6622 23.7431 23.7658 23.7275 23.6327 23.4947 23.337 23.1933 23.0984 22.4674 22.4716 22.4691 22.4672 22.465 22.4624 22.4594 22.4561 22.4526 22.4491 22.4459 22.4441 22.4527 22.4498 22.4465 22.4432 22.4399 22.4366 22.4336 22.4308 22.4284 22.4266 22.4252 22.4243 22.4237 22.423 22.4214 22.4197 22.6541 22.7531 22.8381 22.9125 22.9706 23.0058 23.0132 22.9909 22.9422 22.8772 22.8125 22.7684 22.4681 22.468 22.4677 22.4674 22.467 22.4664 22.4658 22.4652 22.4644 22.4635 22.4625 22.4619 22.4688 22.4667 22.4638 22.4605 22.4568 22.4529 22.4488 22.4446 22.4405 22.4367 22.4331 22.4297 22.4266 22.4235 22.4202 22.4167 22.4949 22.533 22.5701 22.6063 22.6384 22.6625 22.6751 22.6738 22.6587 22.6333 22.6055 22.5859 22.4605 22.4619 22.4606 22.4595 22.4583 22.4569 22.4553 22.4536 22.4517 22.4498 22.4478 22.4459 22.4454 22.4433 22.4412 22.439 22.4368 22.4346 22.4324 22.4304 22.4284 22.4267 22.4249 22.4232 22.4214 22.4195 22.4173 22.4147 22.4407 22.4541 22.4686 22.4841 22.4991 22.5118 22.5202 22.5228 22.5189 22.5095 22.4981 22.4897 22.4743 22.4752 22.4744 22.4739 22.4732 22.4724 22.4714 22.4703 22.4689 22.4674 22.4656 22.4639 22.4622 22.4599 22.4571 22.4541 22.4508 22.4473 22.4438 22.4403 22.4369 22.4337 22.4306 22.4276 22.4247 22.4219 22.4191 22.4161 22.4228 22.4262 22.4308 22.4363 22.4421 22.4476 22.4518 22.4537 22.4529 22.4495 22.4448 22.4413 22.4564 22.4567 22.4559 22.4551 22.4543 22.4533 22.4522 22.451 22.4498 22.4486 22.4472 22.4459 22.445 22.4436 22.4421 22.4404 22.4387 22.4368 22.4349 22.4329 22.431 22.4291 22.4272 22.4252 22.4232 22.4211 22.4188 22.4163 22.4167 22.4165 22.417 22.4181 22.4196 22.4213 22.4227 22.4234 22.423 22.4217 22.4197 22.4182 22.4719 22.4733 22.4722 22.4715 22.4706 22.4696 22.4684 22.467 22.4655 22.4639 22.462 22.4603 22.4579 22.4557 22.4533 22.4506 22.4477 22.4447 22.4416 22.4385 22.4355 22.4327 22.4299 22.4273 22.4247 22.4222 22.4196 22.417 22.415 22.4134 22.4122 22.4115 22.4111 22.411 22.4109 22.4107 22.4102 22.4094 22.4084 22.4077 22.455 22.4545 22.4542 22.4537 22.4532 22.4526 22.4519 22.4511 22.4504 22.4495 22.4486 22.4477 22.4471 22.4459 22.4446 22.4431 22.4414 22.4396 22.4376 22.4355 22.4334 22.4313 22.4291 22.4269 22.4246 22.4223 22.4199 22.4173 22.4147 22.4125 22.4108 22.4093 22.4081 22.4071 22.4063 22.4056 22.4049 22.4042 22.4036 22.4032 22.4678 22.4689 22.4679 22.4672 22.4663 22.4653 22.4641 22.4629 22.4615 22.46 22.4584 22.4568 22.4548 22.4529 22.4508 22.4485 22.4459 22.4433 22.4406 22.4379 22.4352 22.4327 22.4302 22.4277 22.4253 22.4228 22.4204 22.4177 22.4148 22.4125 22.4105 22.4087 22.4072 22.4058 22.4046 22.4037 22.4028 22.4022 22.4017 22.4013 22.4561 22.4554 22.4552 22.4549 22.4545 22.4541 22.4536 22.4531 22.4525 22.4518 22.451 22.4503 22.4496 22.4485 22.4471 22.4455 22.4437 22.4417 22.4395 22.4372 22.4349 22.4326 22.4303 22.4279 22.4256 22.4232 22.4207 22.418 22.4151 22.4126 22.4105 22.4087 22.407 22.4055 22.4041 22.403 22.4021 22.4014 22.4009 22.4006 22.4638 22.4644 22.4637 22.463 22.4623 22.4614 22.4604 22.4594 22.4582 22.457 22.4556 22.4543 22.4528 22.4512 22.4494 22.4474 22.4452 22.4429 22.4405 22.438 22.4355 22.4331 22.4307 22.4283 22.4259 22.4235 22.421 22.4183 22.4153 22.4129 22.4107 22.4088 22.407 22.4054 22.404 22.4028 22.4019 22.4012 22.4007 22.4004 22.4581 22.4576 22.4573 22.457 22.4567 22.4562 22.4557 22.4552 22.4545 22.4538 22.4529 22.4521 22.4512 22.4499 22.4485 22.4467 22.4448 22.4427 22.4404 22.4381 22.4357 22.4333 22.431 22.4286 22.4262 22.4237 22.4212 22.4186 22.4156 22.4131 22.4109 22.409 22.4071 22.4055 22.4041 22.4028 22.4019 22.4011 22.4006 22.4003 22.4609 22.4611 22.4605 22.46 22.4594 22.4588 22.458 22.4571 22.4562 22.4552 22.4541 22.4531 22.4519 22.4505 22.4489 22.4471 22.4451 22.4429 22.4406 22.4383 22.4359 22.4335 22.4312 22.4288 22.4264 22.424 22.4214 22.4188 22.4158 22.4133 22.4111 22.4091 22.4073 22.4056 22.4041 22.4029 22.4019 22.4011 22.4006 22.4003 22.4589 22.4587 22.4584 22.458 22.4576 22.4571 22.4565 22.4558 22.4551 22.4543 22.4534 22.4524 22.4514 22.4502 22.4487 22.447 22.445 22.4429 22.4406 22.4383 22.436 22.4337 22.4313 22.4289 22.4265 22.4241 22.4216 22.4189 22.416 22.4135 22.4113 22.4093 22.4074 22.4057 22.4042 22.403 22.4019 22.4011 22.4006 22.4003 22.4592 22.4592 22.4587 22.4583 22.4578 22.4573 22.4566 22.4559 22.4551 22.4543 22.4533 22.4523 22.4513 22.45 22.4486 22.4468 22.4449 22.4428 22.4406 22.4383 22.436 22.4337 22.4313 22.429 22.4266 22.4242 22.4217 22.419 22.4161 22.4136 22.4114 22.4094 22.4075 22.4058 22.4043 22.403 22.402 22.4012 22.4006 22.4003 22.4583 22.4583 22.4579 22.4575 22.4571 22.4565 22.4559 22.4553 22.4545 22.4537 22.4528 22.4519 22.4509 22.4497 22.4482 22.4466 22.4447 22.4426 22.4404 22.4382 22.4359 22.4336 22.4313 22.429 22.4266 22.4242 22.4217 22.4191 22.4162 22.4137 22.4115 22.4095 22.4076 22.4059 22.4044 22.4031 22.402 22.4012 22.4007 22.4003 22.4577 22.4577 22.4573 22.4569 22.4565 22.4559 22.4553 22.4547 22.4539 22.4532 22.4522 22.4514 22.4504 22.4492 22.4478 22.4462 22.4443 22.4423 22.4402 22.438 22.4357 22.4335 22.4312 22.4289 22.4265 22.4241 22.4217 22.4191 22.4162 22.4138 22.4115 22.4095 22.4076 22.4059 22.4044 22.4031 22.4021 22.4012 22.4007 22.4003 22.4568 22.4569 22.4564 22.456 22.4556 22.4551 22.4545 22.4539 22.4532 22.4524 22.4515 22.4507 22.4498 22.4486 22.4473 22.4456 22.4438 22.4419 22.4398 22.4376 22.4354 22.4332 22.4309 22.4287 22.4264 22.424 22.4216 22.419 22.4162 22.4137 22.4115 22.4095 22.4077 22.406 22.4044 22.4031 22.4021 22.4013 22.4007 22.4003 22.4558 22.4559 22.4554 22.455 22.4546 22.4541 22.4536 22.4529 22.4523 22.4515 22.4507 22.4499 22.449 22.4479 22.4465 22.445 22.4432 22.4413 22.4392 22.4371 22.4349 22.4328 22.4306 22.4284 22.4261 22.4238 22.4214 22.4188 22.4161 22.4137 22.4115 22.4095 22.4076 22.406 22.4045 22.4032 22.4021 22.4013 22.4007 22.4004 22.4546 22.4547 22.4542 22.4539 22.4534 22.453 22.4524 22.4518 22.4512 22.4504 22.4496 22.4489 22.448 22.447 22.4457 22.4441 22.4424 22.4405 22.4386 22.4365 22.4344 22.4323 22.4301 22.4279 22.4257 22.4235 22.4211 22.4186 22.4159 22.4135 22.4114 22.4094 22.4076 22.4059 22.40