# vtk DataFile Version 2.0
Presion
ASCII

DATASET STRUCTURED_GRID
DIMENSIONS   40   40   20

POINTS   32000   double
0.003725   0.00025625   0.015
0.011175   0.00025625   0.015
0.018625   0.00025625   0.015
0.026075   0.00025625   0.015
0.033525   0.00025625   0.015
0.040975   0.00025625   0.015
0.048425   0.00025625   0.015
0.055875   0.00025625   0.015
0.063325   0.00025625   0.015
0.070775   0.00025625   0.015
0.078225   0.00025625   0.015
0.085675   0.00025625   0.015
0.093125   0.00025625   0.015
0.100575   0.00025625   0.015
0.108025   0.00025625   0.015
0.115475   0.00025625   0.015
0.122925   0.00025625   0.015
0.130375   0.00025625   0.015
0.137825   0.00025625   0.015
0.145275   0.00025625   0.015
0.152725   0.00025625   0.015
0.160175   0.00025625   0.015
0.167625   0.00025625   0.015
0.175075   0.00025625   0.015
0.182525   0.00025625   0.015
0.189975   0.00025625   0.015
0.197425   0.00025625   0.015
0.204875   0.00025625   0.015
0.212325   0.00025625   0.015
0.219775   0.00025625   0.015
0.227225   0.00025625   0.015
0.234675   0.00025625   0.015
0.242125   0.00025625   0.015
0.249575   0.00025625   0.015
0.257025   0.00025625   0.015
0.264475   0.00025625   0.015
0.271925   0.00025625   0.015
0.279375   0.00025625   0.015
0.286825   0.00025625   0.015
0.294275   0.00025625   0.015
0.003725   0.00076875   0.015
0.011175   0.00076875   0.015
0.018625   0.00076875   0.015
0.026075   0.00076875   0.015
0.033525   0.00076875   0.015
0.040975   0.00076875   0.015
0.048425   0.00076875   0.015
0.055875   0.00076875   0.015
0.063325   0.00076875   0.015
0.070775   0.00076875   0.015
0.078225   0.00076875   0.015
0.085675   0.00076875   0.015
0.093125   0.00076875   0.015
0.100575   0.00076875   0.015
0.108025   0.00076875   0.015
0.115475   0.00076875   0.015
0.122925   0.00076875   0.015
0.130375   0.00076875   0.015
0.137825   0.00076875   0.015
0.145275   0.00076875   0.015
0.152725   0.00076875   0.015
0.160175   0.00076875   0.015
0.167625   0.00076875   0.015
0.175075   0.00076875   0.015
0.182525   0.00076875   0.015
0.189975   0.00076875   0.015
0.197425   0.00076875   0.015
0.204875   0.00076875   0.015
0.212325   0.00076875   0.015
0.219775   0.00076875   0.015
0.227225   0.00076875   0.015
0.234675   0.00076875   0.015
0.242125   0.00076875   0.015
0.249575   0.00076875   0.015
0.257025   0.00076875   0.015
0.264475   0.00076875   0.015
0.271925   0.00076875   0.015
0.279375   0.00076875   0.015
0.286825   0.00076875   0.015
0.294275   0.00076875   0.015
0.003725   0.00128125   0.015
0.011175   0.00128125   0.015
0.018625   0.00128125   0.015
0.026075   0.00128125   0.015
0.033525   0.00128125   0.015
0.040975   0.00128125   0.015
0.048425   0.00128125   0.015
0.055875   0.00128125   0.015
0.063325   0.00128125   0.015
0.070775   0.00128125   0.015
0.078225   0.00128125   0.015
0.085675   0.00128125   0.015
0.093125   0.00128125   0.015
0.100575   0.00128125   0.015
0.108025   0.00128125   0.015
0.115475   0.00128125   0.015
0.122925   0.00128125   0.015
0.130375   0.00128125   0.015
0.137825   0.00128125   0.015
0.145275   0.00128125   0.015
0.152725   0.00128125   0.015
0.160175   0.00128125   0.015
0.167625   0.00128125   0.015
0.175075   0.00128125   0.015
0.182525   0.00128125   0.015
0.189975   0.00128125   0.015
0.197425   0.00128125   0.015
0.204875   0.00128125   0.015
0.212325   0.00128125   0.015
0.219775   0.00128125   0.015
0.227225   0.00128125   0.015
0.234675   0.00128125   0.015
0.242125   0.00128125   0.015
0.249575   0.00128125   0.015
0.257025   0.00128125   0.015
0.264475   0.00128125   0.015
0.271925   0.00128125   0.015
0.279375   0.00128125   0.015
0.286825   0.00128125   0.015
0.294275   0.00128125   0.015
0.003725   0.00179375   0.015
0.011175   0.00179375   0.015
0.018625   0.00179375   0.015
0.026075   0.00179375   0.015
0.033525   0.00179375   0.015
0.040975   0.00179375   0.015
0.048425   0.00179375   0.015
0.055875   0.00179375   0.015
0.063325   0.00179375   0.015
0.070775   0.00179375   0.015
0.078225   0.00179375   0.015
0.085675   0.00179375   0.015
0.093125   0.00179375   0.015
0.100575   0.00179375   0.015
0.108025   0.00179375   0.015
0.115475   0.00179375   0.015
0.122925   0.00179375   0.015
0.130375   0.00179375   0.015
0.137825   0.00179375   0.015
0.145275   0.00179375   0.015
0.152725   0.00179375   0.015
0.160175   0.00179375   0.015
0.167625   0.00179375   0.015
0.175075   0.00179375   0.015
0.182525   0.00179375   0.015
0.189975   0.00179375   0.015
0.197425   0.00179375   0.015
0.204875   0.00179375   0.015
0.212325   0.00179375   0.015
0.219775   0.00179375   0.015
0.227225   0.00179375   0.015
0.234675   0.00179375   0.015
0.242125   0.00179375   0.015
0.249575   0.00179375   0.015
0.257025   0.00179375   0.015
0.264475   0.00179375   0.015
0.271925   0.00179375   0.015
0.279375   0.00179375   0.015
0.286825   0.00179375   0.015
0.294275   0.00179375   0.015
0.003725   0.00230625   0.015
0.011175   0.00230625   0.015
0.018625   0.00230625   0.015
0.026075   0.00230625   0.015
0.033525   0.00230625   0.015
0.040975   0.00230625   0.015
0.048425   0.00230625   0.015
0.055875   0.00230625   0.015
0.063325   0.00230625   0.015
0.070775   0.00230625   0.015
0.078225   0.00230625   0.015
0.085675   0.00230625   0.015
0.093125   0.00230625   0.015
0.100575   0.00230625   0.015
0.108025   0.00230625   0.015
0.115475   0.00230625   0.015
0.122925   0.00230625   0.015
0.130375   0.00230625   0.015
0.137825   0.00230625   0.015
0.145275   0.00230625   0.015
0.152725   0.00230625   0.015
0.160175   0.00230625   0.015
0.167625   0.00230625   0.015
0.175075   0.00230625   0.015
0.182525   0.00230625   0.015
0.189975   0.00230625   0.015
0.197425   0.00230625   0.015
0.204875   0.00230625   0.015
0.212325   0.00230625   0.015
0.219775   0.00230625   0.015
0.227225   0.00230625   0.015
0.234675   0.00230625   0.015
0.242125   0.00230625   0.015
0.249575   0.00230625   0.015
0.257025   0.00230625   0.015
0.264475   0.00230625   0.015
0.271925   0.00230625   0.015
0.279375   0.00230625   0.015
0.286825   0.00230625   0.015
0.294275   0.00230625   0.015
0.003725   0.00281875   0.015
0.011175   0.00281875   0.015
0.018625   0.00281875   0.015
0.026075   0.00281875   0.015
0.033525   0.00281875   0.015
0.040975   0.00281875   0.015
0.048425   0.00281875   0.015
0.055875   0.00281875   0.015
0.063325   0.00281875   0.015
0.070775   0.00281875   0.015
0.078225   0.00281875   0.015
0.085675   0.00281875   0.015
0.093125   0.00281875   0.015
0.100575   0.00281875   0.015
0.108025   0.00281875   0.015
0.115475   0.00281875   0.015
0.122925   0.00281875   0.015
0.130375   0.00281875   0.015
0.137825   0.00281875   0.015
0.145275   0.00281875   0.015
0.152725   0.00281875   0.015
0.160175   0.00281875   0.015
0.167625   0.00281875   0.015
0.175075   0.00281875   0.015
0.182525   0.00281875   0.015
0.189975   0.00281875   0.015
0.197425   0.00281875   0.015
0.204875   0.00281875   0.015
0.212325   0.00281875   0.015
0.219775   0.00281875   0.015
0.227225   0.00281875   0.015
0.234675   0.00281875   0.015
0.242125   0.00281875   0.015
0.249575   0.00281875   0.015
0.257025   0.00281875   0.015
0.264475   0.00281875   0.015
0.271925   0.00281875   0.015
0.279375   0.00281875   0.015
0.286825   0.00281875   0.015
0.294275   0.00281875   0.015
0.003725   0.00333125   0.015
0.011175   0.00333125   0.015
0.018625   0.00333125   0.015
0.026075   0.00333125   0.015
0.033525   0.00333125   0.015
0.040975   0.00333125   0.015
0.048425   0.00333125   0.015
0.055875   0.00333125   0.015
0.063325   0.00333125   0.015
0.070775   0.00333125   0.015
0.078225   0.00333125   0.015
0.085675   0.00333125   0.015
0.093125   0.00333125   0.015
0.100575   0.00333125   0.015
0.108025   0.00333125   0.015
0.115475   0.00333125   0.015
0.122925   0.00333125   0.015
0.130375   0.00333125   0.015
0.137825   0.00333125   0.015
0.145275   0.00333125   0.015
0.152725   0.00333125   0.015
0.160175   0.00333125   0.015
0.167625   0.00333125   0.015
0.175075   0.00333125   0.015
0.182525   0.00333125   0.015
0.189975   0.00333125   0.015
0.197425   0.00333125   0.015
0.204875   0.00333125   0.015
0.212325   0.00333125   0.015
0.219775   0.00333125   0.015
0.227225   0.00333125   0.015
0.234675   0.00333125   0.015
0.242125   0.00333125   0.015
0.249575   0.00333125   0.015
0.257025   0.00333125   0.015
0.264475   0.00333125   0.015
0.271925   0.00333125   0.015
0.279375   0.00333125   0.015
0.286825   0.00333125   0.015
0.294275   0.00333125   0.015
0.003725   0.00384375   0.015
0.011175   0.00384375   0.015
0.018625   0.00384375   0.015
0.026075   0.00384375   0.015
0.033525   0.00384375   0.015
0.040975   0.00384375   0.015
0.048425   0.00384375   0.015
0.055875   0.00384375   0.015
0.063325   0.00384375   0.015
0.070775   0.00384375   0.015
0.078225   0.00384375   0.015
0.085675   0.00384375   0.015
0.093125   0.00384375   0.015
0.100575   0.00384375   0.015
0.108025   0.00384375   0.015
0.115475   0.00384375   0.015
0.122925   0.00384375   0.015
0.130375   0.00384375   0.015
0.137825   0.00384375   0.015
0.145275   0.00384375   0.015
0.152725   0.00384375   0.015
0.160175   0.00384375   0.015
0.167625   0.00384375   0.015
0.175075   0.00384375   0.015
0.182525   0.00384375   0.015
0.189975   0.00384375   0.015
0.197425   0.00384375   0.015
0.204875   0.00384375   0.015
0.212325   0.00384375   0.015
0.219775   0.00384375   0.015
0.227225   0.00384375   0.015
0.234675   0.00384375   0.015
0.242125   0.00384375   0.015
0.249575   0.00384375   0.015
0.257025   0.00384375   0.015
0.264475   0.00384375   0.015
0.271925   0.00384375   0.015
0.279375   0.00384375   0.015
0.286825   0.00384375   0.015
0.294275   0.00384375   0.015
0.003725   0.00435625   0.015
0.011175   0.00435625   0.015
0.018625   0.00435625   0.015
0.026075   0.00435625   0.015
0.033525   0.00435625   0.015
0.040975   0.00435625   0.015
0.048425   0.00435625   0.015
0.055875   0.00435625   0.015
0.063325   0.00435625   0.015
[...]
POINT_DATA   32000
SCALARS Presion double
LOOKUP_TABLE   Presion

0 0 0 0 0 0 0 0 0 0 0 0 0 0 0 0 0 0 0 0 0 0 0 0 0 0 0 0 0 0 0 0 0 0 0 0 0 0 0 0 -0.00702608 -0.00867791 -0.00748127 -0.00748101 -0.00736885 -0.00728265 -0.00718767 -0.00708449 -0.00698281 -0.0068996 -0.00682111 -0.00663964 -0.00515078 -0.00582717 -0.00517855 -0.0041239 -0.0028609 -0.00163435 0.000217177 0.00227669 0.00296427 0.00231295 0.00123751 0.000258612 -0.00051149 -0.00107578 -0.00136754 -0.00106693 -0.00119949 -0.000133018 0.000708548 0.00116731 0.00134818 0.00145192 0.00157403 0.00172036 0.00185945 0.00195597 0.0019944 0.00199436 -6.33355e-05 -0.00171651 -0.000601567 -0.000579458 -0.000451589 -0.000350206 -0.000263511 -0.000205455 -0.000194353 -0.000249343 -0.000371125 -0.000677048 6.77763e-05 -0.000466295 -0.000264687 0.00019126 0.000490834 0.000300222 0.000555119 0.0016613 0.00249077 0.00257462 0.00225834 0.00187563 0.00157256 0.00137423 0.00124075 0.00118784 0.00128896 0.00158439 0.00200312 0.00238915 0.00268194 0.00292522 0.00314959 0.00335129 0.00350964 0.00360481 0.00363625 0.00363369 0.000887164 -0.00072602 0.000318634 0.000378018 0.000476649 0.000531826 0.00056259 0.000570271 0.000562366 0.000557042 0.000603106 0.000708343 0.00143736 0.00142737 0.00219755 0.00316014 0.00401536 0.00442382 0.0049741 0.00582834 0.00610659 0.00563709 0.00484266 0.00403792 0.00337536 0.00297086 0.00291961 0.00329348 0.00332308 0.00402721 0.00452085 0.00478124 0.00488376 0.00494759 0.00502934 0.00512758 0.00521639 0.00526978 0.00528101 0.00527318 0.00624612 0.00527584 0.00589685 0.00584957 0.00584553 0.00580291 0.0057232 0.00560195 0.00544283 0.00525883 0.00506949 0.0047421 0.00489542 0.00453196 0.00446143 0.00444641 0.00440675 0.00435793 0.00496537 0.00620463 0.00700471 0.00704834 0.00671063 0.00630302 0.00591777 0.00555346 0.00524184 0.00510635 0.00514256 0.00542914 0.00584223 0.00618446 0.00640674 0.0065631 0.00669478 0.00680751 0.00688832 0.00692522 0.00692372 0.00691222 0.00778993 0.00643891 0.0071589 0.00717012 0.00721061 0.00723014 0.00724383 0.00725702 0.0072787 0.00732044 0.00739323 0.00734466 0.0076521 0.00768661 0.00801117 0.00832038 0.0084181 0.00827221 0.00854909 0.00931518 0.00966001 0.00930165 0.00859779 0.00791408 0.00745041 0.00725997 0.00729669 0.00749484 0.00754974 0.00791637 0.00820605 0.0083661 0.00842256 0.00845017 0.00848797 0.00853506 0.00857223 0.00858182 0.00856605 0.00855097 0.0115765 0.0108672 0.0111963 0.0111086 0.0110453 0.0109553 0.0108344 0.0106751 0.0104742 0.0102341 0.00996122 0.00955505 0.00886168 0.00847958 0.00844051 0.00862448 0.00885696 0.00903542 0.00966544 0.0107507 0.0114452 0.0114622 0.0110701 0.0105258 0.00996426 0.00947179 0.00913116 0.00903781 0.0090097 0.00930617 0.00966386 0.00992596 0.0100662 0.0101412 0.0101928 0.0102303 0.0102466 0.0102359 0.0102076 0.0101894 0.0142655 0.0129171 0.0135384 0.0135356 0.0135508 0.0135421 0.0135079 0.0134412 0.0133419 0.0132165 0.0130551 0.0126157 0.0125902 0.0122697 0.0121785 0.0122013 0.0121862 0.0120787 0.0123541 0.0130146 0.0133143 0.0130493 0.0125445 0.0120894 0.0117848 0.0116121 0.0115258 0.0115041 0.0115038 0.0116626 0.0118373 0.0119379 0.0119579 0.0119476 0.0119395 0.0119349 0.0119209 0.0118888 0.0118486 0.0118275 0.0164987 0.015982 0.0162152 0.01609 0.0159565 0.0157746 0.015535 0.0152352 0.0148901 0.0145337 0.0142098 0.0139041 0.0132425 0.012977 0.0130468 0.0132861 0.0135448 0.0137597 0.0143433 0.0152669 0.015794 0.0156586 0.0151128 0.0144443 0.0138273 0.0133514 0.0130638 0.0129983 0.0129329 0.0131742 0.0134386 0.013609 0.0136707 0.0136735 0.0136559 0.0136296 0.0135916 0.0135402 0.013489 0.0134653 0.0196522 0.0186672 0.0190431 0.0189465 0.0188551 0.0187342 0.0185734 0.0183637 0.018106 0.01781 0.0174706 0.0169243 0.0167264 0.0162822 0.0160968 0.0160467 0.0159903 0.0158961 0.0161686 0.0168164 0.0172144 0.0171423 0.0168127 0.016433 0.0160864 0.0157865 0.0155404 0.0153695 0.0152925 0.0153456 0.0154503 0.0155034 0.0154856 0.015435 0.0153793 0.0153229 0.0152602 0.0151903 0.0151288 0.0151027 0.0208665 0.0205821 0.0206185 0.0204383 0.0202509 0.0200342 0.0197855 0.0195065 0.0192085 0.0189121 0.0186351 0.0183504 0.0180479 0.0177982 0.0178503 0.0180542 0.0182612 0.0184126 0.0188357 0.0194944 0.0197896 0.0195205 0.0189272 0.0182743 0.0177102 0.0172941 0.0170409 0.0169489 0.0168475 0.0169923 0.0171552 0.0172389 0.0172295 0.0171692 0.0170927 0.0170119 0.0169264 0.0168392 0.0167681 0.0167398 0.0242502 0.0236465 0.023789 0.0236284 0.0234578 0.0232521 0.0230003 0.0226967 0.0223463 0.0219633 0.0215518 0.0210201 0.0205803 0.0201207 0.0199146 0.0198702 0.0198772 0.0199153 0.0203005 0.0210035 0.0214613 0.0214415 0.0211052 0.0206476 0.0201778 0.0197489 0.0193979 0.0191536 0.0190112 0.0190042 0.0190528 0.0190596 0.0190015 0.0189075 0.0188034 0.0186976 0.0185904 0.0184868 0.0184067 0.0183764 0.0255781 0.0250282 0.0250792 0.0249447 0.0247963 0.0246236 0.0244234 0.0241944 0.0239432 0.023682 0.0234143 0.0231068 0.0228743 0.022599 0.0225436 0.0226044 0.022655 0.0226631 0.0229094 0.0233697 0.0235527 0.0232814 0.0227474 0.0221694 0.0216658 0.0212758 0.0210053 0.0208496 0.0207038 0.0207483 0.0208161 0.0208214 0.0207502 0.0206362 0.0205089 0.0203799 0.0202522 0.0201333 0.0200448 0.0200127 0.0283641 0.0280663 0.0280098 0.0277929 0.027559 0.0272911 0.0269807 0.0266259 0.0262349 0.0258231 0.0253954 0.0248883 0.0245433 0.024139 0.0240065 0.0240511 0.0241634 0.0243111 0.0247302 0.0253674 0.025735 0.0256279 0.0251941 0.0246327 0.0240709 0.0235742 0.0231774 0.0228966 0.0227031 0.022648 0.0226439 0.0226023 0.0224999 0.0223609 0.0222102 0.022059 0.021912 0.0217786 0.0216824 0.0216485 0.0305817 0.029973 0.0300073 0.0298804 0.0297294 0.029549 0.0293336 0.0290803 0.028793 0.0284812 0.028147 0.0277704 0.0273167 0.0269644 0.0267736 0.0266957 0.0266379 0.0265867 0.0267732 0.0271646 0.0273372 0.0271197 0.0266569 0.0261298 0.0256412 0.0252309 0.024912 0.0246842 0.0244878 0.0244415 0.0244258 0.0243644 0.0242405 0.0240797 0.0239071 0.023735 0.0235696 0.0234228 0.0233193 0.0232838 0.0324036 0.0320797 0.0319573 0.0317382 0.0315021 0.0312385 0.0309419 0.0306126 0.0302592 0.0298947 0.0295195 0.0290817 0.0288932 0.0285614 0.028474 0.0285387 0.0286499 0.0287757 0.0291032 0.0295778 0.0297912 0.0295737 0.029064 0.0284506 0.0278552 0.0273368 0.0269212 0.0266146 0.02638 0.0262767 0.0262173 0.0261242 0.025976 0.0257934 0.0255999 0.0254078 0.0252253 0.0250659 0.0249557 0.0249187 0.0352778 0.034911 0.0348154 0.0346343 0.034423 0.0341766 0.0338882 0.0335555 0.0331838 0.0327841 0.0323607 0.0319 0.0313415 0.0309362 0.030692 0.0305751 0.0305083 0.0304812 0.030676 0.0310481 0.0312249 0.0310407 0.0306075 0.0300845 0.0295725 0.0291178 0.0287408 0.0284461 0.0281993 0.0280783 0.0279934 0.0278753 0.027705 0.0275019 0.0272885 0.0270777 0.026879 0.0267079 0.0265914 0.026553 0.0368012 0.0362844 0.036197 0.03601 0.0358041 0.0355732 0.0353128 0.0350227 0.0347092 0.034381 0.0340359 0.0336398 0.0334106 0.0330906 0.0329587 0.0329491 0.0329723 0.0330064 0.0332067 0.0335235 0.0336157 0.0333379 0.0328081 0.0321919 0.0315972 0.031075 0.0306453 0.0303097 0.0300363 0.0298804 0.0297641 0.0296199 0.029428 0.0292053 0.028973 0.0287445 0.0285309 0.0283488 0.0282266 0.0281869 0.0394617 0.039261 0.0390528 0.0388188 0.0385579 0.0382636 0.0379294 0.0375543 0.0371446 0.036711 0.0362565 0.0357642 0.0352477 0.0348361 0.0345942 0.0344885 0.03445 0.0344657 0.0346737 0.0350165 0.0351657 0.0349687 0.0345206 0.0339698 0.0334179 0.0329165 0.0324891 0.0321418 0.0318505 0.0316692 0.0315257 0.0313574 0.0311449 0.0309036 0.0306534 0.0304085 0.0301808 0.0299886 0.0298611 0.0298202 0.0414089 0.0408709 0.0407717 0.0405899 0.0403847 0.0401523 0.039888 0.0395905 0.0392643 0.0389162 0.0385438 0.0381284 0.0377571 0.0373916 0.0371709 0.0370569 0.0369823 0.0369379 0.0370531 0.0372774 0.0373148 0.0370299 0.0365156 0.0359147 0.0353245 0.0347932 0.0343406 0.0339695 0.0336577 0.0334496 0.0332793 0.0330877 0.0328557 0.0325967 0.0323299 0.0320695 0.0318288 0.0316273 0.031495 0.0314529 0.043436 0.0432172 0.042987 0.042732 0.0424523 0.042141 0.0417928 0.041408 0.0409943 0.0405621 0.0401137 0.0396336 0.0391973 0.0388178 0.0386029 0.0385174 0.0384951 0.0385202 0.0386988 0.0389708 0.0390532 0.038813 0.0383343 0.0377544 0.0371711 0.0366357 0.036171 0.0357823 0.0354523 0.0352196 0.0350244 0.0348109 0.0345604 0.0342847 0.0340023 0.0337276 0.0334749 0.033265 0.0331282 0.033085 0.0458985 0.0454896 0.0453238 0.0451158 0.0448806 0.0446131 0.0443072 0.0439608 0.0435781 0.043166 0.042725 0.0422436 0.0417414 0.0413197 0.0410359 0.0408664 0.0407572 0.0407005 0.0407948 0.0409819 0.0409984 0.0407177 0.0402152 0.0396189 0.0390214 0.0384713 0.0379905 0.0375834 0.0372356 0.0369798 0.036761 0.0365268 0.0362589 0.0359677 0.0356707 0.0353829 0.0351192 0.0349016 0.0347608 0.0347166 0.0473707 0.0470305 0.046817 0.0465698 0.046301 0.0460055 0.0456787 0.0453211 0.0449385 0.044538 0.0441193 0.0436719 0.0432722 0.0429035 0.0426743 0.0425585 0.0425007 0.0424897 0.0426105 0.0428032 0.0428216 0.0425466 0.0420491 0.0414531 0.0408502 0.0402901 0.0397954 0.0393716 0.0390071 0.0387297 0.0384888 0.0382353 0.0379511 0.0376454 0.0373351 0.0370352 0.0367616 0.036537 0.0363927 0.0363474 0.0499436 0.0497102 0.0494677 0.0492062 0.0489187 0.0485985 0.0482402 0.0478438 0.0474153 0.0469632 0.0464893 0.0459852 0.0454774 0.0450558 0.0447696 0.0445986 0.0444941 0.0444468 0.0445304 0.0446831 0.0446722 0.0443824 0.0438781 0.0432761 0.0426653 0.0420945 0.0415863 0.0411468 0.0407667 0.0404691 0.0402077 0.0399363 0.039637 0.039318 0.0389955 0.0386847 0.0384021 0.0381713 0.0380238 0.0379777 0.0514724 0.0510651 0.0508584 0.0506233 0.050364 0.0500753 0.0497524 0.0493947 0.0490071 0.0485957 0.0481609 0.0476976 0.0472551 0.0468618 0.0465951 0.0464373 0.0463424 0.0463017 0.0463802 0.0465158 0.0464901 0.0461939 0.0456869 0.0450813 0.0444638 0.0438833 0.0433627 0.0429086 0.042514 0.0421979 0.0419177 0.0416297 0.0413165 0.0409854 0.0406519 0.0403313 0.0400407 0.0398045 0.0396542 0.0396072 0.0536576 0.0534005 0.0531458 0.0528736 0.0525785 0.0522538 0.0518946 0.051501 0.0510784 0.0506341 0.0501691 0.0496788 0.0491985 0.0487875 0.0485015 0.0483249 0.0482151 0.0481634 0.0482255 0.0483381 0.0482945 0.0479899 0.0474792 0.0468696 0.0462458 0.0456563 0.0451243 0.0446569 0.0442489 0.0439159 0.0436184 0.0433153 0.0429895 0.0426476 0.0423043 0.041975 0.0416775 0.0414366 0.0412839 0.0412361 0.0554434 0.0550987 0.0548623 0.0546067 0.0543269 0.0540168 0.0536718 0.0532917 0.0528816 0.0524477 0.0519913 0.0515101 0.0510411 0.0506335 0.0503454 0.0501638 0.0500491 0.0499931 0.050044 0.0501377 0.0500789 0.0497671 0.0492533 0.0486403 0.0480108 0.0474132 0.0468708 0.0463913 0.0459713 0.0456229 0.0453099 0.0449932 0.0446562 0.0443046 0.0439526 0.0436158 0.0433123 0.0430675 0.0429128 0.0428643 0.0573518 0.0570463 0.0567937 0.0565248 0.056233 0.0559117 0.0555561 0.0551664 0.0547475 0.0543056 0.0538421 0.0533557 0.0528804 0.0524691 0.0521742 0.0519843 0.0518627 0.0518011 0.0518407 0.0519169 0.0518439 0.0515255 0.051009 0.0503929 0.0497585 0.0491536 0.048602 0.0481118 0.047681 0.047319 0.046992 0.0466632 0.0463163 0.0459564 0.045597 0.0452538 0.0449453 0.0446973 0.044541 0.0444917 0.0591739 0.0588568 0.0586031 0.0583343 0.0580424 0.0577208 0.0573649 0.0569748 0.0565553 0.0561125 0.0556478 0.0551613 0.0546856 0.0542731 0.0539736 0.0537774 0.0536503 0.0535842 0.053614 0.0536745 0.0535889 0.0532647 0.0527458 0.0521273 0.0514886 0.0508775 0.0503179 0.0498183 0.049378 0.049004 0.0486649 0.0483255 0.0479701 0.047603 0.0472375 0.046889 0.0465765 0.0463259 0.0461683 0.0461184 0.0609764 0.0606642 0.0604056 0.0601332 0.059838 0.0595133 0.0591547 0.0587621 0.0583403 0.0578952 0.0574284 0.0569409 0.056464 0.0560502 0.0557465 0.0555446 0.0554127 0.0553427 0.0553638 0.0554104 0.0553138 0.0549844 0.0544637 0.0538434 0.0532013 0.052585 0.0520185 0.0515109 0.0510624 0.0506781 0.0503285 0.0499803 0.0496177 0.0492448 0.0488742 0.0485215 0.0482059 0.0479534 0.0477949 0.0477443 0.0627424 0.0624314 0.0621698 0.0618952 0.0615981 0.0612716 0.0609112 0.0605171 0.0600939 0.0596474 0.0591792 0.0586913 0.0582139 0.0577993 0.0574922 0.0572857 0.0571499 0.0570766 0.0570902 0.0571248 0.0570185 0.0566849 0.056163 0.0555414 0.0548966 0.0542762 0.0537041 0.05319 0.0527346 0.0523417 0.0519833 0.0516276 0.0512593 0.0508817 0.0505073 0.0501514 0.0498335 0.0495797 0.0494206 0.0493695 0.0644764 0.0641676 0.0639032 0.0636268 0.063328 0.063 0.0626382 0.0622429 0.0618187 0.061371 0.0609018 0.0604138 0.0599363 0.0595213 0.0592115 0.0590013 0.0588623 0.0587865 0.0587938 0.0588181 0.0587036 0.0583667 0.057844 0.0572218 0.0565753 0.0559517 0.0553753 0.054856 0.0543951 0.0539951 0.0536297 0.053268 0.0528952 0.0525141 0.0521369 0.0517789 0.0514596 0.0512051 0.0510455 0.0509939 0.0661797 0.0658729 0.0656064 0.0653286 0.0650285 0.0646994 0.0643366 0.0639405 0.0635156 0.0630672 0.0625974 0.0621096 0.0616324 0.0612173 0.0609056 0.0606924 0.0605511 0.0604734 0.0604758 0.0604915 0.0603701 0.0600307 0.0595079 0.0588856 0.0582382 0.0576125 0.0570329 0.0565096 0.0560446 0.0556391 0.0552681 0.0549019 0.0545259 0.0541425 0.0537635 0.0534042 0.0530841 0.0528293 0.0526697 0.0526176 0.0678549 0.0675499 0.0672818 0.067003 0.0667021 0.0663722 0.0660088 0.0656122 0.0651869 0.0647381 0.0642681 0.0637808 0.0633041 0.0628893 0.0625763 0.062361 0.062218 0.0621392 0.0621376 0.0621463 0.0620196 0.0616784 0.0611559 0.0605342 0.0598865 0.0592596 0.0586781 0.0581521 0.057684 0.0572745 0.0568994 0.0565301 0.0561519 0.0557671 0.0553872 0.0550274 0.0547072 0.0544527 0.0542931 0.0542406 0.0695055 0.0692021 0.0689328 0.0686533 0.0683519 0.0680215 0.0676578 0.067261 0.0668356 0.0663868 0.0659168 0.0654301 0.0649542 0.0645399 0.0642261 0.0640095 0.0638656 0.0637862 0.0637817 0.063785 0.0636541 0.0633118 0.0627901 0.0621694 0.0615221 0.0608948 0.0603122 0.0597846 0.0593146 0.0589024 0.0585246 0.0581532 0.0577738 0.0573886 0.0570086 0.0566489 0.0563291 0.0560751 0.0559158 0.055863 0.0711362 0.0708337 0.0705635 0.0702838 0.0699822 0.0696516 0.0692877 0.0688909 0.0684656 0.0680169 0.0675472 0.0670612 0.0665862 0.0661726 0.0658585 0.065641 0.0654968 0.0654174 0.065411 0.0654101 0.0652761 0.0649333 0.0644127 0.0637933 0.0631469 0.06252 0.0619371 0.0614089 0.0609379 0.0605241 0.0601447 0.0597722 0.0593926 0.0590075 0.058628 0.058269 0.05795 0.0576967 0.0575377 0.0574848 0.0727518 0.0724496 0.072179 0.0718992 0.0715975 0.0712669 0.0709031 0.0705064 0.0700813 0.0696329 0.0691636 0.0686782 0.0682042 0.0677912 0.0674772 0.0672595 0.0671152 0.0670362 0.0670286 0.0670249 0.0668888 0.0665459 0.0660265 0.0654085 0.0647633 0.0641372 0.0635548 0.0630266 0.0625555 0.062141 0.0617609 0.0613882 0.0610089 0.0606245 0.0602459 0.0598879 0.0595699 0.0593175 0.0591591 0.0591061 0.0743578 0.0740552 0.0737844 0.0735047 0.0732031 0.0728725 0.0725088 0.0721124 0.0716875 0.0712394 0.0707705 0.0702857 0.0698124 0.0694002 0.0690864 0.0688687 0.0687248 0.0686463 0.0686382 0.0686327 0.0684953 0.0681526 0.0676344 0.0670178 0.0663739 0.0657488 0.0651673 0.0646397 0.0641689 0.0637545 0.0633745 0.0630022 0.0626235 0.0622402 0.0618628 0.061506 0.0611892 0.0609378 0.0607799 0.0607271 0.0759597 0.0756559 0.0753851 0.0751056 0.0748041 0.0744737 0.0741101 0.0737139 0.0732893 0.0728415 0.0723729 0.0718886 0.0714157 0.071004 0.0706906 0.0704732 0.0703297 0.070252 0.0702439 0.0702374 0.0700993 0.0697569 0.0692397 0.0686244 0.0679816 0.0673577 0.0667772 0.0662505 0.0657804 0.0653666 0.0649871 0.0646155 0.0642378 0.0638556 0.0634794 0.0631239 0.0628082 0.0625577 0.0624004 0.062348 0.0759408 0.0756353 0.0753647 0.0750854 0.074784 0.0744536 0.0740902 0.073694 0.0732696 0.0728219 0.0723535 0.0718693 0.0713964 0.070985 0.0706718 0.0704546 0.0703116 0.0702344 0.0702265 0.0702198 0.0700815 0.0697393 0.0692227 0.0686081 0.0679662 0.0673432 0.0667635 0.0662377 0.0657684 0.0653554 0.0649766 0.0646057 0.0642288 0.0638476 0.0634723 0.0631177 0.0628027 0.0625529 0.062396 0.0623441 0 0 0 0 0 0 0 0 0 0 0 0 0 0 0 0 0 0 0 0 0 0 0 0 0 0 0 0 0 0 0 0 0 0 0 0 0 0 0 0 0.00806874 0.0107486 0.00910665 0.00854715 0.00801278 0.00745708 0.006838 0.00615737 0.0054291 0.00465924 0.00370235 0.00130456 0.00279656 0.00276139 0.00175509 0.000648947 0.000578647 0.00116147 -0.000831561 -0.00469567 -0.00678231 -0.00656441 -0.00527089 -0.00368015 -0.00202075 -0.000341477 0.0012879 0.00250937 0.0013954 0.000372117 -0.00107225 -0.0013917 -0.00081592 -2.33962e-05 0.000643286 0.00110499 0.00138423 0.00152981 0.00159144 0.00160883 0.00370036 0.00467163 0.00396911 0.00368454 0.00340116 0.00311321 0.00281754 0.00252533 0.00224191 0.00195026 0.00153155 0.000259881 0.00110472 0.000727798 -0.000623182 -0.00217968 -0.00231232 -0.000495589 0.000131111 -0.00132842 -0.0023669 -0.00223092 -0.00156976 -0.000838819 -0.000113726 0.000706931 0.00174916 0.00311819 0.00134464 0.00119809 0.000337569 0.000176364 0.000706185 0.00141585 0.00202894 0.00247867 0.00277826 0.00296078 0.00305991 0.0031049 0.00681433 0.00849498 0.00724407 0.00674129 0.00627999 0.00585339 0.00546369 0.00513453 0.00486848 0.00461652 0.00417626 0.00278617 0.00409582 0.00324284 0.00126125 -0.000961828 -0.00182335 -0.000720221 -0.000288427 -0.0014246 -0.00207528 -0.00148935 -0.000194019 0.00128299 0.00264972 0.00376805 0.00459319 0.00504236 0.00380305 0.00258077 0.0014352 0.00126226 0.00185509 0.00265039 0.00334962 0.00387439 0.00423332 0.00445851 0.00458532 0.00464634 0.00586099 0.00645353 0.00594185 0.00562552 0.00531399 0.00500031 0.00469642 0.00441433 0.00413749 0.00380305 0.00325108 0.00201978 0.0025951 0.00178811 0.000556964 -0.00030105 0.000447881 0.00275354 0.00377556 0.00266052 0.00151425 0.00131083 0.00176868 0.00252919 0.00342782 0.00443018 0.00552337 0.00655571 0.00516968 0.00463164 0.00369388 0.00344659 0.00385041 0.00446329 0.00503147 0.00547929 0.00580383 0.00602179 0.00615313 0.00621964 0.00792947 0.00845871 0.00790219 0.00761557 0.0073365 0.00706441 0.00679667 0.00652875 0.00622333 0.00579869 0.00510596 0.00399449 0.00384421 0.00275422 0.00120423 0.000115332 0.000693868 0.00287935 0.00410527 0.00358828 0.00316447 0.00362144 0.00456974 0.00555339 0.00635584 0.00696649 0.00747975 0.00789339 0.00667369 0.00587917 0.00504288 0.00491081 0.00538213 0.00603145 0.00661825 0.00707336 0.00739852 0.0076153 0.00774689 0.00781438 0.00781249 0.00872718 0.00818382 0.00782911 0.00743999 0.00701506 0.00656973 0.00612605 0.00568797 0.00522754 0.00465539 0.00391336 0.00547613 0.00502659 0.00443852 0.00400623 0.00470272 0.00647895 0.0071002 0.00600212 0.00500539 0.0049528 0.00556112 0.00644234 0.0073852 0.00831115 0.00919182 0.00987778 0.00877423 0.00811336 0.00725769 0.00700001 0.00731403 0.00783186 0.0083281 0.0087291 0.00902641 0.00923079 0.00935763 0.0094234 0.00946327 0.0105784 0.00988468 0.00958902 0.00924331 0.00885838 0.00844458 0.00801487 0.00756186 0.00705713 0.00648706 0.00609507 0.00564914 0.00530863 0.00482654 0.00462871 0.00564625 0.00778885 0.00894128 0.00845297 0.00787607 0.00796592 0.00847743 0.00907458 0.00961187 0.0101063 0.0106321 0.0111106 0.0100779 0.00949174 0.00879143 0.00863024 0.00897988 0.00950418 0.00999371 0.0103814 0.0106645 0.0108582 0.0109789 0.0110417 0.00956802 0.0105341 0.00975629 0.00945404 0.00914705 0.00887331 0.00867692 0.00859338 0.00861085 0.00865117 0.00859189 0.00849909 0.00894409 0.0088015 0.00818514 0.00767136 0.0081967 0.00972824 0.0103972 0.00966541 0.00897642 0.0090506 0.00966703 0.0104787 0.0112889 0.0120438 0.0127433 0.0132331 0.012307 0.0116426 0.0108614 0.0105902 0.0108261 0.0112621 0.0116942 0.0120479 0.0123111 0.0124928 0.0126066 0.0126659 0.0111832 0.0128945 0.0119074 0.0115502 0.0111465 0.0107275 0.0103415 0.0100376 0.00983304 0.00969338 0.00955456 0.00951401 0.00998478 0.0100131 0.00980311 0.009741 0.0106258 0.0123571 0.0131775 0.012563 0.0118368 0.0117028 0.0120016 0.0124607 0.0129581 0.0134965 0.0140907 0.0145729 0.0137258 0.0131846 0.0125238 0.012309 0.0125501 0.0129702 0.0133808 0.013714 0.0139609 0.0141313 0.0142381 0.0142937 0.0137278 0.0138621 0.0134945 0.0134277 0.0133248 0.0132116 0.0131126 0.0130439 0.0129936 0.0129157 0.0127635