# vtk DataFile Version 2.0
Velocidades
ASCII

DATASET STRUCTURED_GRID
DIMENSIONS   50   50   20

POINTS   50000   double
0.00568455   0.00568455   0.025
0.0174023   0.00568455   0.025
0.0298294   0.00568455   0.025
0.0429888   0.00568455   0.025
0.0569012   0.00568455   0.025
0.0715849   0.00568455   0.025
0.0870549   0.00568455   0.025
0.103323   0.00568455   0.025
0.120395   0.00568455   0.025
0.138275   0.00568455   0.025
0.156961   0.00568455   0.025
0.176443   0.00568455   0.025
0.196707   0.00568455   0.025
0.217734   0.00568455   0.025
0.239496   0.00568455   0.025
0.261959   0.00568455   0.025
0.285082   0.00568455   0.025
0.308818   0.00568455   0.025
0.333113   0.00568455   0.025
0.357906   0.00568455   0.025
0.383132   0.00568455   0.025
0.408719   0.00568455   0.025
0.434592   0.00568455   0.025
0.460672   0.00568455   0.025
0.486877   0.00568455   0.025
0.513123   0.00568455   0.025
0.539328   0.00568455   0.025
0.565408   0.00568455   0.025
0.591281   0.00568455   0.025
0.616868   0.00568455   0.025
0.642094   0.00568455   0.025
0.666887   0.00568455   0.025
0.691182   0.00568455   0.025
0.714918   0.00568455   0.025
0.738041   0.00568455   0.025
0.760504   0.00568455   0.025
0.782266   0.00568455   0.025
0.803293   0.00568455   0.025
0.823557   0.00568455   0.025
0.843039   0.00568455   0.025
0.861725   0.00568455   0.025
0.879605   0.00568455   0.025
0.896677   0.00568455   0.025
0.912945   0.00568455   0.025
0.928415   0.00568455   0.025
0.943099   0.00568455   0.025
0.957011   0.00568455   0.025
0.970171   0.00568455   0.025
0.982598   0.00568455   0.025
0.994315   0.00568455   0.025
0.00568455   0.0174023   0.025
0.0174023   0.0174023   0.025
0.0298294   0.0174023   0.025
0.0429888   0.0174023   0.025
0.0569012   0.0174023   0.025
0.0715849   0.0174023   0.025
0.0870549   0.0174023   0.025
0.103323   0.0174023   0.025
0.120395   0.0174023   0.025
0.138275   0.0174023   0.025
0.156961   0.0174023   0.025
0.176443   0.0174023   0.025
0.196707   0.0174023   0.025
0.217734   0.0174023   0.025
0.239496   0.0174023   0.025
0.261959   0.0174023   0.025
0.285082   0.0174023   0.025
0.308818   0.0174023   0.025
0.333113   0.0174023   0.025
0.357906   0.0174023   0.025
0.383132   0.0174023   0.025
0.408719   0.0174023   0.025
0.434592   0.0174023   0.025
0.460672   0.0174023   0.025
0.486877   0.0174023   0.025
0.513123   0.0174023   0.025
0.539328   0.0174023   0.025
0.565408   0.0174023   0.025
0.591281   0.0174023   0.025
0.616868   0.0174023   0.025
0.642094   0.0174023   0.025
0.666887   0.0174023   0.025
0.691182   0.0174023   0.025
0.714918   0.0174023   0.025
0.738041   0.0174023   0.025
0.760504   0.0174023   0.025
0.782266   0.0174023   0.025
0.803293   0.0174023   0.025
0.823557   0.0174023   0.025
0.843039   0.0174023   0.025
0.861725   0.0174023   0.025
0.879605   0.0174023   0.025
0.896677   0.0174023   0.025
0.912945   0.0174023   0.025
0.928415   0.0174023   0.025
0.943099   0.0174023   0.025
0.957011   0.0174023   0.025
0.970171   0.0174023   0.025
0.982598   0.0174023   0.025
0.994315   0.0174023   0.025
0.00568455   0.0298294   0.025
0.0174023   0.0298294   0.025
0.0298294   0.0298294   0.025
0.0429888   0.0298294   0.025
0.0569012   0.0298294   0.025
0.0715849   0.0298294   0.025
0.0870549   0.0298294   0.025
0.103323   0.0298294   0.025
0.120395   0.0298294   0.025
0.138275   0.0298294   0.025
0.156961   0.0298294   0.025
0.176443   0.0298294   0.025
0.196707   0.0298294   0.025
0.217734   0.0298294   0.025
0.239496   0.0298294   0.025
0.261959   0.0298294   0.025
0.285082   0.0298294   0.025
0.308818   0.0298294   0.025
0.333113   0.0298294   0.025
0.357906   0.0298294   0.025
0.383132   0.0298294   0.025
0.408719   0.0298294   0.025
0.434592   0.0298294   0.025
0.460672   0.0298294   0.025
0.486877   0.0298294   0.025
0.513123   0.0298294   0.025
0.539328   0.0298294   0.025
0.565408   0.0298294   0.025
0.591281   0.0298294   0.025
0.616868   0.0298294   0.025
0.642094   0.0298294   0.025
0.666887   0.0298294   0.025
0.691182   0.0298294   0.025
0.714918   0.0298294   0.025
0.738041   0.0298294   0.025
0.760504   0.0298294   0.025
0.782266   0.0298294   0.025
0.803293   0.0298294   0.025
0.823557   0.0298294   0.025
0.843039   0.0298294   0.025
0.861725   0.0298294   0.025
0.879605   0.0298294   0.025
0.896677   0.0298294   0.025
0.912945   0.0298294   0.025
0.928415   0.0298294   0.025
0.943099   0.0298294   0.025
0.957011   0.0298294   0.025
0.970171   0.0298294   0.025
0.982598   0.0298294   0.025
0.994315   0.0298294   0.025
0.00568455   0.0429888   0.025
0.0174023   0.0429888   0.025
0.0298294   0.0429888   0.025
0.0429888   0.0429888   0.025
0.0569012   0.0429888   0.025
0.0715849   0.0429888   0.025
0.0870549   0.0429888   0.025
0.103323   0.0429888   0.025
0.120395   0.0429888   0.025
0.138275   0.0429888   0.025
0.156961   0.0429888   0.025
0.176443   0.0429888   0.025
0.196707   0.0429888   0.025
0.217734   0.0429888   0.025
0.239496   0.0429888   0.025
0.261959   0.0429888   0.025
0.285082   0.0429888   0.025
0.308818   0.0429888   0.025
0.333113   0.0429888   0.025
0.357906   0.0429888   0.025
0.383132   0.0429888   0.025
0.408719   0.0429888   0.025
0.434592   0.0429888   0.025
0.460672   0.0429888   0.025
0.486877   0.0429888   0.025
0.513123   0.0429888   0.025
0.539328   0.0429888   0.025
0.565408   0.0429888   0.025
0.591281   0.0429888   0.025
0.616868   0.0429888   0.025
0.642094   0.0429888   0.025
0.666887   0.0429888   0.025
0.691182   0.0429888   0.025
0.714918   0.0429888   0.025
0.738041   0.0429888   0.025
0.760504   0.0429888   0.025
0.782266   0.0429888   0.025
0.803293   0.0429888   0.025
0.823557   0.0429888   0.025
0.843039   0.0429888   0.025
0.861725   0.0429888   0.025
0.879605   0.0429888   0.025
0.896677   0.0429888   0.025
0.912945   0.0429888   0.025
0.928415   0.0429888   0.025
0.943099   0.0429888   0.025
0.957011   0.0429888   0.025
0.970171   0.0429888   0.025
0.982598   0.0429888   0.025
0.994315   0.0429888   0.025
0.00568455   0.0569012   0.025
0.0174023   0.0569012   0.025
0.0298294   0.0569012   0.025
0.0429888   0.0569012   0.025
0.0569012   0.0569012   0.025
0.0715849   0.0569012   0.025
0.0870549   0.0569012   0.025
0.103323   0.0569012   0.025
0.120395   0.0569012   0.025
0.138275   0.0569012   0.025
0.156961   0.0569012   0.025
0.176443   0.0569012   0.025
0.196707   0.0569012   0.025
0.217734   0.0569012   0.025
0.239496   0.0569012   0.025
0.261959   0.0569012   0.025
0.285082   0.0569012   0.025
0.308818   0.0569012   0.025
0.333113   0.0569012   0.025
0.357906   0.0569012   0.025
0.383132   0.0569012   0.025
0.408719   0.0569012   0.025
0.434592   0.0569012   0.025
0.460672   0.0569012   0.025
0.486877   0.0569012   0.025
0.513123   0.0569012   0.025
0.539328   0.0569012   0.025
0.565408   0.0569012   0.025
0.591281   0.0569012   0.025
0.616868   0.0569012   0.025
0.642094   0.0569012   0.025
0.666887   0.0569012   0.025
0.691182   0.0569012   0.025
0.714918   0.0569012   0.025
0.738041   0.0569012   0.025
0.760504   0.0569012   0.025
0.782266   0.0569012   0.025
0.803293   0.0569012   0.025
0.823557   0.0569012   0.025
0.843039   0.0569012   0.025
0.861725   0.0569012   0.025
0.879605   0.0569012   0.025
0.896677   0.0569012   0.025
0.912945   0.0569012   0.025
0.928415   0.0569012   0.025
0.943099   0.0569012   0.025
0.957011   0.0569012   0.025
0.970171   0.0569012   0.025
0.982598   0.0569012   0.025
0.994315   0.0569012   0.025
0.00568455   0.0715849   0.025
0.0174023   0.0715849   0.025
0.0298294   0.0715849   0.025
0.0429888   0.0715849   0.025
0.0569012   0.0715849   0.025
0.0715849   0.0715849   0.025
0.0870549   0.0715849   0.025
0.103323   0.0715849   0.025
0.120395   0.0715849   0.025
0.138275   0.0715849   0.025
0.156961   0.0715849   0.025
0.176443   0.0715849   0.025
0.196707   0.0715849   0.025
0.217734   0.0715849   0.025
0.239496   0.0715849   0.025
0.261959   0.0715849   0.025
0.285082   0.0715849   0.025
0.308818   0.0715849   0.025
0.333113   0.0715849   0.025
0.357906   0.0715849   0.025
0.383132   0.0715849   0.025
0.408719   0.0715849   0.025
0.434592   0.0715849   0.025
0.460672   0.0715849   0.025
0.486877   0.0715849   0.025
0.513123   0.0715849   0.025
0.539328   0.0715849   0.025
0.565408   0.0715849   0.025
0.591281   0.0715849   0.025
0.616868   0.0715849   0.025
0.642094   0.0715849   0.025
0.666887   0.0715849   0.025
0.691182   0.0715849   0.025
0.714918   0.0715849   0.025
0.738041   0.0715849   0.025
0.760504   0.0715849   0.025
0.782266   0.0715849   0.025
0.803293   0.0715849   0.025
0.823557   0.0715849   0.025
0.843039   0.0715849   0.025
0.861725   0.0715849   0.025
0.879605   0.0715849   0.025
0.896677   0.0715849   0.025
0.912945   0.0715849   0.025
0.928415   0.0715849   0.025
0.943099   0.0715849   0.025
0.957011   0.0715849   0.025
0.970171   0.0715849   0.025
0.982598   0.0715849   0.025
0.994315   0.0715849   0.025
0.00568455   0.0870549   0.025
0.0174023   0.0870549   0.025
0.0298294   0.0870549   0.025
0.0429888   0.0870549   0.025
0.0569012   0.0870549   0.025
0.0715849   0.0870549   0.025
0.0870549   0.0870549   0.025
0.103323   0.0870549   0.025
0.120395   0.0870549   0.025
0.138275   0.0870549   0.025
0.156961   0.0870549   0.025
0.176443   0.0870549   0.025
0.196707   0.0870549   0.025
0.217734   0.0870549   0.025
0.239496   0.0870549   0.025
0.261959   0.0870549   0.025
0.285082   0.0870549   0.025
0.308818   0.0870549   0.025
0.333113   0.0870549   0.025
0.357906   0.0870549   0.025
0.383132   0.0870549   0.025
0.408719   0.0870549   0.025
0.434592   0.0870549   0.025
0.460672   0.0870549   0.025
0.486877   0.0870549   0.025
0.513123   0.0870549   0.025
0.539328   0.0870549   0.025
0.565408   0.0870549   0.025
0.591281   0.0870549   0.025
0.616868   0.0870549   0.025
0.642094   0.0870549   0.025
0.666887   0.0870549   0.025
0.691182   0.0870549   0.025
0.714918   0.0870549   0.025
0.738041   0.0870549   0.025
0.760504   0.0870549   0.025
0.782266   0.0870549   0.025
[...]
POINT_DATA   50000
VECTORS Velocidades double

-7.66864e-05 -0.0016853 0
-0.000207495 -0.00331007 0
-0.000284955 -0.0042248 0
-0.000313426 -0.00473874 0
-0.000320619 -0.00497718 0
-0.00033372 -0.00500347 0
-0.000373414 -0.0048565 0
-0.000454238 -0.00456392 0
-0.000585992 -0.00414678 0
-0.000775272 -0.0036203 0
-0.00102751 -0.00299087 0
-0.00115313 -0.00224241 0
-0.00133273 -0.00127638 0
-0.00177429 -0.000549835 0
-0.00229106 5.59831e-05 0
-0.00285561 0.000567853 0
-0.00345858 0.0009827 0
-0.00409089 0.00128364 0
-0.00473943 0.00144824 0
-0.00538528 0.0014551 0
-0.00600307 0.00128967 0
-0.00656159 0.000949327 0
-0.00702647 0.000446776 0
-0.00735201 -0.000187431 0
-0.00749639 -0.000893155 0
-0.00743156 -0.00160331 0
-0.00714012 -0.00223861 0
-0.00662582 -0.00272475 0
-0.00591261 -0.00299797 0
-0.00504517 -0.00301387 0
-0.0040848 -0.00275456 0
-0.00310133 -0.00223229 0
-0.00216299 -0.00148859 0
-0.00132648 -0.000589983 0
-0.000628446 0.000376963 0
-0.000237234 0.00130384 0
3.12887e-06 0.00203137 0
0.000273146 0.00287332 0
0.000438084 0.00367214 0
0.000504112 0.00436894 0
0.000490977 0.00493787 0
0.000418465 0.0053671 0
0.000304805 0.00565054 0
0.000167155 0.00578341 0
2.26633e-05 0.00575898 0
-0.00011009 0.00556459 0
-0.000209297 0.00517471 0
-0.000248982 0.00453493 0
-0.000204728 0.00351871 0
-7.9509e-05 0.00178988 0
-0.000256571 -0.00309829 0
-0.000675932 -0.00645734 0
-0.000892895 -0.00839848 0
-0.000949158 -0.00947561 0
-0.000949548 -0.0099558 0
-0.000976961 -0.00998363 0
-0.00109035 -0.00964891 0
-0.00133106 -0.00901462 0
-0.00172771 -0.0081277 0
-0.00230054 -0.00702111 0
-0.00306746 -0.00570717 0
-0.0034032 -0.00414916 0
-0.00396601 -0.00216631 0
-0.00539225 -0.000668452 0
-0.00700197 0.000572814 0
-0.00875892 0.00161831 0
-0.010638 0.00246312 0
-0.0126086 0.00307127 0
-0.0146254 0.00339422 0
-0.0166233 0.00338501 0
-0.0185172 0.00301078 0
-0.020205 0.00226358 0
-0.0215762 0.00116855 0
-0.0225019 -0.000210887 0
-0.0228631 -0.00177343 0
-0.022581 -0.00334921 0
-0.0216226 -0.00477619 0
-0.0200132 -0.00589564 0
-0.0178314 -0.00656792 0
-0.0152101 -0.00669251 0
-0.0123249 -0.00622487 0
-0.00937344 -0.00518532 0
-0.00654993 -0.00365835 0
-0.00401948 -0.00178422 0
-0.00189463 0.000250761 0
-0.000739205 0.00220945 0
9.96743e-07 0.00376071 0
0.000883057 0.00554427 0
0.00140462 0.00723793 0
0.00161433 0.00871606 0
0.00157391 0.0099252 0
0.00134376 0.0108414 0
0.00098031 0.0114518 0
0.00053737 0.0117453 0
6.88867e-05 0.0117051 0
-0.000367191 0.0113 0
-0.000703156 0.0104686 0
-0.000853994 0.00908606 0
-0.000719919 0.00688617 0
-0.000284335 0.00327798 0
-0.000185062 -0.00261784 0
-0.000587965 -0.00606369 0
-0.000959765 -0.00819341 0
-0.00121895 -0.0093743 0
-0.00142669 -0.00986553 0
-0.00167489 -0.00983673 0
-0.00204709 -0.00940226 0
-0.00260975 -0.00864351 0
-0.00341322 -0.00761988 0
-0.00449585 -0.00637128 0
-0.00588986 -0.00491086 0
-0.00652122 -0.00319792 0
-0.00749246 -0.00108723 0
-0.00988965 0.000526732 0
-0.0125838 0.00185194 0
-0.0155302 0.00295937 0
-0.0186823 0.00384521 0
-0.0219798 0.00446736 0
-0.0253378 0.00476755 0
-0.0286403 0.00468803 0
-0.0317404 0.00418622 0
-0.0344666 0.00324773 0
-0.0366349 0.0018968 0
-0.0380752 0.000201296 0
-0.0385909 -0.0017621 0
-0.0380456 -0.00375594 0
-0.0364269 -0.00560134 0
-0.0337822 -0.00711317 0
-0.0302387 -0.00812087 0
-0.0260023 -0.00849453 0
-0.0213403 -0.00816734 0
-0.0165529 -0.00714872 0
-0.0119365 -0.00552611 0
-0.00774732 -0.00345733 0
-0.00416746 -0.00116108 0
-0.00219787 0.00107915 0
-0.000915218 0.00290092 0
0.000641556 0.00495596 0
0.00161475 0.00690647 0
0.0020881 0.00861154 0
0.00215699 0.0100128 0
0.00191708 0.0110842 0
0.00146157 0.0118098 0
0.000882341 0.0121729 0
0.000272444 0.0121474 0
-0.000271139 0.0116879 0
-0.000647063 0.0107137 0
-0.000759825 0.00908187 0
-0.000564707 0.00654976 0
-0.000194992 0.00275689 0
-0.000116916 -0.00227054 0
-0.000449591 -0.00559088 0
-0.000899508 -0.00779168 0
-0.00137145 -0.00903707 0
-0.00187564 -0.00952163 0
-0.00247669 -0.00941273 0
-0.00325452 -0.00884176 0
-0.00428469 -0.00790914 0
-0.00563151 -0.00668965 0
-0.00734744 -0.00523338 0
-0.00947451 -0.00355899 0
-0.0104666 -0.00163294 0
-0.0118807 0.000649142 0
-0.0152747 0.00242935 0
-0.0190665 0.00388789 0
-0.0232089 0.00509453 0
-0.0276339 0.0060417 0
-0.032247 0.00667702 0
-0.0369187 0.00692784 0
-0.0414791 0.00672109 0
-0.0457193 0.00600089 0
-0.0494013 0.00474465 0
-0.0522744 0.0029761 0
-0.0541637 0.000769856 0
-0.0547935 -0.0017929 0
-0.0539656 -0.0044176 0
-0.0517178 -0.00689126 0
-0.0481158 -0.00899073 0
-0.0433253 -0.0105024 0
-0.0376083 -0.0112559 0
-0.0313029 -0.0111532 0
-0.0247898 -0.0101872 0
-0.0184494 -0.00844754 0
-0.0126175 -0.00611404 0
-0.00754625 -0.00344655 0
-0.00473042 -0.000782794 0
-0.00286017 0.00147398 0
-0.000532505 0.00394568 0
0.00100813 0.00628129 0
0.00187948 0.00832777 0
0.00220507 0.0100199 0
0.00211011 0.0113258 0
0.00171993 0.0122226 0
0.00115961 0.0126839 0
0.000553115 0.0126714 0
2.01753e-05 0.0121262 0
-0.000333398 0.0109595 0
-0.000439114 0.00904632 0
-0.000310297 0.0062362 0
-9.78997e-05 0.00242105 0
-8.38369e-05 -0.00202599 0
-0.000381005 -0.00509623 0
-0.000897986 -0.0072045 0
-0.00157916 -0.00840049 0
-0.00241814 -0.00880798 0
-0.0034524 -0.00856915 0
-0.00474392 -0.00781633 0
-0.00636215 -0.0066613 0
-0.0083736 -0.00519191 0
-0.0108364 -0.00346977 0
-0.0137957 -0.00152425 0
-0.0152026 0.000660477 0
-0.0170961 0.00314296 0
-0.0215336 0.00513242 0
-0.0264533 0.00677094 0
-0.0318086 0.00811247 0
-0.0375108 0.00913693 0
-0.04343 0.00977603 0
-0.0493899 0.00993823 0
-0.055166 0.00953147 0
-0.0604902 0.00848446 0
-0.0650641 0.00676628 0
-0.0685803 0.0044024 0
-0.0708771 0.00148119 0
-0.0716058 -0.00188347 0
-0.0705155 -0.00534763 0
-0.0677048 -0.00865636 0
-0.0632495 -0.0115388 0
-0.0573392 -0.0137281 0
-0.0502744 -0.0150035 0
-0.0424444 -0.0152271 0
-0.0342921 -0.0143688 0
-0.0262687 -0.0125166 0
-0.0187848 -0.00987245 0
-0.0121667 -0.00674038 0
-0.00847234 -0.00351485 0
-0.00596269 -0.000646599 0
-0.00274037 0.00238791 0
-0.000492433 0.00523452 0
0.000929403 0.00773539 0
0.0016707 0.0098178 0
0.00187925 0.0114402 0
0.0017053 0.0125686 0
0.00129847 0.0131648 0
0.000802012 0.0131804 0
0.000343615 0.0125523 0
2.06908e-05 0.0112041 0
-0.000120359 0.00905708 0
-0.000105186 0.00606237 0
-3.34156e-05 0.00226252 0
-7.80099e-05 -0.00181716 0
-0.000391288 -0.00454962 0
-0.00101191 -0.00641085 0
-0.00192687 -0.0074117 0
-0.00313579 -0.00763016 0
-0.00466173 -0.00717936 0
-0.00654824 -0.00618093 0
-0.00885105 -0.00474792 0
-0.0116293 -0.00297544 0
-0.0149381 -0.00093525 0
-0.0188192 0.00132915 0
-0.0206868 0.0038085 0
-0.023095 0.00651142 0
-0.0286315 0.00874512 0
-0.0347202 0.0106034 0
-0.0413131 0.0121094 0
-0.0483018 0.0132195 0
-0.0555209 0.0138426 0
-0.0627482 0.0138638 0
-0.0697075 0.0131697 0
-0.0760772 0.0116729 0
-0.081508 0.00933617 0
-0.0856481 0.00619077 0
-0.088338 0.00234771 0
-0.0891798 -0.00202749 0
-0.0878982 -0.00653344 0
-0.0846356 -0.0108821 0
-0.0794638 -0.0147473 0
-0.0725794 -0.0177998 0
-0.064302 -0.0197591 0
-0.055054 -0.0204379 0
-0.0453263 -0.0197739 0
-0.0356322 -0.0178458 0
-0.0264567 -0.0148729 0
-0.0182076 -0.011201 0
-0.0135905 -0.00728138 0
-0.0103769 -0.00361971 0
-0.00610689 0.000122044 0
-0.00298369 0.00360376 0
-0.000836609 0.00667327 0
0.000493213 0.00925069 0
0.00116795 0.011281 0
0.00135477 0.0127157 0
0.00121963 0.0135051 0
0.000917031 0.0135956 0
0.000577671 0.0129308 0
0.000295032 0.0114603 0
0.000114226 0.00915679 0
3.01508e-05 0.00604376 0
4.33963e-06 0.00222626 0
-9.03357e-05 -0.00158766 0
-0.000466533 -0.00387983 0
-0.0012449 -0.00534554 0
-0.00244135 -0.00599627 0
-0.0040668 -0.00589091 0
-0.00613899 -0.00512152 0
-0.00868745 -0.00379524 0
-0.0117526 -0.00201878 0
-0.0153811 0.000112071 0
-0.0196186 0.00251858 0
-0.0244983 0.00514213 0
-0.0268644 0.00794451 0
-0.0298193 0.0108823 0
-0.0365116 0.0133883 0
-0.0438138 0.0154975 0
-0.0516735 0.0171882 0
-0.0599613 0.0183822 0
-0.0684783 0.0189581 0
-0.07696 0.0187739 0
-0.0850846 0.0176936 0
-0.0924864 0.0156154 0
-0.0987768 0.0124986 0
-0.103572 0.00838579 0
-0.106669 0.00341744 0
-0.107669 -0.00218261 0
-0.106328 -0.00792525 0
-0.102776 -0.0135198 0
-0.0970627 -0.0185783 0
-0.0893736 -0.0227002 0
-0.080028 -0.0255357 0
-0.0694643 -0.0268367 0
-0.0582084 -0.0264955 0
-0.0468308 -0.0245693 0
-0.035893 -0.0212839 0
-0.0258944 -0.0170199 0
-0.0202917 -0.0122832 0
-0.0162916 -0.00764323 0
-0.0107848 -0.00305578 0
-0.00658378 0.00118369 0
-0.00350882 0.0049418 0
-0.00139947 0.00813137 0
-8.79285e-05 0.0106794 0
0.00060336 0.0125195 0
0.000851906 0.0135911 0
0.000821684 0.0138395 0
0.000650081 0.0132219 0
0.000438131 0.0117162 0
0.000247197 0.00933605 0
0.000105347 0.00614534 0
2.42467e-05 0.00226586 0
-0.000115096 -0.00129284 0
-0.000592538 -0.00300339 0
-0.0015838 -0.00391467 0
-0.00311914 -0.00405419 0
-0.00521658 -0.00347912 0
-0.00789085 -0.00227006 0
-0.0111606 -0.000520635 0
-0.0150518 0.00167305 0
-0.0195969 0.00422013 0
-0.0248287 0.00703881 0
-0.0307689 0.0100563 0
-0.0336626 0.0132045 0
-0.0371907 0.0163885 0
-0.0450906 0.0191893 0
-0.0536489 0.0215715 0
-0.0628036 0.0234564 0
-0.0724045 0.024721 0
-0.0822215 0.0252077 0
-0.0919544 0.0247445 0
-0.101245 0.0231732 0
-0.109695 0.0203805 0
-0.116889 0.0163268 0
-0.122424 0.0110699 0
-0.125968 0.00478217 0
-0.127201 -0.00225915 0
-0.125993 -0.00942649 0
-0.122367 -0.0164787 0
-0.11633 -0.0229581 0
-0.108036 -0.0283851 0
-0.0977865 -0.0323301 0
-0.0860179 -0.0344699 0
-0.0732791 -0.0346348 0
-0.0601917 -0.0328415 0
-0.0473967 -0.0293055 0
-0.0354961 -0.0244294 0
-0.0288259 -0.0187684 0
-0.0239347 -0.0129645 0
-0.0169569 -0.00740417 0
-0.0114322 -0.00228471 0
-0.00719156 0.00229421 0
-0.00408732 0.00623467 0
-0.00195408 0.00943831 0
-0.00060759 0.0118162 0
0.000141008 0.013295 0
0.000468686 0.0138207 0
0.000527374 0.0133638 0
0.000436789 0.0119264 0
0.000284537 0.00954902 0
0.000133252 0.00631515 0
3.22225e-05 0.00234694 0
-0.000148924 -0.000895175 0
-0.000758304 -0.00183594 0
-0.00201185 -0.00201098 0
-0.00394275 -0.001468 0
-0.00656893 -0.000270449 0
-0.00989976 0.00150633 0
-0.0139433 0.00378069 0
-0.0187121 0.00646974 0
-0.0242239 0.00949199 0
-0.0304981 0.0127665 0
-0.037544 0.0162088 0
-0.0409847 0.0197219 0
-0.0451057 0.0231626 0
-0.0542545 0.0262761 0
-0.064103 0.0289444 0
-0.0745757 0.0310219 0
-0.0855011 0.0323332 0
-0.0966228 0.03268 0
-0.107613 0.0318595 0
-0.118088 0.0296935 0
-0.127629 0.026061 0
-0.135809 0.020927 0
-0.142212 0.0143667 0
-0.146259 0.00658079 0
-0.147825 -0.00211282 0
-0.147001 -0.0108882 0
-0.143562 -0.01962 0
-0.137459 -0.0277702 0
-0.128799 -0.0347734 0
-0.117844 -0.04011 0
-0.105011 -0.0433659 0
-0.0908565 -0.0442878 0
-0.076043 -0.0428275 0
-0.0612906 -0.0391652 0
-0.0473123 -0.0337052 0
-0.0394811 -0.0270411 0
-0.0335721 -0.0198928 0
-0.024834 -0.0132508 0
-0.0176871 -0.0071268 0
-0.0120001 -0.00157379 0
-0.00765461 0.00328879 0
-0.00449365 0.00732469 0
-0.00232651 0.0104136 0
-0.000949262 0.012465 0
-0.000165183 0.0134228 0
0.000200944 0.0132673 0
0.000296045 0.0120171 0
0.000238797 0.00972971 0
0.000124528 0.00649816 0
3.19006e-05 0.00244322 0
-0.000189609 -0.000361323 0
-0.000955085 -0.000296445 0
-0.00251181 0.000475338 0
-0.00488757 0.00188645 0
-0.00809309 0.00386536 0
-0.012128 0.00634048 0
-0.0169881 0.0092427 0
-0.0226722 0.0125052 0
-0.0291843 0.0160602 0
-0.0365303 0.0198316 0
-0.0447079 0.0237261 0
-0.048705 0.0276212 0
-0.0534296 0.03133 0
-0.063853 0.0347706 0
-0.0750118 0.0377297 0
-0.0868137 0.039988 0
-0.0990673 0.0413134 0
-0.111496 0.0414647 0
-0.123753 0.0402097 0
-0.135442 0.0373535 0
-0.146137 0.0327709 0
-0.155405 0.0264345 0
-0.162826 0.0184353 0
-0.167436 0.0089943 0
-0.169448 -0.00154536 0
-0.169294 -0.012111 0
-0.166339 -0.0227559 0
-0.160465 -0.0328481 0
-0.15172 -0.041734 0
-0.140311 -0.0487955 0
-0.126612 -0.0535116 0
-0.111165 -0.0555215 0
-0.0946561 -0.054681 0
-0.0778745 -0.0511016 0
-0.061646 -0.045159 0
-0.0525664 -0.0374637 0
-0.0454948 -0.0288119 0
-0.0346459 -0.0210074 0
-0.0255191 -0.0137469 0
-0.0180576 -0.0070343 0
-0.0121886 -0.00103372 0
-0.00776718 0.0040603 0
-0.00459336 0.00808268 0
-0.00244179 0.0109175 0
-0.00108791 0.0125005 0
-0.000324913 0.0128163 0
2.78122e-05 0.0118941 0
0.000122946 0.00980212 0
8.73752e-05 0.00664083 0
2.56346e-05 0.00253349 0
-0.000235361 0.000338728 0
-0.0011749 0.00169 0
-0.00306559 0.0036487 0
-0.00592372 0.00612928 0
-0.00974681 0.00905422 0
-0.0145201 0.0123583 0
-0.0202249 0.0159887 0
-0.0268452 0.0198992 0
-0.0343715 0.0240405 0
-0.0427979 0.0283459 0
-0.0521118 0.0327174 0
-0.0566636 0.0370104 0
-0.0619917 0.0410014 0
-0.0736941 0.0447794 0
-0.086162 0.0480267 0
-0.0992853 0.0504456 0
-0.112855 0.0517462 0
-0.126581 0.0516458 0
-0.140108 0.0498853 0
-0.153035 0.0462568 0
-0.164939 0.0406343 0
-0.175391 0.0329984 0
-0.183971 0.0234525 0
-0.189189 0.0122288 0
-0.191753 -0.000317498 0
-0.192562 -0.0128573 0
-0.190394 -0.0256543 0
-0.185069 -0.0379715 0
-0.176569 -0.0490714 0
-0.165027 -0.058234 0
-0.15075 -0.0648189 0
-0.134235 -0.0683338 0
-0.11616 -0.0685041 0
-0.0973574 -0.0653298 0
-0.0787549 -0.0591141 0
-0.0683769 -0.0504484 0
-0.0599925 -0.040188 0
-0.0466233 -0.0311791 0
-0.0351032 -0.0226356 0
-0.0254939 -0.0145341 0
-0.0177826 -0.00712353 0
-0.0118383 -0.000686088 0
-0.00744714 0.00454967 0
-0.00435541 0.00843064 0
-0.00230261 0.0108766 0
-0.00104279 0.0118705 0
-0.000355934 0.0114477 0
-5.22203e-05 0.00968514 0
2.78433e-05 0.00669207 0
1.50202e-05 0.00259993 0
-0.000284384 0.00123106 0
-0.00140935 0.00418858 0
-0.00365296 0.00760053 0
-0.00701561 0.011366 0
-0.011477 0.0154061 0
-0.0170044 0.0196681 0
-0.0235617 0.0241217 0
-0.0311176 0.0287485 0
-0.0396494 0.0335238 0
-0.0491405 0.0383958 0
-0.0595701 0.0432659 0
-0.0646631 0.0479723 0
-0.0705815 0.0522621 0
-0.0835387 0.056384 0
-0.0972856 0.0599093 0
-0.111694 0.0624618 0
-0.126541 0.0636954 0
-0.141529 0.0632891 0
-0.1563 0.0609606 0
-0.170459 0.0564928 0
-0.18359 0.0497608 0
-0.195274 0.0407531 0
-0.205097 0.0295821 0
-0.210931 0.0164845 0
-0.214124 0.00182239 0
-0.216149 -0.0128757 0
-0.215049 -0.0280526 0
-0.210602 -0.0428679 0
-0.202719 -0.0565139 0
-0.191447 -0.068174 0
-0.176998 -0.0770842 0
-0.159784 -0.0826025 0
-0.140428 -0.0842889 0
-0.119761 -0.0819827 0
-0.0987762 -0.0758564 0
-0.0871332 -0.0664256 0
-0.0773047 -0.0545641 0
-0.06097 -0.0443592 0
-0.0466092 -0.0343646 0
-0.0344479 -0.0245936 0
-0.0245453 -0.015438 0
-0.0167856 -0.00730521 0
-0.0109388 -0.0005108 0
-0.00671763 0.00473961 0
-0.00381895 0.00833999 0
-0.00195091 0.0102655 0
-0.000848375 0.0105546 0
-0.000279993 0.00929326 0
-5.02753e-05 0.0066023 0
1.05291e-06 0.00262699 0
-0.000334634 0.00233612 0
-0.0016488 0.00724978 0
-0.0042504 0.012401 0
-0.00812106 0.0176767 0
-0.0132198 0.023003 0
-0.0194929 0.0283478 0
-0.0268857 0.0337131 0
-0.0353506 0.0391168 0
-0.0448522 0.0445667 0
-0.055364 0.0500321 0
-0.0668594 0.0554189 0
-0.0724666 0.0605536 0
-0.0789463 0.065161 0
-0.0930979 0.0696272 0
-0.108055 0.0734126 0
-0.123672 0.0760648 0
-0.139715 0.0771861 0
-0.155883 0.0764212 0
-0.171821 0.073469 0
-0.187142 0.0681059 0
-0.20144 0.0602101 0
-0.214312 0.0497783 0
-0.225362 0.0369322 0
-0.231762 0.0219131 0
-0.235608 0.00509335 0
-0.23901 -0.0119367 0
-0.239198 -0.0296815 0
-0.235931 -0.0472242 0
-0.229062 -0.0637105 0
-0.218539 -0.0782457 0
-0.204453 -0.089951 0
-0.187085 -0.098028 0
-0.166944 -0.101844 0
-0.144791 -0.101028 0
-0.12162 -0.0955531 0
-0.108887 -0.08578 0
-0.0975433 -0.0725261 0
-0.0778203 -0.0611901 0
-0.0601884 -0.0495575 0
-0.0450721 -0.0377923 0
-0.0326125 -0.0264989 0
-0.0227177 -0.0162518 0
-0.0151467 -0.00748308 0
-0.00957874 -0.000470953 0
-0.00566469 0.00463963 0
-0.00306139 0.00780873 0
-0.00145261 0.00907491 0
-0.000559785 0.00853362 0
-0.000145961 0.00632068 0
-1.59149e-05 0.00259992 0
-0.0003837 0.00366627 0
-0.00188199 0.0109032 0
-0.00483049 0.0180899 0
-0.00919088 0.0251047 0
-0.0149001 0.0318863 0
-0.021883 0.0384331 0
-0.0300648 0.0447904 0
-0.0393819 0.0510229 0
-0.0497864 0.0571801 0
-0.0612431 0.0632593 0
-0.0737204 0.0691769 0
-0.0797998 0.0747525 0
-0.0867928 0.0796954 0
-0.102033 0.0844982 0
-0.118082 0.0885154 0
-0.134777 0.091225 0
-0.151876 0.0921825 0
-0.169073 0.0910032 0
-0.186019 0.0873707 0
-0.202335 0.0810581 0
-0.21763 0.0719496 0
-0.231518 0.0600543 0
-0.243637 0.0455087 0
-0.250481 0.0285676 0
-0.254929 0.00962521 0
-0.259731 -0.0098764 0
-0.26132 -0.0303007 0
-0.259476 -0.050714 0
-0.254001 -0.0702473 0
-0.244749 -0.0879612 0
-0.231669 -0.102889 0
-0.21487 -0.114088 0
-0.194679 -0.120723 0
-0.1717 -0.122172 0
-0.146833 -0.118139 0
-0.133387 -0.108737 0
-0.120577 -0.0946139 0
-0.0971765 -0.082274 0
-0.0759479 -0.0688276 0
-0.0575258 -0.0547363 0
-0.0421518 -0.0408801 0
-0.0297832 -0.0280455 0
-0.020188 -0.0168177 0
-0.0130228 -0.00757631 0
-0.0078948 -0.000524686 0
-0.00440663 0.00427074 0
-0.00218551 0.00684386 0
-0.000898942 0.00729923 0
-0.000261567 0.0057901 0
-3.62766e-05 0.00250273 0
-0.000428794 0.0052229 0
-0.00209599 0.0151505 0
-0.00536205 0.0246668 0
-0.0101695 0.0336454 0
-0.016434 0.0420449 0
-0.0240592 0.0499051 0
-0.0329513 0.0573257 0
-0.0430305 0.06443 0
-0.0542367 0.0713187 0
-0.0665263 0.0780247 0
-0.0798629 0.0844808 0
-0.0863562 0.0905051 0
-0.093793 0.0957968 0
-0.109963 0.100915 0
-0.126926 0.105122 0
-0.144502 0.107834 0
-0.16244 0.108563 0
-0.18043 0.106902 0
-0.198124 0.10252 0
-0.215151 0.0951936 0
-0.231135 0.084818 0
-0.245722 0.0714241 0
-0.258593 0.055176 0
-0.265693 0.0363583 0
-0.270605 0.0154019 0
-0.276652 -0.00664092 0
-0.279614 -0.0297429 0
-0.279323 -0.0530411 0
-0.275552 -0.0756879 0
-0.268073 -0.0967472 0
-0.256689 -0.11521 0
-0.241307 -0.130027 0
-0.222016 -0.140175 0
-0.199174 -0.144767 0
-0.17347 -0.143184 0
-0.159913 -0.135201 0
-0.145883 -0.12115 0
-0.118816 -0.108018 0
-0.0938907 -0.092677 0
-0.0719374 -0.0759996 0
-0.0533403 -0.0591799 0
-0.0381599 -0.0432621 0
-0.0262161 -0.0290344 0
-0.0171689 -0.0170207 0
-0.0105937 -0.00751401 0
-0.00604149 -0.000626629 0
-0.00307907 0.00366098 0
-0.00131341 0.00545945 0
-0.000403047 0.00494039 0
-6.12112e-05 0.00231534 0
-0.000466839 0.00699362 0
-0.00227669 0.019959 0
-0.00581122 0.0320826 0
-0.0109968 0.043236 0
-0.017731 0.0534049 0
-0.0258985 0.0626796 0
-0.0353878 0.0712257 0
-0.0461038 0.0792357 0
-0.0579741 0.0868708 0
-0.0709463 0.0942077 0
-0.0849785 0.101201 0
-0.0918099 0.107673 0
-0.099597 0.113316 0
-0.116478 0.118711 0
-0.134112 0.123047 0
-0.1523 0.125684 0
-0.170777 0.1261 0
-0.189228 0.123865 0
-0.207303 0.118643 0
-0.224638 0.110217 0
-0.240879 0.0985055 0
-0.255711 0.0835765 0
-0.268876 0.0656397 0
-0.275987 0.0450287 0
-0.281144 0.0222237 0
-0.288104 -0.00231909 0
-0.292251 -0.0279591 0
-0.293492 -0.0539955 0
-0.2916 -0.0796395 0
-0.286289 -0.104017 0
-0.277235 -0.126137 0
-0.26414 -0.144906 0
-0.246822 -0.159161 0
-0.225323 -0.167774 0
-0.200008 -0.169783 0
-0.187141 -0.164563 0
-0.172395 -0.151982 0
-0.142171 -0.138433 0
-0.113808 -0.121357 0
-0.0883164 -0.102031 0
-0.0663018 -0.0819634 0
-0.0480142 -0.0625037 0
-0.0333952 -0.0447113 0
-0.0221559 -0.0293187 0
-0.0138671 -0.0167584 0
-0.00803864 -0.00722171 0
-0.00417788 -0.000721952 0
-0.00182644 0.00284943 0
-0.000579435 0.00368074 0
-9.25696e-05 0.00201057 0
-0.000494665 0.00894996 0
-0.00240959 0.0252563 0
-0.00614347 0.040232 0
-0.0116121 0.053748 0
-0.0186997 0.0658214 0
-0.0272766 0.0766002 0
-0.037216 0.0863245 0
-0.0484086 0.0952647 0
-0.0607694 0.103652 0
-0.0742357 0.111613 0
-0.0887578 0.11913 0
-0.0958341 0.126033 0
-0.103854 0.132012 0
-0.121168 0.137623 0
-0.139165 0.142 0
-0.157623 0.14446 0
-0.176263 0.144449 0
-0.19476 0.141519 0
-0.212761 0.135335 0
-0.229912 0.125697 0
-0.245888 0.112565 0
-0.260423 0.0960621 0
-0.273333 0.0764627 0
-0.280185 0.0541673 0
-0.285316 0.0297099 0
-0.292716 0.00285049 0
-0.297719 -0.025047 0
-0.300306 -0.0535052 0
-0.300282 -0.0818316 0
-0.297343 -0.10927 0
-0.291076 -0.134921 0
-0.281009 -0.157722 0
-0.2667 -0.176456 0
-0.247844 -0.189814 0
-0.224411 -0.196529 0
-0.213115 -0.19556 0