# vtk DataFile Version 2.0
Velocidades
ASCII

DATASET STRUCTURED_GRID
DIMENSIONS   50   50   20

POINTS   50000   double
0.00568455   0.00568455   0.025
0.0174023   0.00568455   0.025
0.0298294   0.00568455   0.025
0.0429888   0.00568455   0.025
0.0569012   0.00568455   0.025
0.0715849   0.00568455   0.025
0.0870549   0.00568455   0.025
0.103323   0.00568455   0.025
0.120395   0.00568455   0.025
0.138275   0.00568455   0.025
0.156961   0.00568455   0.025
0.176443   0.00568455   0.025
0.196707   0.00568455   0.025
0.217734   0.00568455   0.025
0.239496   0.00568455   0.025
0.261959   0.00568455   0.025
0.285082   0.00568455   0.025
0.308818   0.00568455   0.025
0.333113   0.00568455   0.025
0.357906   0.00568455   0.025
0.383132   0.00568455   0.025
0.408719   0.00568455   0.025
0.434592   0.00568455   0.025
0.460672   0.00568455   0.025
0.486877   0.00568455   0.025
0.513123   0.00568455   0.025
0.539328   0.00568455   0.025
0.565408   0.00568455   0.025
0.591281   0.00568455   0.025
0.616868   0.00568455   0.025
0.642094   0.00568455   0.025
0.666887   0.00568455   0.025
0.691182   0.00568455   0.025
0.714918   0.00568455   0.025
0.738041   0.00568455   0.025
0.760504   0.00568455   0.025
0.782266   0.00568455   0.025
0.803293   0.00568455   0.025
0.823557   0.00568455   0.025
0.843039   0.00568455   0.025
0.861725   0.00568455   0.025
0.879605   0.00568455   0.025
0.896677   0.00568455   0.025
0.912945   0.00568455   0.025
0.928415   0.00568455   0.025
0.943099   0.00568455   0.025
0.957011   0.00568455   0.025
0.970171   0.00568455   0.025
0.982598   0.00568455   0.025
0.994315   0.00568455   0.025
0.00568455   0.0174023   0.025
0.0174023   0.0174023   0.025
0.0298294   0.0174023   0.025
0.0429888   0.0174023   0.025
0.0569012   0.0174023   0.025
0.0715849   0.0174023   0.025
0.0870549   0.0174023   0.025
0.103323   0.0174023   0.025
0.120395   0.0174023   0.025
0.138275   0.0174023   0.025
0.156961   0.0174023   0.025
0.176443   0.0174023   0.025
0.196707   0.0174023   0.025
0.217734   0.0174023   0.025
0.239496   0.0174023   0.025
0.261959   0.0174023   0.025
0.285082   0.0174023   0.025
0.308818   0.0174023   0.025
0.333113   0.0174023   0.025
0.357906   0.0174023   0.025
0.383132   0.0174023   0.025
0.408719   0.0174023   0.025
0.434592   0.0174023   0.025
0.460672   0.0174023   0.025
0.486877   0.0174023   0.025
0.513123   0.0174023   0.025
0.539328   0.0174023   0.025
0.565408   0.0174023   0.025
0.591281   0.0174023   0.025
0.616868   0.0174023   0.025
0.642094   0.0174023   0.025
0.666887   0.0174023   0.025
0.691182   0.0174023   0.025
0.714918   0.0174023   0.025
0.738041   0.0174023   0.025
0.760504   0.0174023   0.025
0.782266   0.0174023   0.025
0.803293   0.0174023   0.025
0.823557   0.0174023   0.025
0.843039   0.0174023   0.025
0.861725   0.0174023   0.025
0.879605   0.0174023   0.025
0.896677   0.0174023   0.025
0.912945   0.0174023   0.025
0.928415   0.0174023   0.025
0.943099   0.0174023   0.025
0.957011   0.0174023   0.025
0.970171   0.0174023   0.025
0.982598   0.0174023   0.025
0.994315   0.0174023   0.025
0.00568455   0.0298294   0.025
0.0174023   0.0298294   0.025
0.0298294   0.0298294   0.025
0.0429888   0.0298294   0.025
0.0569012   0.0298294   0.025
0.0715849   0.0298294   0.025
0.0870549   0.0298294   0.025
0.103323   0.0298294   0.025
0.120395   0.0298294   0.025
0.138275   0.0298294   0.025
0.156961   0.0298294   0.025
0.176443   0.0298294   0.025
0.196707   0.0298294   0.025
0.217734   0.0298294   0.025
0.239496   0.0298294   0.025
0.261959   0.0298294   0.025
0.285082   0.0298294   0.025
0.308818   0.0298294   0.025
0.333113   0.0298294   0.025
0.357906   0.0298294   0.025
0.383132   0.0298294   0.025
0.408719   0.0298294   0.025
0.434592   0.0298294   0.025
0.460672   0.0298294   0.025
0.486877   0.0298294   0.025
0.513123   0.0298294   0.025
0.539328   0.0298294   0.025
0.565408   0.0298294   0.025
0.591281   0.0298294   0.025
0.616868   0.0298294   0.025
0.642094   0.0298294   0.025
0.666887   0.0298294   0.025
0.691182   0.0298294   0.025
0.714918   0.0298294   0.025
0.738041   0.0298294   0.025
0.760504   0.0298294   0.025
0.782266   0.0298294   0.025
0.803293   0.0298294   0.025
0.823557   0.0298294   0.025
0.843039   0.0298294   0.025
0.861725   0.0298294   0.025
0.879605   0.0298294   0.025
0.896677   0.0298294   0.025
0.912945   0.0298294   0.025
0.928415   0.0298294   0.025
0.943099   0.0298294   0.025
0.957011   0.0298294   0.025
0.970171   0.0298294   0.025
0.982598   0.0298294   0.025
0.994315   0.0298294   0.025
0.00568455   0.0429888   0.025
0.0174023   0.0429888   0.025
0.0298294   0.0429888   0.025
0.0429888   0.0429888   0.025
0.0569012   0.0429888   0.025
0.0715849   0.0429888   0.025
0.0870549   0.0429888   0.025
0.103323   0.0429888   0.025
0.120395   0.0429888   0.025
0.138275   0.0429888   0.025
0.156961   0.0429888   0.025
0.176443   0.0429888   0.025
0.196707   0.0429888   0.025
0.217734   0.0429888   0.025
0.239496   0.0429888   0.025
0.261959   0.0429888   0.025
0.285082   0.0429888   0.025
0.308818   0.0429888   0.025
0.333113   0.0429888   0.025
0.357906   0.0429888   0.025
0.383132   0.0429888   0.025
0.408719   0.0429888   0.025
0.434592   0.0429888   0.025
0.460672   0.0429888   0.025
0.486877   0.0429888   0.025
0.513123   0.0429888   0.025
0.539328   0.0429888   0.025
0.565408   0.0429888   0.025
0.591281   0.0429888   0.025
0.616868   0.0429888   0.025
0.642094   0.0429888   0.025
0.666887   0.0429888   0.025
0.691182   0.0429888   0.025
0.714918   0.0429888   0.025
0.738041   0.0429888   0.025
0.760504   0.0429888   0.025
0.782266   0.0429888   0.025
0.803293   0.0429888   0.025
0.823557   0.0429888   0.025
0.843039   0.0429888   0.025
0.861725   0.0429888   0.025
0.879605   0.0429888   0.025
0.896677   0.0429888   0.025
0.912945   0.0429888   0.025
0.928415   0.0429888   0.025
0.943099   0.0429888   0.025
0.957011   0.0429888   0.025
0.970171   0.0429888   0.025
0.982598   0.0429888   0.025
0.994315   0.0429888   0.025
0.00568455   0.0569012   0.025
0.0174023   0.0569012   0.025
0.0298294   0.0569012   0.025
0.0429888   0.0569012   0.025
0.0569012   0.0569012   0.025
0.0715849   0.0569012   0.025
0.0870549   0.0569012   0.025
0.103323   0.0569012   0.025
0.120395   0.0569012   0.025
0.138275   0.0569012   0.025
0.156961   0.0569012   0.025
0.176443   0.0569012   0.025
0.196707   0.0569012   0.025
0.217734   0.0569012   0.025
0.239496   0.0569012   0.025
0.261959   0.0569012   0.025
0.285082   0.0569012   0.025
0.308818   0.0569012   0.025
0.333113   0.0569012   0.025
0.357906   0.0569012   0.025
0.383132   0.0569012   0.025
0.408719   0.0569012   0.025
0.434592   0.0569012   0.025
0.460672   0.0569012   0.025
0.486877   0.0569012   0.025
0.513123   0.0569012   0.025
0.539328   0.0569012   0.025
0.565408   0.0569012   0.025
0.591281   0.0569012   0.025
0.616868   0.0569012   0.025
0.642094   0.0569012   0.025
0.666887   0.0569012   0.025
0.691182   0.0569012   0.025
0.714918   0.0569012   0.025
0.738041   0.0569012   0.025
0.760504   0.0569012   0.025
0.782266   0.0569012   0.025
0.803293   0.0569012   0.025
0.823557   0.0569012   0.025
0.843039   0.0569012   0.025
0.861725   0.0569012   0.025
0.879605   0.0569012   0.025
0.896677   0.0569012   0.025
0.912945   0.0569012   0.025
0.928415   0.0569012   0.025
0.943099   0.0569012   0.025
0.957011   0.0569012   0.025
0.970171   0.0569012   0.025
0.982598   0.0569012   0.025
0.994315   0.0569012   0.025
0.00568455   0.0715849   0.025
0.0174023   0.0715849   0.025
0.0298294   0.0715849   0.025
0.0429888   0.0715849   0.025
0.0569012   0.0715849   0.025
0.0715849   0.0715849   0.025
0.0870549   0.0715849   0.025
0.103323   0.0715849   0.025
0.120395   0.0715849   0.025
0.138275   0.0715849   0.025
0.156961   0.0715849   0.025
0.176443   0.0715849   0.025
0.196707   0.0715849   0.025
0.217734   0.0715849   0.025
0.239496   0.0715849   0.025
0.261959   0.0715849   0.025
0.285082   0.0715849   0.025
0.308818   0.0715849   0.025
0.333113   0.0715849   0.025
0.357906   0.0715849   0.025
0.383132   0.0715849   0.025
0.408719   0.0715849   0.025
0.434592   0.0715849   0.025
0.460672   0.0715849   0.025
0.486877   0.0715849   0.025
0.513123   0.0715849   0.025
0.539328   0.0715849   0.025
0.565408   0.0715849   0.025
0.591281   0.0715849   0.025
0.616868   0.0715849   0.025
0.642094   0.0715849   0.025
0.666887   0.0715849   0.025
0.691182   0.0715849   0.025
0.714918   0.0715849   0.025
0.738041   0.0715849   0.025
0.760504   0.0715849   0.025
0.782266   0.0715849   0.025
0.803293   0.0715849   0.025
0.823557   0.0715849   0.025
0.843039   0.0715849   0.025
0.861725   0.0715849   0.025
0.879605   0.0715849   0.025
0.896677   0.0715849   0.025
0.912945   0.0715849   0.025
0.928415   0.0715849   0.025
0.943099   0.0715849   0.025
0.957011   0.0715849   0.025
0.970171   0.0715849   0.025
0.982598   0.0715849   0.025
0.994315   0.0715849   0.025
0.00568455   0.0870549   0.025
0.0174023   0.0870549   0.025
0.0298294   0.0870549   0.025
0.0429888   0.0870549   0.025
0.0569012   0.0870549   0.025
0.0715849   0.0870549   0.025
0.0870549   0.0870549   0.025
0.103323   0.0870549   0.025
0.120395   0.0870549   0.025
0.138275   0.0870549   0.025
0.156961   0.0870549   0.025
0.176443   0.0870549   0.025
0.196707   0.0870549   0.025
0.217734   0.0870549   0.025
0.239496   0.0870549   0.025
0.261959   0.0870549   0.025
0.285082   0.0870549   0.025
0.308818   0.0870549   0.025
0.333113   0.0870549   0.025
0.357906   0.0870549   0.025
0.383132   0.0870549   0.025
0.408719   0.0870549   0.025
0.434592   0.0870549   0.025
0.460672   0.0870549   0.025
0.486877   0.0870549   0.025
0.513123   0.0870549   0.025
0.539328   0.0870549   0.025
0.565408   0.0870549   0.025
0.591281   0.0870549   0.025
0.616868   0.0870549   0.025
0.642094   0.0870549   0.025
0.666887   0.0870549   0.025
0.691182   0.0870549   0.025
0.714918   0.0870549   0.025
0.738041   0.0870549   0.025
0.760504   0.0870549   0.025
0.782266   0.0870549   0.025
[...]
POINT_DATA   50000
VECTORS Velocidades double

-6.34461e-05 -0.00139552 0
-0.000172373 -0.00272998 0
-0.000239394 -0.00347122 0
-0.000269394 -0.00387954 0
-0.000285815 -0.00406194 0
-0.000310992 -0.00407332 0
-0.000361425 -0.00394743 0
-0.000448308 -0.00370768 0
-0.000578958 -0.00337086 0
-0.000758355 -0.00294776 0
-0.00099119 -0.00244044 0
-0.00110743 -0.00183009 0
-0.00127058 -0.00102247 0
-0.0016683 -0.000432551 0
-0.00213222 4.74931e-05 0
-0.00263747 0.000444052 0
-0.00317565 0.000757239 0
-0.00373876 0.000974683 0
-0.00431514 0.00107855 0
-0.00488772 0.00105119 0
-0.00543348 0.000880315 0
-0.00592399 0.000563502 0
-0.00632782 0.00011137 0
-0.00660964 -0.000450626 0
-0.00672872 -0.00107649 0
-0.0066553 -0.00169786 0
-0.00637923 -0.00224699 0
-0.00590502 -0.0026589 0
-0.00525487 -0.00287771 0
-0.00446911 -0.0028645 0
-0.00360258 -0.00260389 0
-0.00271746 -0.0021074 0
-0.00187436 -0.00141282 0
-0.00112356 -0.000580479 0
-0.000497356 0.00031114 0
-0.000147121 0.00116398 0
6.86773e-05 0.00183502 0
0.000312068 0.00261343 0
0.000459255 0.00335554 0
0.000514909 0.00400558 0
0.00049688 0.00453801 0
0.000423522 0.00494062 0
0.000311962 0.00520708 0
0.000178397 0.00533267 0
3.8994e-05 0.00531121 0
-8.88197e-05 0.00513131 0
-0.000184736 0.00476994 0
-0.000224732 0.00417767 0
-0.000186374 0.00323899 0
-7.26152e-05 0.00164601 0
-0.000212357 -0.00256571 0
-0.000561889 -0.00532283 0
-0.000750967 -0.00689352 0
-0.000817508 -0.00774607 0
-0.000849735 -0.00810909 0
-0.000915949 -0.00810775 0
-0.00106332 -0.0078198 0
-0.00132372 -0.00729838 0
-0.00171847 -0.00658082 0
-0.00226272 -0.00569021 0
-0.00297154 -0.00462949 0
-0.00328241 -0.00335614 0
-0.00379242 -0.00169624 0
-0.0050764 -0.000477689 0
-0.0065193 0.000507208 0
-0.00808771 0.00131811 0
-0.00975931 0.0019566 0
-0.0115078 0.00239605 0
-0.0132935 0.00259741 0
-0.015059 0.00252154 0
-0.0167284 0.00214031 0
-0.0182098 0.00144635 0
-0.0194033 0.00046043 0
-0.0202099 -0.000764612 0
-0.0205108 -0.0021501 0
-0.0202207 -0.00353195 0
-0.0193261 -0.00476992 0
-0.0178505 -0.00572499 0
-0.0158655 -0.00627453 0
-0.0134907 -0.00633029 0
-0.010884 -0.00585371 0
-0.00822274 -0.00486411 0
-0.00568079 -0.00343843 0
-0.0034056 -0.00170391 0
-0.0014969 0.000170481 0
-0.000461675 0.00197006 0
0.000203674 0.00339718 0
0.00099951 0.00504467 0
0.00146532 0.00661764 0
0.00164248 0.00799652 0
0.00158692 0.009128 0
0.00135478 0.00998717 0
0.000999091 0.0105606 0
0.000570585 0.0108374 0
0.00012001 0.0108021 0
-0.000298413 0.0104265 0
-0.000621769 0.00965521 0
-0.000771564 0.0083747 0
-0.000656051 0.00634201 0
-0.000260024 0.00301606 0
-0.000154749 -0.00216638 0
-0.000496426 -0.00498766 0
-0.000824522 -0.00670349 0
-0.00107506 -0.00762976 0
-0.00130057 -0.00799045 0
-0.00157707 -0.00793287 0
-0.00197201 -0.00755575 0
-0.0025376 -0.00692749 0
-0.00331259 -0.00609511 0
-0.00432674 -0.00508614 0
-0.00560707 -0.00390234 0
-0.00618718 -0.0024956 0
-0.00706551 -0.00072318 0
-0.00922172 0.000595553 0
-0.011635 0.00165091 0
-0.0142639 0.00251275 0
-0.0170676 0.00318435 0
-0.0199944 0.00363382 0
-0.0229703 0.00381323 0
-0.0258937 0.00367341 0
-0.028634 0.00317705 0
-0.0310374 0.00231052 0
-0.032938 0.00109337 0
-0.0342035 -0.000417674 0
-0.0346403 -0.00215957 0
-0.0341063 -0.00391598 0
-0.0326097 -0.00552873 0
-0.0301931 -0.00683492 0
-0.0269714 -0.00768414 0
-0.0231302 -0.00796166 0
-0.0189113 -0.0076089 0
-0.0145853 -0.00663548 0
-0.0104196 -0.00512121 0
-0.00664429 -0.00320949 0
-0.00342154 -0.00109893 0
-0.00165258 0.00095325 0
-0.000497988 0.00262024 0
0.000906787 0.00451505 0
0.00177669 0.00632556 0
0.00218404 0.00791587 0
0.0022157 0.0092268 0
0.00196071 0.0102308 0
0.00150648 0.0109113 0
0.000939251 0.0112522 0
0.000346172 0.0112294 0
-0.00018234 0.0108019 0
-0.000552218 0.00989659 0
-0.000675092 0.00838362 0
-0.000509428 0.00604159 0
-0.000177116 0.0025409 0
-0.000100397 -0.00187296 0
-0.000391182 -0.00457619 0
-0.000796912 -0.00633457 0
-0.00124151 -0.00729724 0
-0.00173512 -0.00763642 0
-0.00233131 -0.00749902 0
-0.00309472 -0.00699875 0
-0.00408524 -0.00621988 0
-0.00535323 -0.00522138 0
-0.00694021 -0.00403768 0
-0.00888136 -0.00267288 0
-0.00978625 -0.00108262 0
-0.0110624 0.000841014 0
-0.0141128 0.002303 0
-0.0175081 0.00347082 0
-0.0212051 0.00441515 0
-0.0251445 0.005137 0
-0.0292455 0.00559563 0
-0.033396 0.00572999 0
-0.0374472 0.00547649 0
-0.0412138 0.00478509 0
-0.0444824 0.00363398 0
-0.0470263 0.00204151 0
-0.048704 7.06318e-05 0
-0.0492501 -0.00220766 0
-0.0484682 -0.00453114 0
-0.0464067 -0.00670923 0
-0.0431235 -0.00854443 0
-0.0387677 -0.00984715 0
-0.0335766 -0.0104656 0
-0.0278577 -0.0103128 0
-0.0219566 -0.00938367 0
-0.0162187 -0.00776016 0
-0.0109478 -0.00560625 0
-0.00636971 -0.00315869 0
-0.00383302 -0.000724898 0
-0.0021457 0.00132962 0
-4.3e-05 0.00360507 0
0.00133676 0.00577219 0
0.00209682 0.0076805 0
0.00235053 0.00926268 0
0.0022147 0.0104851 0
0.00180678 0.0113244 0
0.00124389 0.0117555 0
0.000641803 0.0117433 0
0.000112068 0.0112344 0
-0.000246898 0.0101484 0
-0.000371174 0.00837169 0
-0.00027205 0.00576764 0
-8.71824e-05 0.00223796 0
-7.50917e-05 -0.0016592 0
-0.000344003 -0.00413323 0
-0.000818979 -0.00579257 0
-0.00145583 -0.00669234 0
-0.00225042 -0.0069474 0
-0.00323375 -0.00668497 0
-0.00445576 -0.00602038 0
-0.00597166 -0.00504736 0
-0.00783396 -0.00383497 0
-0.0100891 -0.00242551 0
-0.0127751 -0.000829695 0
-0.0140506 0.000984021 0
-0.0157562 0.00308542 0
-0.0197423 0.00472798 0
-0.0241486 0.00604866 0
-0.0289327 0.00710676 0
-0.0340185 0.0078936 0
-0.0392954 0.00835454 0
-0.0446111 0.0084111 0
-0.049769 0.00798166 0
-0.054531 0.00700097 0
-0.0586286 0.00543832 0
-0.0617823 0.00331246 0
-0.0638475 0.000698454 0
-0.0644989 -0.00230221 0
-0.063499 -0.00538422 0
-0.0609388 -0.0083183 0
-0.056884 -0.0108634 0
-0.0515053 -0.0127807 0
-0.0450763 -0.0138717 0
-0.0379535 -0.0140127 0
-0.0305429 -0.0131776 0
-0.0232569 -0.0114475 0
-0.0164694 -0.00900757 0
-0.0104748 -0.00613606 0
-0.0071347 -0.00319371 0
-0.00486375 -0.00059173 0
-0.00194721 0.00219994 0
7.13629e-05 0.00484135 0
0.00132406 0.00717303 0
0.00194572 0.00911876 0
0.00207481 0.0106353 0
0.00185218 0.011689 0
0.00141773 0.012244 0
0.000905147 0.0122558 0
0.000433455 0.0116673 0
9.36505e-05 0.0104092 0
-7.02556e-05 0.00841057 0
-8.04838e-05 0.00562754 0
-2.73126e-05 0.00209989 0
-7.22181e-05 -0.0014692 0
-0.000361784 -0.00363226 0
-0.000936346 -0.00505736 0
-0.00178632 -0.00576779 0
-0.00291199 -0.00584117 0
-0.00433219 -0.00538154 0
-0.00608172 -0.00449588 0
-0.0082047 -0.00327896 0
-0.0107481 -0.001805 0
-0.0137561 -0.000123053 0
-0.0172641 0.00174655 0
-0.0189496 0.0038164 0
-0.0211161 0.00611514 0
-0.0260895 0.00796947 0
-0.0315475 0.00947873 0
-0.037448 0.0106782 0
-0.0436994 0.0115401 0
-0.0501613 0.0119895 0
-0.0566422 0.011926 0
-0.0628995 0.0112471 0
-0.0686463 0.00987104 0
-0.073566 0.00775907 0
-0.0773352 0.00493333 0
-0.0797882 0.00148826 0
-0.0805659 -0.00242893 0
-0.0794221 -0.00645885 0
-0.0764672 -0.0103413 0
-0.0717626 -0.0137847 0
-0.0654858 -0.0164915 0
-0.0579303 -0.0182073 0
-0.0494865 -0.0187619 0
-0.0406084 -0.0181 0
-0.0317693 -0.0162951 0
-0.0234139 -0.0135497 0
-0.0159128 -0.0101825 0
-0.0117209 -0.0066084 0
-0.00880253 -0.00329214 0
-0.0049278 0.000151709 0
-0.00211449 0.0033845 0
-0.000207789 0.00624639 0
0.00094133 0.00865281 0
0.00148567 0.0105478 0
0.00158211 0.0118845 0
0.00138575 0.0126166 0
0.00104076 0.0126948 0
0.000669113 0.0120681 0
0.000358467 0.0106909 0
0.000151944 0.00853924 0
4.64268e-05 0.00563526 0
7.89196e-06 0.00207605 0
-8.42341e-05 -0.00125607 0
-0.000432905 -0.00301318 0
-0.0011517 -0.00407269 0
-0.00225461 -0.0044585 0
-0.00375094 -0.00423281 0
-0.0056549 -0.00348263 0
-0.00798971 -0.00230319 0
-0.0107871 -0.000783779 0
-0.014084 0.00100183 0
-0.0179176 0.00300045 0
-0.0223162 0.00518126 0
-0.0244453 0.00753456 0
-0.0271024 0.0100463 0
-0.0331185 0.012139 0
-0.0396756 0.0138669 0
-0.0467298 0.0152298 0
-0.0541738 0.0161705 0
-0.061839 0.016587 0
-0.0694972 0.0163527 0
-0.0768643 0.0153423 0
-0.0836113 0.0134576 0
-0.0893823 0.0106537 0
-0.0938192 0.0069598 0
-0.0966856 0.00249539 0
-0.097638 -0.00254094 0
-0.0964765 -0.00770576 0
-0.0932753 -0.0127342 0
-0.0880757 -0.0172778 0
-0.0810451 -0.0209714 0
-0.0724806 -0.0234943 0
-0.0627917 -0.024619 0
-0.0524701 -0.0242486 0
-0.0420465 -0.022438 0
-0.0320398 -0.0193982 0
-0.0229071 -0.0154827 0
-0.0177959 -0.0111602 0
-0.0141485 -0.00695745 0
-0.00913658 -0.00272848 0
-0.00533938 0.00121258 0
-0.00259008 0.00471712 0
-0.000735679 0.00769272 0
0.000383025 0.0100672 0
0.000932856 0.0117779 0
0.0010797 0.0127684 0
0.000976498 0.0129887 0
0.00075157 0.0123998 0
0.00049972 0.010982 0
0.0002792 0.00874843 0
0.000117473 0.0057582 0
2.65777e-05 0.00212364 0
-0.00010645 -0.000982625 0
-0.000545761 -0.00220582 0
-0.00145444 -0.00275852 0
-0.00285832 -0.00267804 0
-0.00477251 -0.00202532 0
-0.00720867 -0.00087806 0
-0.0101811 0.000679732 0
-0.0137098 0.0025681 0
-0.0178203 0.00471848 0
-0.0225396 0.00707692 0
-0.0278872 0.00960289 0
-0.0304873 0.0122635 0
-0.033662 0.0150022 0
-0.0407751 0.0173568 0
-0.048481 0.0193282 0
-0.0567305 0.0208701 0
-0.0654003 0.0218868 0
-0.074296 0.0222424 0
-0.083157 0.0217808 0
-0.0916648 0.0203527 0
-0.0994569 0.0178449 0
-0.106147 0.0142087 0
-0.111351 0.00948355 0
-0.11468 0.00381557 0
-0.115883 -0.00254862 0
-0.114885 -0.0090335 0
-0.111634 -0.0154151 0
-0.106131 -0.0212813 0
-0.0985186 -0.0261898 0
-0.0890787 -0.0297429 0
-0.0782257 -0.0316421 0
-0.0664788 -0.0317327 0
-0.0544224 -0.0300345 0
-0.0426541 -0.0267521 0
-0.0317289 -0.0222632 0
-0.0256107 -0.0170869 0
-0.0211306 -0.0118211 0
-0.014759 -0.00668149 0
-0.00974663 -0.00191459 0
-0.00593119 0.00235636 0
-0.00316861 0.0060294 0
-0.00130088 0.0090104 0
-0.000154767 0.0112166 0
0.000446069 0.0125802 0
0.000666626 0.0130517 0
0.000648745 0.0126041 0
0.000504597 0.0112393 0
0.000316699 0.00899493 0
0.000144348 0.00594789 0
3.41574e-05 0.00221084 0
-0.00013615 -0.000617469 0
-0.000691549 -0.00113896 0
-0.00183135 -0.00102336 0
-0.00358413 -0.00032488 0
-0.0059651 0.000890151 0
-0.00898159 0.00254836 0
-0.0126394 0.00457595 0
-0.0169474 0.00690465 0
-0.0219198 0.00947511 0
-0.0275729 0.0122361 0
-0.0339164 0.0151392 0
-0.0370083 0.0181294 0
-0.0407227 0.0211095 0
-0.0489822 0.0237483 0
-0.0578839 0.0259835 0
-0.0673704 0.0277142 0
-0.0773021 0.028798 0
-0.0874622 0.0290602 0
-0.097564 0.0283125 0
-0.107263 0.0263821 0
-0.116172 0.0231425 0
-0.123884 0.0185435 0
-0.129996 0.0126357 0
-0.133853 0.00558906 0
-0.135404 -0.00231215 0
-0.134805 -0.0103021 0
-0.131745 -0.0182584 0
-0.126171 -0.0256947 0
-0.118182 -0.032084 0
-0.108031 -0.03694 0
-0.0961198 -0.0398771 0
-0.0829812 -0.040663 0
-0.069247 -0.0392591 0
-0.055595 -0.0358418 0
-0.0426886 -0.0307961 0
-0.0354609 -0.0246825 0
-0.0300217 -0.0181765 0
-0.0220139 -0.0120145 0
-0.0155028 -0.0063016 0
-0.0103541 -0.00112126 0
-0.0064478 0.00340745 0
-0.0036334 0.00715778 0
-0.00173177 0.0100192 0
-0.000552692 0.0119083 0
8.71152e-05 0.0127733 0
0.000351161 0.0125958 0
0.000376885 0.0113925 0
0.000275573 0.0092163 0
0.000136699 0.0061527 0
3.39392e-05 0.00231313 0
-0.000171594 -0.000132447 0
-0.000863434 0.000256368 0
-0.00226914 0.00122725 0
-0.00441339 0.00270912 0
-0.00730584 0.00462872 0
-0.0109461 0.0069158 0
-0.01533 0.00950735 0
-0.0204557 0.0123495 0
-0.0263262 0.0153958 0
-0.0329475 0.0186014 0
-0.0403205 0.0219128 0
-0.0439174 0.0252549 0
-0.0481879 0.0284929 0
-0.0576338 0.031438 0
-0.0677703 0.0339545 0
-0.0785298 0.0358788 0
-0.0897574 0.0370169 0
-0.101218 0.0371515 0
-0.112605 0.0360615 0
-0.123556 0.0335514 0
-0.133671 0.0294834 0
-0.142529 0.0238072 0
-0.149713 0.0165831 0
-0.154168 0.00799775 0
-0.156181 -0.00164008 0
-0.156253 -0.0113226 0
-0.15366 -0.021091 0
-0.148284 -0.0303714 0
-0.14017 -0.0385462 0
-0.129521 -0.0450311 0
-0.116707 -0.0493368 0
-0.102257 -0.0511295 0
-0.0868366 -0.0502838 0
-0.0711965 -0.0469171 0
-0.0561142 -0.0413946 0
-0.0476745 -0.0343013 0
-0.0411297 -0.0263901 0
-0.0311471 -0.0191171 0
-0.0227927 -0.0123316 0
-0.015993 -0.00606945 0
-0.0106687 -0.000485159 0
-0.0066808 0.00424384 0
-0.00384196 0.00796673 0
-0.00194217 0.0105767 0
-0.000772148 0.0120141 0
-0.000138829 0.0122636 0
0.000126691 0.0113515 0
0.00016735 0.00934019 0
0.000101923 0.00632188 0
2.80594e-05 0.00241046 0
-0.000211404 0.00049817 0
-0.0010553 0.00204492 0
-0.00275401 0.00408448 0
-0.00532344 0.00653027 0
-0.0087629 0.00930369 0
-0.0130606 0.0123397 0
-0.0182007 0.0155893 0
-0.0241696 0.019017 0
-0.0309598 0.0225936 0
-0.0385682 0.0262849 0
-0.0469883 0.0300354 0
-0.0510953 0.0337527 0
-0.0559303 0.0372691 0
-0.0665875 0.0405432 0
-0.0779836 0.0433559 0
-0.0900393 0.0454757 0
-0.102586 0.0466534 0
-0.115374 0.0466278 0
-0.128085 0.0451455 0
-0.140348 0.04199 0
-0.151754 0.0370136 0
-0.161877 0.030166 0
-0.17029 0.0215138 0
-0.175403 0.0112519 0
-0.177986 -0.00029805 0
-0.179016 -0.0118653 0
-0.177184 -0.0236953 0
-0.172306 -0.0351122 0
-0.164364 -0.0454088 0
-0.153496 -0.0538969 0
-0.14002 -0.0599694 0
-0.12443 -0.0631668 0
-0.107397 -0.0632431 0
-0.0897287 -0.0602169 0
-0.0723094 -0.0543946 0
-0.0625826 -0.0463534 0
-0.0547749 -0.0369114 0
-0.0424155 -0.0284741 0
-0.0318109 -0.0204772 0
-0.0229912 -0.0129197 0
-0.0159334 -0.00602609 0
-0.0105122 -5.17252e-05 0
-0.00652798 0.00479452 0
-0.00374381 0.0083711 0
-0.00191638 0.0106027 0
-0.000815648 0.0114722 0
-0.000235559 0.0110107 0
1.72441e-06 0.00928871 0
4.55172e-05 0.00640653 0
1.79766e-05 0.0024858 0
-0.000254213 0.00129727 0
-0.00126073 0.00428444 0
-0.00327047 0.00763028 0
-0.00628701 0.0112346 0
-0.0102956 0.0150172 0
-0.01527 0.0189231 0
-0.0211806 0.0229227 0
-0.0280016 0.027005 0
-0.0357154 0.0311639 0
-0.044311 0.03538 0
-0.0537763 0.0396002 0
-0.0583886 0.0437181 0
-0.0637865 0.0475382 0
-0.0756581 0.0511644 0
-0.0883157 0.0542864 0
-0.101668 0.0566011 0
-0.115533 0.0578032 0
-0.129653 0.0575883 0
-0.143704 0.0556717 0
-0.157308 0.0518178 0
-0.170057 0.0458702 0
-0.181525 0.0377775 0
-0.191278 0.0276097 0
-0.197072 0.0155638 0
-0.200315 0.00196804 0
-0.202562 -0.0116801 0
-0.201771 -0.025819 0
-0.197704 -0.039665 0
-0.19028 -0.0524307 0
-0.179557 -0.0633262 0
-0.165769 -0.0716193 0
-0.149343 -0.0767044 0
-0.130915 -0.0781798 0
-0.111306 -0.0759179 0
-0.0914841 -0.070112 0
-0.0804646 -0.0612808 0
-0.071247 -0.0502734 0
-0.0560598 -0.0406672 0
-0.042751 -0.0313005 0
-0.0315012 -0.0221835 0
-0.0223573 -0.013664 0
-0.0152096 -0.00611111 0
-0.00984234 0.000185022 0
-0.00598598 0.00503342 0
-0.00335599 0.00833406 0
-0.00167828 0.0100619 0
-0.000703729 0.0102508 0
-0.000215089 0.00897929 0
-2.89698e-05 0.0063588 0
4.62766e-06 0.00252411 0
-0.000298445 0.00228357 0
-0.00147225 0.00702167 0
-0.00380023 0.0119306 0
-0.00727113 0.016899 0
-0.0118537 0.0218501 0
-0.017505 0.0267458 0
-0.0241803 0.031584 0
-0.0318413 0.0363858 0
-0.0404604 0.0411751 0
-0.05002 0.0459531 0
-0.0605041 0.0506731 0
-0.0656059 0.055219 0
-0.0715516 0.0593719 0
-0.0846105 0.0633726 0
-0.0984982 0.0668138 0
-0.113111 0.0693202 0
-0.128257 0.0705307 0
-0.14367 0.0700994 0
-0.159023 0.0677124 0
-0.17394 0.0631164 0
-0.188013 0.0561473 0
-0.200819 0.0467532 0
-0.211933 0.0350071 0
-0.218378 0.0211075 0
-0.222319 0.0053922 0
-0.22597 -0.0105293 0
-0.226448 -0.0271971 0
-0.223494 -0.0437333 0
-0.216965 -0.0592913 0
-0.20683 -0.0729932 0
-0.193213 -0.0839863 0
-0.176429 -0.0915088 0
-0.15702 -0.0949734 0
-0.135764 -0.0940561 0
-0.113651 -0.0887703 0
-0.10146 -0.0795032 0
-0.0907311 -0.0670691 0
-0.0722629 -0.0563473 0
-0.0557907 -0.0454321 0
-0.0416872 -0.0344424 0
-0.0300804 -0.0239176 0
-0.0208817 -0.0143834 0
-0.013862 -0.00623925 0
-0.00871734 0.000255291 0
-0.00511741 0.0049634 0
-0.00273793 0.00784568 0
-0.00128043 0.00893609 0
-0.000482269 0.00832213 0
-0.000120426 0.00612961 0
-1.16139e-05 0.00251115 0
-0.000342198 0.00346956 0
-0.00168093 0.0102871 0
-0.00432138 0.0170276 0
-0.0082363 0.0235713 0
-0.0133767 0.0298508 0
-0.019682 0.0358537 0
-0.0270918 0.0416144 0
-0.0355549 0.0471954 0
-0.0450345 0.0526586 0
-0.0555069 0.0580324 0
-0.0669538 0.063281 0
-0.0725158 0.0682828 0
-0.0789776 0.0728007 0
-0.0931561 0.0771942 0
-0.108197 0.0809587 0
-0.123983 0.0836472 0
-0.140313 0.0848455 0
-0.156915 0.0841677 0
-0.173457 0.0812728 0
-0.189563 0.0758918 0
-0.20483 0.067855 0
-0.218846 0.0571137 0
-0.231204 0.043749 0
-0.2382 0.0279696 0
-0.242809 0.0101335 0
-0.247918 -0.00823141 0
-0.2498 -0.0275846 0
-0.248208 -0.0469998 0
-0.242949 -0.0656007 0
-0.233902 -0.0824506 0
-0.221059 -0.0965977 0
-0.204579 -0.107131 0
-0.184844 -0.113263 0
-0.162504 -0.114429 0
-0.138488 -0.110392 0
-0.125434 -0.101318 0
-0.113197 -0.0878801 0
-0.0910881 -0.0761599 0
-0.0710683 -0.0635164 0
-0.0537222 -0.0503188 0
-0.0392739 -0.0373664 0
-0.0276759 -0.0253863 0
-0.0187011 -0.0149232 0
-0.0120187 -0.00633141 0
-0.00725272 0.000197764 0
-0.00402486 0.00460061 0
-0.00198107 0.0069072 0
-0.000806329 0.00721412 0
-0.000230846 0.00566413 0
-3.10576e-05 0.00243163 0
-0.0003832 0.00485905 0
-0.0018762 0.014089 0
-0.00480826 0.0229309 0
-0.00913644 0.0312601 0
-0.0147943 0.0390249 0
-0.0217042 0.0462472 0
-0.0297899 0.0530085 0
-0.0389879 0.0594225 0
-0.0492522 0.0655978 0
-0.0605537 0.0715965 0
-0.0728716 0.0773994 0
-0.0788495 0.082883 0
-0.085775 0.0877965 0
-0.100955 0.0925927 0
-0.117015 0.0966732 0
-0.133822 0.0995227 0
-0.151164 0.100676 0
-0.168759 0.099709 0
-0.186272 0.096256 0
-0.203325 0.0900354 0
-0.219521 0.0808776 0
-0.234467 0.0687453 0
-0.247791 0.0537408 0
-0.255163 0.0360989 0
-0.260319 0.0162147 0
-0.26677 -0.00470904 0
-0.270053 -0.0268019 0
-0.269971 -0.0491671 0
-0.266302 -0.0709345 0
-0.258845 -0.0911527 0
-0.247449 -0.108813 0
-0.232084 -0.122884 0
-0.212913 -0.132388 0
-0.190365 -0.136498 0
-0.16519 -0.134667 0
-0.151814 -0.126745 0
-0.138246 -0.113127 0
-0.11239 -0.100603 0
-0.0886312 -0.0861176 0
-0.0677588 -0.0704226 0
-0.0501267 -0.0546252 0
-0.0357744 -0.0397002 0
-0.0245133 -0.0263837 0
-0.0160072 -0.0151644 0
-0.00984406 -0.00631613 0
-0.00559181 5.61175e-05 0
-0.00283608 0.00397022 0
-0.00120225 0.00552962 0
-0.000365743 0.00489535 0
-5.47789e-05 0.00226662 0
-0.000418859 0.00644451 0
-0.00204608 0.018407 0
-0.00523198 0.0296096 0
-0.00992004 0.0399249 0
-0.0160285 0.0493236 0
-0.023464 0.0578704 0
-0.0321362 0.0657034 0
-0.0419692 0.0729975 0
-0.0529084 0.0799164 0
-0.0649185 0.086563 0
-0.0779757 0.0929395 0
-0.084308 0.0989246 0
-0.0916216 0.104257 0
-0.107625 0.109451 0
-0.124502 0.113822 0
-0.142101 0.116791 0
-0.160194 0.117844 0
-0.178488 0.116521 0
-0.196639 0.112434 0
-0.214267 0.105296 0
-0.230987 0.0949457 0
-0.246432 0.0813735 0
-0.260283 0.0647212 0
-0.267791 0.0452714 0
-0.273286 0.0234734 0
-0.280768 -2.91997e-05 0
-0.285286 -0.0247825 0
-0.286717 -0.050013 0
-0.284839 -0.0748944 0
-0.27939 -0.0985171 0
-0.270094 -0.119874 0
-0.256718 -0.137871 0
-0.239162 -0.15138 0
-0.217557 -0.159325 0
-0.192357 -0.160822 0
-0.179419 -0.155333 0
-0.16495 -0.142825 0
-0.135695 -0.129826 0
-0.108338 -0.113583 0
-0.0838536 -0.0952639 0
-0.0627927 -0.0762938 0
-0.0453608 -0.0579432 0
-0.0314714 -0.0412031 0
-0.0208257 -0.0267555 0
-0.0129981 -0.0150019 0
-0.00751128 -0.00611856 0
-0.00388951 -0.000115832 0
-0.00169279 0.00310973 0
-0.000533895 0.00373649 0
-8.45619e-05 0.00199047 0
-0.000446389 0.00820479 0
-0.00217778 0.0231869 0
-0.00556188 0.0369839 0
-0.0105326 0.0494679 0
-0.0169968 0.0606362 0
-0.0248486 0.0706027 0
-0.0339854 0.0795706 0
-0.0443202 0.0877841 0
-0.0557885 0.09547 0
-0.0683481 0.102778 0
-0.0819702 0.109737 0
-0.0885778 0.116232 0
-0.0961784 0.121993 0
-0.112764 0.127555 0
-0.130185 0.132165 0
-0.148267 0.135184 0
-0.166764 0.136049 0
-0.185365 0.134269 0
-0.203716 0.129438 0
-0.221437 0.121272 0
-0.23816 0.109636 0
-0.253558 0.094566 0
-0.267377 0.076266 0
-0.27474 0.0550882 0
-0.280298 0.0315471 0
-0.288338 0.00557998 0
-0.293764 -0.021609 0
-0.296542 -0.0494459 0
-0.29648 -0.077186 0
-0.293292 -0.104021 0
-0.286607 -0.129014 0
-0.276011 -0.151089 0
-0.261139 -0.169039 0
-0.241782 -0.181597 0
-0.218008 -0.187564 0