# vtk DataFile Version 2.0
Presion
ASCII

DATASET STRUCTURED_GRID
DIMENSIONS   50   50   20

POINTS   50000   double
0.00568455   0.00568455   0.025
0.0174023   0.00568455   0.025
0.0298294   0.00568455   0.025
0.0429888   0.00568455   0.025
0.0569012   0.00568455   0.025
0.0715849   0.00568455   0.025
0.0870549   0.00568455   0.025
0.103323   0.00568455   0.025
0.120395   0.00568455   0.025
0.138275   0.00568455   0.025
0.156961   0.00568455   0.025
0.176443   0.00568455   0.025
0.196707   0.00568455   0.025
0.217734   0.00568455   0.025
0.239496   0.00568455   0.025
0.261959   0.00568455   0.025
0.285082   0.00568455   0.025
0.308818   0.00568455   0.025
0.333113   0.00568455   0.025
0.357906   0.00568455   0.025
0.383132   0.00568455   0.025
0.408719   0.00568455   0.025
0.434592   0.00568455   0.025
0.460672   0.00568455   0.025
0.486877   0.00568455   0.025
0.513123   0.00568455   0.025
0.539328   0.00568455   0.025
0.565408   0.00568455   0.025
0.591281   0.00568455   0.025
0.616868   0.00568455   0.025
0.642094   0.00568455   0.025
0.666887   0.00568455   0.025
0.691182   0.00568455   0.025
0.714918   0.00568455   0.025
0.738041   0.00568455   0.025
0.760504   0.00568455   0.025
0.782266   0.00568455   0.025
0.803293   0.00568455   0.025
0.823557   0.00568455   0.025
0.843039   0.00568455   0.025
0.861725   0.00568455   0.025
0.879605   0.00568455   0.025
0.896677   0.00568455   0.025
0.912945   0.00568455   0.025
0.928415   0.00568455   0.025
0.943099   0.00568455   0.025
0.957011   0.00568455   0.025
0.970171   0.00568455   0.025
0.982598   0.00568455   0.025
0.994315   0.00568455   0.025
0.00568455   0.0174023   0.025
0.0174023   0.0174023   0.025
0.0298294   0.0174023   0.025
0.0429888   0.0174023   0.025
0.0569012   0.0174023   0.025
0.0715849   0.0174023   0.025
0.0870549   0.0174023   0.025
0.103323   0.0174023   0.025
0.120395   0.0174023   0.025
0.138275   0.0174023   0.025
0.156961   0.0174023   0.025
0.176443   0.0174023   0.025
0.196707   0.0174023   0.025
0.217734   0.0174023   0.025
0.239496   0.0174023   0.025
0.261959   0.0174023   0.025
0.285082   0.0174023   0.025
0.308818   0.0174023   0.025
0.333113   0.0174023   0.025
0.357906   0.0174023   0.025
0.383132   0.0174023   0.025
0.408719   0.0174023   0.025
0.434592   0.0174023   0.025
0.460672   0.0174023   0.025
0.486877   0.0174023   0.025
0.513123   0.0174023   0.025
0.539328   0.0174023   0.025
0.565408   0.0174023   0.025
0.591281   0.0174023   0.025
0.616868   0.0174023   0.025
0.642094   0.0174023   0.025
0.666887   0.0174023   0.025
0.691182   0.0174023   0.025
0.714918   0.0174023   0.025
0.738041   0.0174023   0.025
0.760504   0.0174023   0.025
0.782266   0.0174023   0.025
0.803293   0.0174023   0.025
0.823557   0.0174023   0.025
0.843039   0.0174023   0.025
0.861725   0.0174023   0.025
0.879605   0.0174023   0.025
0.896677   0.0174023   0.025
0.912945   0.0174023   0.025
0.928415   0.0174023   0.025
0.943099   0.0174023   0.025
0.957011   0.0174023   0.025
0.970171   0.0174023   0.025
0.982598   0.0174023   0.025
0.994315   0.0174023   0.025
0.00568455   0.0298294   0.025
0.0174023   0.0298294   0.025
0.0298294   0.0298294   0.025
0.0429888   0.0298294   0.025
0.0569012   0.0298294   0.025
0.0715849   0.0298294   0.025
0.0870549   0.0298294   0.025
0.103323   0.0298294   0.025
0.120395   0.0298294   0.025
0.138275   0.0298294   0.025
0.156961   0.0298294   0.025
0.176443   0.0298294   0.025
0.196707   0.0298294   0.025
0.217734   0.0298294   0.025
0.239496   0.0298294   0.025
0.261959   0.0298294   0.025
0.285082   0.0298294   0.025
0.308818   0.0298294   0.025
0.333113   0.0298294   0.025
0.357906   0.0298294   0.025
0.383132   0.0298294   0.025
0.408719   0.0298294   0.025
0.434592   0.0298294   0.025
0.460672   0.0298294   0.025
0.486877   0.0298294   0.025
0.513123   0.0298294   0.025
0.539328   0.0298294   0.025
0.565408   0.0298294   0.025
0.591281   0.0298294   0.025
0.616868   0.0298294   0.025
0.642094   0.0298294   0.025
0.666887   0.0298294   0.025
0.691182   0.0298294   0.025
0.714918   0.0298294   0.025
0.738041   0.0298294   0.025
0.760504   0.0298294   0.025
0.782266   0.0298294   0.025
0.803293   0.0298294   0.025
0.823557   0.0298294   0.025
0.843039   0.0298294   0.025
0.861725   0.0298294   0.025
0.879605   0.0298294   0.025
0.896677   0.0298294   0.025
0.912945   0.0298294   0.025
0.928415   0.0298294   0.025
0.943099   0.0298294   0.025
0.957011   0.0298294   0.025
0.970171   0.0298294   0.025
0.982598   0.0298294   0.025
0.994315   0.0298294   0.025
0.00568455   0.0429888   0.025
0.0174023   0.0429888   0.025
0.0298294   0.0429888   0.025
0.0429888   0.0429888   0.025
0.0569012   0.0429888   0.025
0.0715849   0.0429888   0.025
0.0870549   0.0429888   0.025
0.103323   0.0429888   0.025
0.120395   0.0429888   0.025
0.138275   0.0429888   0.025
0.156961   0.0429888   0.025
0.176443   0.0429888   0.025
0.196707   0.0429888   0.025
0.217734   0.0429888   0.025
0.239496   0.0429888   0.025
0.261959   0.0429888   0.025
0.285082   0.0429888   0.025
0.308818   0.0429888   0.025
0.333113   0.0429888   0.025
0.357906   0.0429888   0.025
0.383132   0.0429888   0.025
0.408719   0.0429888   0.025
0.434592   0.0429888   0.025
0.460672   0.0429888   0.025
0.486877   0.0429888   0.025
0.513123   0.0429888   0.025
0.539328   0.0429888   0.025
0.565408   0.0429888   0.025
0.591281   0.0429888   0.025
0.616868   0.0429888   0.025
0.642094   0.0429888   0.025
0.666887   0.0429888   0.025
0.691182   0.0429888   0.025
0.714918   0.0429888   0.025
0.738041   0.0429888   0.025
0.760504   0.0429888   0.025
0.782266   0.0429888   0.025
0.803293   0.0429888   0.025
0.823557   0.0429888   0.025
0.843039   0.0429888   0.025
0.861725   0.0429888   0.025
0.879605   0.0429888   0.025
0.896677   0.0429888   0.025
0.912945   0.0429888   0.025
0.928415   0.0429888   0.025
0.943099   0.0429888   0.025
0.957011   0.0429888   0.025
0.970171   0.0429888   0.025
0.982598   0.0429888   0.025
0.994315   0.0429888   0.025
0.00568455   0.0569012   0.025
0.0174023   0.0569012   0.025
0.0298294   0.0569012   0.025
0.0429888   0.0569012   0.025
0.0569012   0.0569012   0.025
0.0715849   0.0569012   0.025
0.0870549   0.0569012   0.025
0.103323   0.0569012   0.025
0.120395   0.0569012   0.025
0.138275   0.0569012   0.025
0.156961   0.0569012   0.025
0.176443   0.0569012   0.025
0.196707   0.0569012   0.025
0.217734   0.0569012   0.025
0.239496   0.0569012   0.025
0.261959   0.0569012   0.025
0.285082   0.0569012   0.025
0.308818   0.0569012   0.025
0.333113   0.0569012   0.025
0.357906   0.0569012   0.025
0.383132   0.0569012   0.025
0.408719   0.0569012   0.025
0.434592   0.0569012   0.025
0.460672   0.0569012   0.025
0.486877   0.0569012   0.025
0.513123   0.0569012   0.025
0.539328   0.0569012   0.025
0.565408   0.0569012   0.025
0.591281   0.0569012   0.025
0.616868   0.0569012   0.025
0.642094   0.0569012   0.025
0.666887   0.0569012   0.025
0.691182   0.0569012   0.025
0.714918   0.0569012   0.025
0.738041   0.0569012   0.025
0.760504   0.0569012   0.025
0.782266   0.0569012   0.025
0.803293   0.0569012   0.025
0.823557   0.0569012   0.025
0.843039   0.0569012   0.025
0.861725   0.0569012   0.025
0.879605   0.0569012   0.025
0.896677   0.0569012   0.025
0.912945   0.0569012   0.025
0.928415   0.0569012   0.025
0.943099   0.0569012   0.025
0.957011   0.0569012   0.025
0.970171   0.0569012   0.025
0.982598   0.0569012   0.025
0.994315   0.0569012   0.025
0.00568455   0.0715849   0.025
0.0174023   0.0715849   0.025
0.0298294   0.0715849   0.025
0.0429888   0.0715849   0.025
0.0569012   0.0715849   0.025
0.0715849   0.0715849   0.025
0.0870549   0.0715849   0.025
0.103323   0.0715849   0.025
0.120395   0.0715849   0.025
0.138275   0.0715849   0.025
0.156961   0.0715849   0.025
0.176443   0.0715849   0.025
0.196707   0.0715849   0.025
0.217734   0.0715849   0.025
0.239496   0.0715849   0.025
0.261959   0.0715849   0.025
0.285082   0.0715849   0.025
0.308818   0.0715849   0.025
0.333113   0.0715849   0.025
0.357906   0.0715849   0.025
0.383132   0.0715849   0.025
0.408719   0.0715849   0.025
0.434592   0.0715849   0.025
0.460672   0.0715849   0.025
0.486877   0.0715849   0.025
0.513123   0.0715849   0.025
0.539328   0.0715849   0.025
0.565408   0.0715849   0.025
0.591281   0.0715849   0.025
0.616868   0.0715849   0.025
0.642094   0.0715849   0.025
0.666887   0.0715849   0.025
0.691182   0.0715849   0.025
0.714918   0.0715849   0.025
0.738041   0.0715849   0.025
0.760504   0.0715849   0.025
0.782266   0.0715849   0.025
0.803293   0.0715849   0.025
0.823557   0.0715849   0.025
0.843039   0.0715849   0.025
0.861725   0.0715849   0.025
0.879605   0.0715849   0.025
0.896677   0.0715849   0.025
0.912945   0.0715849   0.025
0.928415   0.0715849   0.025
0.943099   0.0715849   0.025
0.957011   0.0715849   0.025
0.970171   0.0715849   0.025
0.982598   0.0715849   0.025
0.994315   0.0715849   0.025
0.00568455   0.0870549   0.025
0.0174023   0.0870549   0.025
0.0298294   0.0870549   0.025
0.0429888   0.0870549   0.025
0.0569012   0.0870549   0.025
0.0715849   0.0870549   0.025
0.0870549   0.0870549   0.025
0.103323   0.0870549   0.025
0.120395   0.0870549   0.025
0.138275   0.0870549   0.025
0.156961   0.0870549   0.025
0.176443   0.0870549   0.025
0.196707   0.0870549   0.025
0.217734   0.0870549   0.025
0.239496   0.0870549   0.025
0.261959   0.0870549   0.025
0.285082   0.0870549   0.025
0.308818   0.0870549   0.025
0.333113   0.0870549   0.025
0.357906   0.0870549   0.025
0.383132   0.0870549   0.025
0.408719   0.0870549   0.025
0.434592   0.0870549   0.025
0.460672   0.0870549   0.025
0.486877   0.0870549   0.025
0.513123   0.0870549   0.025
0.539328   0.0870549   0.025
0.565408   0.0870549   0.025
0.591281   0.0870549   0.025
0.616868   0.0870549   0.025
0.642094   0.0870549   0.025
0.666887   0.0870549   0.025
0.691182   0.0870549   0.025
0.714918   0.0870549   0.025
0.738041   0.0870549   0.025
0.760504   0.0870549   0.025
0.782266   0.0870549   0.025
[...]
POINT_DATA   50000
SCALARS Presion double
LOOKUP_TABLE   Presion

0 0 0 0 0 0 0 0 0 0 0 0 0 0 0 0 0 0 0 0 0 0 0 0 0 0 0 0 0 0 0 0 0 0 0 0 0 0 0 0 0 0 0 0 0 0 0 0 0 0 0.00162856 0.00177275 0.00194672 0.00207244 0.00213578 0.00213799 0.00208363 0.00197776 0.00182514 0.00162989 0.00139523 0.0011227 0.000671917 0.000399496 0.000156816 -5.4241e-05 -0.000228807 -0.000358773 -0.000434622 -0.000447772 -0.000392967 -0.000270271 -8.60373e-05 0.000147367 0.000394197 0.000639411 0.000850155 0.00099989 0.00106745 0.00103917 0.000910458 0.000686472 0.000381806 1.93386e-05 -0.000371631 -0.000756745 -0.00100315 -0.0013617 -0.00169559 -0.00198742 -0.00222675 -0.0024079 -0.00252795 -0.00258548 -0.00257972 -0.00251019 -0.00237697 -0.00218355 -0.0019502 -0.00176868 0.00213849 0.00212733 0.00217598 0.00222553 0.00224691 0.0022282 0.0021658 0.00206004 0.00191306 0.00172799 0.00150901 0.00125994 0.000748724 0.000502465 0.000273422 6.85148e-05 -0.000105137 -0.000238772 -0.000322927 -0.000349269 -0.000312681 -0.00021308 -5.64098e-05 0.000143877 0.000363284 0.000577643 0.000759733 0.000884446 0.000931794 0.000888951 0.000751782 0.000525438 0.000223889 -0.000131594 -0.00051505 -0.000896677 -0.00107206 -0.00142775 -0.00175093 -0.00203021 -0.00225834 -0.00243159 -0.00254865 -0.00260998 -0.00261767 -0.00257596 -0.00249322 -0.00238668 -0.00229216 -0.00227857 0.00248452 0.00243522 0.00242056 0.00241499 0.00239748 0.00235472 0.00227975 0.00216987 0.00202512 0.00184759 0.00164157 0.00141016 0.000829911 0.00060572 0.000388853 0.000188243 1.24963e-05 -0.000128973 -0.000226471 -0.000271482 -0.000258468 -0.000186589 -6.09113e-05 0.000103952 0.000300489 0.000489881 0.000650689 0.000758721 0.000794098 0.000743584 0.00060239 0.000374929 7.43113e-05 -0.000279477 -0.000662692 -0.00104699 -0.00114728 -0.00150519 -0.0018232 -0.00209458 -0.00231549 -0.00248452 -0.00260226 -0.00267112 -0.00269542 -0.00268221 -0.00264271 -0.0025945 -0.00256328 -0.00257977 0.00277267 0.00271367 0.00266769 0.00262618 0.00257772 0.00251239 0.00242332 0.00230668 0.00216128 0.00198829 0.0017916 0.00157238 0.000917805 0.000709653 0.000500858 0.000300517 0.000117834 -3.73158e-05 -0.000154817 -0.000225514 -0.000242812 -0.000204367 -0.000113612 1.4391e-05 0.000189987 0.000360416 0.00050757 0.000607856 0.000640546 0.000590797 0.000452008 0.000226971 -7.25004e-05 -0.000427559 -0.000815731 -0.00120807 -0.00123311 -0.00159729 -0.00191458 -0.00218225 -0.00239972 -0.00256796 -0.00268937 -0.00276782 -0.00280882 -0.00281994 -0.00281131 -0.00279572 -0.00278724 -0.00279691 0.00305131 0.00298402 0.00291849 0.00285243 0.00278024 0.0026955 0.00259268 0.00246797 0.00231956 0.0021479 0.00195617 0.00174312 0.00101175 0.00081205 0.000604667 0.000397969 0.000201059 2.40332e-05 -0.000122412 -0.000228005 -0.000284375 -0.000286794 -0.000236038 -0.000146497 8.34025e-06 0.000165121 0.000306205 0.000408362 0.000449144 0.000410912 0.000283981 6.83955e-05 -0.000226088 -0.000581937 -0.00097736 -0.00138135 -0.00133441 -0.00170761 -0.00202729 -0.0022946 -0.00251198 -0.00268248 -0.00280989 -0.00289887 -0.00295509 -0.00298526 -0.002997 -0.0029983 -0.00299611 -0.00299402 0.00333964 0.00325881 0.00317587 0.00309027 0.00299901 0.00289783 0.00278232 0.00264892 0.00249544 0.0023216 0.00212975 0.00191582 0.00110762 0.000907083 0.000691796 0.000469093 0.000247557 3.73376e-05 -0.000150102 -0.000302851 -0.000409976 -0.000463367 -0.000459928 -0.00041205 -0.000277765 -0.000131159 1.09204e-05 0.000125318 0.000187023 0.000174362 7.30868e-05 -0.000120995 -0.000401398 -0.000752565 -0.00115329 -0.00156955 -0.00145744 -0.00184014 -0.0021634 -0.00243253 -0.00265259 -0.00282808 -0.00296352 -0.00306371 -0.00313375 -0.00317898 -0.00320468 -0.00321562 -0.0032153 -0.00320519 0.00364163 0.00354121 0.00343925 0.00333536 0.00322735 0.0031117 0.00298442 0.00284179 0.00268106 0.00250106 0.00230299 0.00207985 0.00119678 0.000984045 0.000748619 0.000496773 0.000236397 -2.23315e-05 -0.000266916 -0.000483232 -0.000656928 -0.000775435 -0.000830461 -0.000830974 -0.00071453 -0.000577971 -0.000429076 -0.000291396 -0.000193343 -0.000161963 -0.000217835 -0.00037136 -0.000621158 -0.000954971 -0.00135273 -0.00177702 -0.001611 -0.00199973 -0.00232496 -0.00259653 -0.00282135 -0.00300444 -0.00315016 -0.00326275 -0.00334637 -0.003405 -0.00344219 -0.00346091 -0.00346329 -0.00345051 0.00395154 0.00382621 0.00370252 0.00357984 0.00345577 0.00332659 0.00318782 0.00303498 0.00286427 0.00267324 0.00246158 0.00221922 0.00126463 0.00102585 0.000754755 0.000456607 0.000138606 -0.000188913 -0.000512052 -0.00081383 -0.00107558 -0.00127915 -0.0014097 -0.00147127 -0.00136478 -0.00124331 -0.00108413 -0.000911867 -0.000759128 -0.000659758 -0.000642763 -0.000727298 -0.0009197 -0.00121321 -0.00159028 -0.00201061 -0.00180811 -0.00219308 -0.00251456 -0.00278705 -0.00301795 -0.0032113 -0.00337015 -0.00349745 -0.0035961 -0.00366882 -0.00371802 -0.00374576 -0.00375376 -0.00374343 0.00425569 0.00410112 0.00395308 0.00381049 0.00367022 0.00352754 0.00337673 0.00321186 0.00302744 0.00281922 0.00258492 0.00231129 0.00128903 0.00100744 0.000681389 0.000315182 -8.45849e-05 -0.000507166 -0.000936792 -0.00135292 -0.00173163 -0.00204807 -0.00227955 -0.00242346 -0.0023121 -0.00221792 -0.00204891 -0.00183146 -0.00160301 -0.00140559 -0.00127897 -0.00125417 -0.00134873 -0.00156467 -0.00188952 -0.00228186 -0.00206897 -0.00243056 -0.00273667 -0.00300558 -0.00324273 -0.00344902 -0.00362465 -0.00377031 -0.00388721 -0.00397681 -0.00404068 -0.00408044 -0.00409774 -0.00409436 0.0045326 0.00434559 0.00417113 0.00400753 0.00385049 0.00369366 0.00352938 0.00334952 0.00314631 0.00291308 0.00264501 0.00232564 0.00123875 0.000894251 0.000489778 2.85897e-05 -0.00048319 -0.00103407 -0.00160588 -0.00217373 -0.00270751 -0.00317449 -0.00354294 -0.00380161 -0.00366439 -0.00361862 -0.0034461 -0.00317527 -0.00284858 -0.00251736 -0.00223437 -0.00204597 -0.00198522 -0.00206743 -0.00228916 -0.00261168 -0.00242582 -0.00272981 -0.00300043 -0.00325672 -0.00349829 -0.00371977 -0.00391639 -0.00408526 -0.00422519 -0.00433616 -0.0044189 -0.00447469 -0.00450528 -0.00451277 0.00475269 0.00453123 0.00432911 0.00414375 0.00396923 0.00379702 0.00361684 0.00341776 0.00318904 0.00292097 0.00260559 0.00222326 0.00107237 0.000641243 0.000130333 -0.000458354 -0.00111906 -0.0018392 -0.00259755 -0.00336408 -0.00410143 -0.00476784 -0.00532138 -0.00573962 -0.00555472 -0.00558832 -0.00542642 -0.00509889 -0.00465256 -0.00414831 -0.00365358 -0.0032333 -0.00294076 -0.00281016 -0.00285266 -0.00303912 -0.00293025 -0.00312171 -0.00332446 -0.00355196 -0.00379217 -0.00402936 -0.0042509 -0.00444848 -0.00461737 -0.00475544 -0.00486235 -0.00493897 -0.00498705 -0.00500899 0.00487815 0.0046216 0.00439152 0.00418412 0.00399139 0.00380202 0.00360254 0.00337857 0.0031158 0.00280089 0.00242206 0.00195652 0.000738042 0.000192851 -0.000457155 -0.00121156 -0.0020649 -0.00300307 -0.00400112 -0.00502293 -0.00602267 -0.00694829 -0.00774648 -0.00838039 -0.00813616 -0.00828897 -0.00816091 -0.00778112 -0.00719907 -0.0064841 -0.00571844 -0.00498768 -0.00436956 -0.00392327 -0.00368158 -0.00363573 -0.00366279 -0.00365914 -0.00374413 -0.00391503 -0.00414075 -0.00438994 -0.00463839 -0.0048697 -0.00507386 -0.00524558 -0.00538281 -0.00548567 -0.00555577 -0.00559574 0.00486341 0.00457275 0.0043155 0.00408632 0.00387462 0.00366576 0.00344254 0.00318655 0.00287937 0.00250338 0.0020424 0.00147041 0.000174649 -0.000515444 -0.00134147 -0.00230498 -0.00340072 -0.00461255 -0.00591094 -0.00725246 -0.0085814 -0.00983384 -0.0109438 -0.0118561 -0.0115664 -0.0118835 -0.0118211 -0.0114039 -0.0106808 -0.00972679 -0.00863662 -0.00751616 -0.0064699 -0.00558724 -0.00493027 -0.00452572 -0.00474224 -0.00442727 -0.0043202 -0.00438846 -0.00457377 -0.00482314 -0.00509588 -0.00536377 -0.00560887 -0.00582096 -0.00599519 -0.00613034 -0.00622757 -0.00628957 0.00465683 0.00433479 0.00405234 0.00380221 0.00357076 0.00333957 0.00308717 0.00279066 0.00242699 0.00197375 0.0014097 0.000705416 -0.000684908 -0.00155329 -0.0025954 -0.00381508 -0.00520701 -0.00675232 -0.0084157 -0.0101448 -0.0118723 -0.0135204 -0.0150089 -0.0162603 -0.0159793 -0.0165046 -0.016545 -0.0161164 -0.0152634 -0.0140612 -0.0126122 -0.0110387 -0.00947049 -0.00802988 -0.00681497 -0.00590639 -0.00632843 -0.00555095 -0.00514615 -0.00503946 -0.00513878 -0.00536312 -0.00564929 -0.00595208 -0.0062417 -0.00650026 -0.0067184 -0.00689253 -0.00702282 -0.00711179 0.00420366 0.00385491 0.00355048 0.00328081 0.00302884 0.00277198 0.00248412 0.0021375 0.00170401 0.00115596 0.000466516 -0.000397556 -0.00190794 -0.00298894 -0.00428824 -0.00581199 -0.00755429 -0.00949234 -0.0115834 -0.0137642 -0.0159533 -0.0180573 -0.0199797 -0.0216181 -0.0214449 -0.0222122 -0.0223922 -0.0219882 -0.0210356 -0.0196041 -0.0177962 -0.0157429 -0.0135936 -0.0115012 -0.00960362 -0.00805391 -0.0086086 -0.00719186 -0.00634959 -0.00596298 -0.00590419 -0.00605906 -0.00633512 -0.0066636 -0.00699739 -0.00730693 -0.00757567 -0.00779604 -0.00796636 -0.00808857 0.00345056 0.00308173 0.00275979 0.00247261 0.00219945 0.0019133 0.00158321 0.0011763 0.000659112 -1.67204e-06 -0.000838913 -0.00189021 -0.00355355 -0.00488005 -0.00647547 -0.00834789 -0.0104897 -0.0128725 -0.0154438 -0.0181269 -0.0208241 -0.0234239 -0.0258124 -0.0278615 -0.0279274 -0.028953 -0.0293016 -0.0289625 -0.0279585 -0.0263481 -0.0242259 -0.0217213 -0.0189929 -0.0162169 -0.0135698 -0.0112897 -0.0117608 -0.0095289 -0.00808404 -0.00727995 -0.00696029 -0.00697671 -0.00720171 -0.00753557 -0.00790689 -0.00826893 -0.00859406 -0.00886832 -0.00908673 -0.00925002 0.00235137 0.00197097 0.0016372 0.0013352 0.00104047 0.000721488 0.000342429 -0.000134765 -0.000749 -0.00153939 -0.00254502 -0.00380847 -0.00566237 -0.00726268 -0.00918692 -0.011444 -0.014023 -0.0168875 -0.0199727 -0.0231856 -0.02641 -0.0295154 -0.0323695 -0.0348221 -0.0352589 -0.0365373 -0.0370695 -0.0368323 -0.0358351 -0.0341223 -0.0317741 -0.0289083 -0.0256799 -0.0222762 -0.0189048 -0.015889 -0.0159016 -0.0127224 -0.0105099 -0.0091295 -0.00841734 -0.00819875 -0.0083099 -0.00861375 -0.00900678 -0.00941801 -0.00980343 -0.010139 -0.0104145 -0.0106283 0.000873673 0.000491756 0.000152949 -0.00016043 -0.000476598 -0.000831384 -0.00126536 -0.0018216 -0.00254435 -0.00347842 -0.00466896 -0.00616406 -0.00824594 -0.0101404 -0.0124155 -0.0150793 -0.0181151 -0.0214761 -0.0250821 -0.0288217 -0.0325589 -0.0361441 -0.0394284 -0.0422459 -0.0431464 -0.0446518 -0.045365 -0.0452551 -0.0443211 -0.0425939 -0.0401366 -0.0370483 -0.033469 -0.0295823 -0.0256131 -0.0219501 -0.0210417 -0.0168733 -0.0137669 -0.0116536 -0.0103986 -0.00982249 -0.00973249 -0.00995203 -0.0103384 -0.0107883 -0.0112345 -0.0116379 -0.0119798 -0.0122546 -0.000994967 -0.00136724 -0.00170342 -0.00202394 -0.00236049 -0.00275289 -0.00324607 -0.00388775 -0.0047271 -0.00581423 -0.00719985 -0.00893758 -0.0112783 -0.0134762 -0.0161096 -0.0191836 -0.0226734 -0.0265188 -0.0306223 -0.0348527 -0.0390542 -0.0430602 -0.0467087 -0.0498275 -0.0512175 -0.0529098 -0.0537848 -0.0538107 -0.0529822 -0.0513209 -0.0488743 -0.0457209 -0.0419778 -0.0378115 -0.0334448 -0.0292929 -0.0270713 -0.0219898 -0.0179409 -0.0149724 -0.0130258 -0.0119523 -0.0115505 -0.0116103 -0.011946 -0.0124142 -0.0129161 -0.0133915 -0.0138088 -0.0141558 -0.0032421 -0.00359312 -0.00391842 -0.004241 -0.00459564 -0.00502565 -0.00557977 -0.00630974 -0.00726903 -0.00851228 -0.0100948 -0.0120752 -0.0146921 -0.0171894 -0.0201717 -0.0236388 -0.0275555 -0.0318463 -0.0363953 -0.0410515 -0.0456413 -0.0499849 -0.0539125 -0.0572547 -0.0590906 -0.060923 -0.0619285 -0.0620814 -0.0613788 -0.0598393 -0.0575002 -0.0544216 -0.0506956 -0.0464614 -0.04192 -0.0374627 -0.0337763 -0.0279694 -0.0230305 -0.0191518 -0.0163941 -0.0146838 -0.0138443 -0.013649 -0.0138726 -0.0143261 -0.0148713 -0.0154189 -0.0159189 -0.0163493 -0.00582809 -0.00614656 -0.00645251 -0.00677123 -0.00714014 -0.00760543 -0.00821892 -0.00903561 -0.0101124 -0.0115073 -0.0132791 -0.0154901 -0.0183812 -0.0211598 -0.0244643 -0.0282873 -0.0325818 -0.0372564 -0.0421767 -0.0471741 -0.0520607 -0.0566477 -0.0607638 -0.0642499 -0.0664405 -0.0683664 -0.0694656 -0.0697232 -0.0691448 -0.0677516 -0.065577 -0.0626686 -0.0590962 -0.0549671 -0.0504448 -0.0458524 -0.0408685 -0.0345972 -0.0289218 -0.0241687 -0.0205408 -0.0180802 -0.0166772 -0.0161186 -0.0161526 -0.0165451 -0.0171118 -0.0177263 -0.0183136 -0.0188375 -0.00868716 -0.00896289 -0.00924124 -0.00954951 -0.0099272 -0.0104228 -0.0110903 -0.0119872 -0.0131726 -0.014707 -0.0166509 -0.0190685 -0.0222095 -0.0252378 -0.0288223 -0.0329477 -0.0375546 -0.0425361 -0.0477416 -0.052988 -0.0580772 -0.0628166 -0.067038 -0.0705969 -0.0730366 -0.0750149 -0.0761716 -0.0765051 -0.0760321 -0.0747808 -0.0727862 -0.0700898 -0.0667452 -0.0628294 -0.0584614 -0.0538716 -0.0480157 -0.0415626 -0.0353809 -0.0298862 -0.0254133 -0.0221435 -0.0200741 -0.0190443 -0.0188011 -0.0190742 -0.0196308 -0.0203003 -0.0209755 -0.0216008 -0.0117321 -0.0119567 -0.0121999 -0.0124907 -0.0128701 -0.0133882 -0.0141006 -0.0150661 -0.0163453 -0.0179995 -0.0200895 -0.0226794 -0.0260234 -0.0292587 -0.0330697 -0.0374328 -0.0422772 -0.047483 -0.0528863 -0.0582933 -0.0635 -0.0683143 -0.072574 -0.0761502 -0.0787469 -0.0807445 -0.0819282 -0.0823086 -0.0819138 -0.0807806 -0.0789491 -0.0764607 -0.0733595 -0.0696995 -0.0655578 -0.0610729 -0.0548753 -0.0484964 -0.0420754 -0.0360511 -0.0308504 -0.0267889 -0.0239975 -0.0224078 -0.0218004 -0.0218882 -0.0223943 -0.0231 -0.023859 -0.0245906 -0.0148618 -0.0150294 -0.0152311 -0.0154973 -0.01587 -0.0164004 -0.0171449 -0.018163 -0.0195154 -0.0212632 -0.0234665 -0.0261869 -0.0296675 -0.0330589 -0.0370355 -0.0415665 -0.0465719 -0.0519216 -0.0574424 -0.062934 -0.0681901 -0.0730212 -0.0772724 -0.080829 -0.0835181 -0.0855115 -0.0866998 -0.0871029 -0.0867581 -0.0857104 -0.0840069 -0.0816928 -0.0788097 -0.0753979 -0.0715032 -0.0671923 -0.0611309 -0.0550232 -0.0486205 -0.0423215 -0.0365867 -0.0318339 -0.0283304 -0.0261306 -0.0250868 -0.0249238 -0.0253339 -0.0260508 -0.0268845 -0.0277238 -0.0179712 -0.0180786 -0.018234 -0.0184688 -0.0188257 -0.0193562 -0.020117 -0.0211675 -0.022568 -0.0243785 -0.026657 -0.0294612 -0.0329975 -0.0364893 -0.0405678 -0.045197 -0.0502907 -0.0557123 -0.0612833 -0.0668003 -0.0720573 -0.0768683 -0.0810848 -0.0846028 -0.0873481 -0.0893236 -0.090503 -0.0909113 -0.090592 -0.0895972 -0.0879809 -0.0857946 -0.0830829 -0.079882 -0.0762205 -0.0721211 -0.0665279 -0.0608145 -0.0546392 -0.0483168 -0.0422836 -0.0370085 -0.0328728 -0.0300648 -0.028541 -0.0280719 -0.0283404 -0.0290399 -0.0299351 -0.0308795 -0.0209607 -0.0210076 -0.0211139 -0.0213114 -0.021643 -0.0221601 -0.0229191 -0.023979 -0.025399 -0.0272375 -0.02955 -0.0323888 -0.0358909 -0.0394255 -0.0435429 -0.0482046 -0.0533215 -0.0587544 -0.0643232 -0.0698242 -0.0750528 -0.0798259 -0.0839991 -0.087475 -0.0902623 -0.0922149 -0.0933797 -0.0937828 -0.0934709 -0.0925011 -0.0909338 -0.0888281 -0.0862352 -0.0831949 -0.0797322 -0.0758528 -0.0708943 -0.0656256 -0.0598153 -0.0536767 -0.0475788 -0.0419877 -0.0373569 -0.0339969 -0.031987 -0.0311753 -0.0312625 -0.0319155 -0.0328559 -0.0338999 -0.0237451 -0.023734 -0.0237905 -0.0239461 -0.0242433 -0.0247328 -0.0254706 -0.0265146 -0.027923 -0.0297522 -0.0320555 -0.0348794 -0.0382532 -0.0417734 -0.0458698 -0.0505042 -0.0555884 -0.0609843 -0.066513 -0.0719724 -0.0771595 -0.0818925 -0.0860278 -0.0894699 -0.0922985 -0.0942309 -0.0953818 -0.0957755 -0.095459 -0.0944927 -0.0929429 -0.0908759 -0.0883522 -0.0854202 -0.0821112 -0.0784345 -0.0741435 -0.0693082 -0.0639239 -0.0581072 -0.0521376 -0.046435 -0.0414764 -0.0376642 -0.0352003 -0.0340335 -0.0339104 -0.0344903 -0.0354592 -0.036595 -0.0262596 -0.0261958 -0.0262039 -0.0263145 -0.0265691 -0.0270172 -0.0277134 -0.028715 -0.0300787 -0.0318598 -0.0341095 -0.0368694 -0.040021 -0.0434712 -0.0474907 -0.052045 -0.0570499 -0.0623714 -0.0678345 -0.0732395 -0.0783844 -0.0830865 -0.0871995 -0.090625 -0.0935001 -0.0954209 -0.0965637 -0.0969486 -0.0966212 -0.0956434 -0.0940864 -0.0920241 -0.0895263 -0.086653 -0.0834477 -0.0799362 -0.0762609 -0.0718024 -0.0668376 -0.0614042 -0.055691 -0.050045 -0.0449238 -0.0407816 -0.037925 -0.0364138 -0.0360643 -0.0365499 -0.0375313 -0.0387508 -0.0284633 -0.0283542 -0.0283173 -0.0283819 -0.0285871 -0.0289805 -0.029615 -0.0305466 -0.0318315 -0.0335241 -0.0356751 -0.0383223 -0.0411607 -0.0444876 -0.0483793 -0.0528072 -0.0576944 -0.0629137 -0.0682953 -0.0736426 -0.0787534 -0.0834416 -0.0875549 -0.0909869 -0.0939146 -0.0958373 -0.0969817 -0.0973624 -0.0970222 -0.0960234 -0.0944411 -0.0923561 -0.0898476 -0.0869875 -0.083834 -0.0804353 -0.0772854 -0.0731173 -0.0685134 -0.0634555 -0.0580531 -0.0525725 -0.0474222 -0.0430687 -0.0398947 -0.0380664 -0.0374861 -0.0378615 -0.0388421 -0.0401385 -0.0303393 -0.0301938 -0.0301174 -0.0301367 -0.0302875 -0.0306142 -0.0311673 -0.0320012 -0.0331718 -0.0347344 -0.0367406 -0.0392271 -0.0416658 -0.0448188 -0.0485362 -0.0527981 -0.0575367 -0.0626337 -0.0679255 -0.0732184 -0.0783087 -0.0830049 -0.0871452 -0.090611 -0.0935949 -0.095537 -0.0966962 -0.0970809 -0.0967299 -0.0957052 -0.0940848 -0.0919553 -0.0894049 -0.0865161 -0.0833617 -0.0800132 -0.0772913 -0.0733103 -0.0689727 -0.0642263 -0.0591201 -0.053845 -0.0487466 -0.044273 -0.0408516 -0.0387392 -0.0379303 -0.0381845 -0.0391534 -0.0405222 -0.0318924 -0.0317208 -0.0316119 -0.0315885 -0.0316817 -0.0319311 -0.0323836 -0.0330919 -0.0341121 -0.0355017 -0.0373163 -0.0395942 -0.0415526 -0.044484 -0.0479855 -0.0520477 -0.0566139 -0.0615751 -0.0667746 -0.0720211 -0.0771083 -0.0818368 -0.0860332 -0.0895632 -0.0926014 -0.094584 -0.0957745 -0.0961746 -0.0958188 -0.0947676 -0.0931007 -0.0909099 -0.0882902 -0.0853337 -0.082125 -0.0787568 -0.0763752 -0.0724688 -0.0682803 -0.0637403 -0.0588569 -0.0537597 -0.0487311 -0.0441832 -0.0405603 -0.038189 -0.0371534 -0.0372762 -0.0382243 -0.039664 -0.033145 -0.0329586 -0.0328257 -0.0327638 -0.0327978 -0.0329605 -0.0332939 -0.0338483 -0.0346809 -0.0358535 -0.0374286 -0.0394504 -0.040855 -0.0435204 -0.0467698 -0.0506054 -0.054982 -0.0598005 -0.0649105 -0.0701223 -0.0752257 -0.0800122 -0.0842946 -0.0879207 -0.0910038 -0.0930512 -0.0942927 -0.0947237 -0.0943732 -0.0932991 -0.0915821 -0.0893169 -0.0866042 -0.0835429 -0.0802261 -0.0767632 -0.074648 -0.0706989 -0.0665272 -0.0620589 -0.057278 -0.0522704 -0.0472643 -0.042631 -0.0388133 -0.036187 -0.0349167 -0.0348942 -0.0358124 -0.0373243 -0.0341325 -0.0339434 -0.0337962 -0.0337015 -0.0336757 -0.0337431 -0.0339388 -0.0343102 -0.0349168 -0.0358271 -0.0371144 -0.0388335 -0.0396195 -0.0419788 -0.0449462 -0.0485359 -0.0527135 -0.0573891 -0.0624175 -0.0676096 -0.0727503 -0.0776206 -0.0820189 -0.0857739 -0.0888826 -0.0910214 -0.0923373 -0.0928182 -0.0924874 -0.0913991 -0.0896328 -0.0872847 -0.0844587 -0.0812573 -0.0777784 -0.0741413 -0.0722297 -0.0681164 -0.0638183 -0.0592643 -0.0544284 -0.0493695 -0.0442764 -0.0394845 -0.0354283 -0.0325175 -0.0309855 -0.0307942 -0.0316701 -0.0332575 -0.0348988 -0.0347202 -0.0345695 -0.0344486 -0.0343629 -0.0343256 -0.0343637 -0.0345214 -0.0348617 -0.0354634 -0.036415 -0.0377871 -0.0379007 -0.0399201 -0.0425834 -0.0459164 -0.0498944 -0.0544344 -0.0593949 -0.0645858 -0.0697861 -0.0747661 -0.0793088 -0.0832249 -0.0863291 -0.0885878 -0.0900041 -0.0905578 -0.0902653 -0.0891761 -0.0873666 -0.084932 -0.081976 -0.0786016 -0.0749068 -0.0710126 -0.0692447 -0.0648408 -0.0602626 -0.0554463 -0.0503661 -0.0450693 -0.0397218 -0.0346356 -0.0302396 -0.0269712 -0.0251227 -0.0247231 -0.0255372 -0.027204 -0.0354923 -0.035339 -0.035197 -0.035057 -0.0349103 -0.0347569 -0.0346142 -0.0345239 -0.0345552 -0.0348015 -0.0353715 -0.0363568 -0.0357578 -0.0374117 -0.0397587 -0.0428346 -0.0466221 -0.0510421 -0.0559543 -0.061166 -0.0664498 -0.0715648 -0.076279 -0.0803866 -0.0834448 -0.0858521 -0.0873964 -0.0880487 -0.0878172 -0.0867447 -0.0849027 -0.0823823 -0.0792838 -0.0757065 -0.0717433 -0.0675072 -0.0658169 -0.0609899 -0.0559665 -0.0506921 -0.0451486 -0.0393855 -0.0335626 -0.0279843 -0.0230855 -0.0193346 -0.0170786 -0.0164092 -0.0171311 -0.0188798 -0.0359637 -0.0358537 -0.0357345 -0.0355819