# vtk DataFile Version 2.0
Presion
ASCII

DATASET STRUCTURED_GRID
DIMENSIONS   50   50   20

POINTS   50000   double
0.00568455   0.00568455   0.025
0.0174023   0.00568455   0.025
0.0298294   0.00568455   0.025
0.0429888   0.00568455   0.025
0.0569012   0.00568455   0.025
0.0715849   0.00568455   0.025
0.0870549   0.00568455   0.025
0.103323   0.00568455   0.025
0.120395   0.00568455   0.025
0.138275   0.00568455   0.025
0.156961   0.00568455   0.025
0.176443   0.00568455   0.025
0.196707   0.00568455   0.025
0.217734   0.00568455   0.025
0.239496   0.00568455   0.025
0.261959   0.00568455   0.025
0.285082   0.00568455   0.025
0.308818   0.00568455   0.025
0.333113   0.00568455   0.025
0.357906   0.00568455   0.025
0.383132   0.00568455   0.025
0.408719   0.00568455   0.025
0.434592   0.00568455   0.025
0.460672   0.00568455   0.025
0.486877   0.00568455   0.025
0.513123   0.00568455   0.025
0.539328   0.00568455   0.025
0.565408   0.00568455   0.025
0.591281   0.00568455   0.025
0.616868   0.00568455   0.025
0.642094   0.00568455   0.025
0.666887   0.00568455   0.025
0.691182   0.00568455   0.025
0.714918   0.00568455   0.025
0.738041   0.00568455   0.025
0.760504   0.00568455   0.025
0.782266   0.00568455   0.025
0.803293   0.00568455   0.025
0.823557   0.00568455   0.025
0.843039   0.00568455   0.025
0.861725   0.00568455   0.025
0.879605   0.00568455   0.025
0.896677   0.00568455   0.025
0.912945   0.00568455   0.025
0.928415   0.00568455   0.025
0.943099   0.00568455   0.025
0.957011   0.00568455   0.025
0.970171   0.00568455   0.025
0.982598   0.00568455   0.025
0.994315   0.00568455   0.025
0.00568455   0.0174023   0.025
0.0174023   0.0174023   0.025
0.0298294   0.0174023   0.025
0.0429888   0.0174023   0.025
0.0569012   0.0174023   0.025
0.0715849   0.0174023   0.025
0.0870549   0.0174023   0.025
0.103323   0.0174023   0.025
0.120395   0.0174023   0.025
0.138275   0.0174023   0.025
0.156961   0.0174023   0.025
0.176443   0.0174023   0.025
0.196707   0.0174023   0.025
0.217734   0.0174023   0.025
0.239496   0.0174023   0.025
0.261959   0.0174023   0.025
0.285082   0.0174023   0.025
0.308818   0.0174023   0.025
0.333113   0.0174023   0.025
0.357906   0.0174023   0.025
0.383132   0.0174023   0.025
0.408719   0.0174023   0.025
0.434592   0.0174023   0.025
0.460672   0.0174023   0.025
0.486877   0.0174023   0.025
0.513123   0.0174023   0.025
0.539328   0.0174023   0.025
0.565408   0.0174023   0.025
0.591281   0.0174023   0.025
0.616868   0.0174023   0.025
0.642094   0.0174023   0.025
0.666887   0.0174023   0.025
0.691182   0.0174023   0.025
0.714918   0.0174023   0.025
0.738041   0.0174023   0.025
0.760504   0.0174023   0.025
0.782266   0.0174023   0.025
0.803293   0.0174023   0.025
0.823557   0.0174023   0.025
0.843039   0.0174023   0.025
0.861725   0.0174023   0.025
0.879605   0.0174023   0.025
0.896677   0.0174023   0.025
0.912945   0.0174023   0.025
0.928415   0.0174023   0.025
0.943099   0.0174023   0.025
0.957011   0.0174023   0.025
0.970171   0.0174023   0.025
0.982598   0.0174023   0.025
0.994315   0.0174023   0.025
0.00568455   0.0298294   0.025
0.0174023   0.0298294   0.025
0.0298294   0.0298294   0.025
0.0429888   0.0298294   0.025
0.0569012   0.0298294   0.025
0.0715849   0.0298294   0.025
0.0870549   0.0298294   0.025
0.103323   0.0298294   0.025
0.120395   0.0298294   0.025
0.138275   0.0298294   0.025
0.156961   0.0298294   0.025
0.176443   0.0298294   0.025
0.196707   0.0298294   0.025
0.217734   0.0298294   0.025
0.239496   0.0298294   0.025
0.261959   0.0298294   0.025
0.285082   0.0298294   0.025
0.308818   0.0298294   0.025
0.333113   0.0298294   0.025
0.357906   0.0298294   0.025
0.383132   0.0298294   0.025
0.408719   0.0298294   0.025
0.434592   0.0298294   0.025
0.460672   0.0298294   0.025
0.486877   0.0298294   0.025
0.513123   0.0298294   0.025
0.539328   0.0298294   0.025
0.565408   0.0298294   0.025
0.591281   0.0298294   0.025
0.616868   0.0298294   0.025
0.642094   0.0298294   0.025
0.666887   0.0298294   0.025
0.691182   0.0298294   0.025
0.714918   0.0298294   0.025
0.738041   0.0298294   0.025
0.760504   0.0298294   0.025
0.782266   0.0298294   0.025
0.803293   0.0298294   0.025
0.823557   0.0298294   0.025
0.843039   0.0298294   0.025
0.861725   0.0298294   0.025
0.879605   0.0298294   0.025
0.896677   0.0298294   0.025
0.912945   0.0298294   0.025
0.928415   0.0298294   0.025
0.943099   0.0298294   0.025
0.957011   0.0298294   0.025
0.970171   0.0298294   0.025
0.982598   0.0298294   0.025
0.994315   0.0298294   0.025
0.00568455   0.0429888   0.025
0.0174023   0.0429888   0.025
0.0298294   0.0429888   0.025
0.0429888   0.0429888   0.025
0.0569012   0.0429888   0.025
0.0715849   0.0429888   0.025
0.0870549   0.0429888   0.025
0.103323   0.0429888   0.025
0.120395   0.0429888   0.025
0.138275   0.0429888   0.025
0.156961   0.0429888   0.025
0.176443   0.0429888   0.025
0.196707   0.0429888   0.025
0.217734   0.0429888   0.025
0.239496   0.0429888   0.025
0.261959   0.0429888   0.025
0.285082   0.0429888   0.025
0.308818   0.0429888   0.025
0.333113   0.0429888   0.025
0.357906   0.0429888   0.025
0.383132   0.0429888   0.025
0.408719   0.0429888   0.025
0.434592   0.0429888   0.025
0.460672   0.0429888   0.025
0.486877   0.0429888   0.025
0.513123   0.0429888   0.025
0.539328   0.0429888   0.025
0.565408   0.0429888   0.025
0.591281   0.0429888   0.025
0.616868   0.0429888   0.025
0.642094   0.0429888   0.025
0.666887   0.0429888   0.025
0.691182   0.0429888   0.025
0.714918   0.0429888   0.025
0.738041   0.0429888   0.025
0.760504   0.0429888   0.025
0.782266   0.0429888   0.025
0.803293   0.0429888   0.025
0.823557   0.0429888   0.025
0.843039   0.0429888   0.025
0.861725   0.0429888   0.025
0.879605   0.0429888   0.025
0.896677   0.0429888   0.025
0.912945   0.0429888   0.025
0.928415   0.0429888   0.025
0.943099   0.0429888   0.025
0.957011   0.0429888   0.025
0.970171   0.0429888   0.025
0.982598   0.0429888   0.025
0.994315   0.0429888   0.025
0.00568455   0.0569012   0.025
0.0174023   0.0569012   0.025
0.0298294   0.0569012   0.025
0.0429888   0.0569012   0.025
0.0569012   0.0569012   0.025
0.0715849   0.0569012   0.025
0.0870549   0.0569012   0.025
0.103323   0.0569012   0.025
0.120395   0.0569012   0.025
0.138275   0.0569012   0.025
0.156961   0.0569012   0.025
0.176443   0.0569012   0.025
0.196707   0.0569012   0.025
0.217734   0.0569012   0.025
0.239496   0.0569012   0.025
0.261959   0.0569012   0.025
0.285082   0.0569012   0.025
0.308818   0.0569012   0.025
0.333113   0.0569012   0.025
0.357906   0.0569012   0.025
0.383132   0.0569012   0.025
0.408719   0.0569012   0.025
0.434592   0.0569012   0.025
0.460672   0.0569012   0.025
0.486877   0.0569012   0.025
0.513123   0.0569012   0.025
0.539328   0.0569012   0.025
0.565408   0.0569012   0.025
0.591281   0.0569012   0.025
0.616868   0.0569012   0.025
0.642094   0.0569012   0.025
0.666887   0.0569012   0.025
0.691182   0.0569012   0.025
0.714918   0.0569012   0.025
0.738041   0.0569012   0.025
0.760504   0.0569012   0.025
0.782266   0.0569012   0.025
0.803293   0.0569012   0.025
0.823557   0.0569012   0.025
0.843039   0.0569012   0.025
0.861725   0.0569012   0.025
0.879605   0.0569012   0.025
0.896677   0.0569012   0.025
0.912945   0.0569012   0.025
0.928415   0.0569012   0.025
0.943099   0.0569012   0.025
0.957011   0.0569012   0.025
0.970171   0.0569012   0.025
0.982598   0.0569012   0.025
0.994315   0.0569012   0.025
0.00568455   0.0715849   0.025
0.0174023   0.0715849   0.025
0.0298294   0.0715849   0.025
0.0429888   0.0715849   0.025
0.0569012   0.0715849   0.025
0.0715849   0.0715849   0.025
0.0870549   0.0715849   0.025
0.103323   0.0715849   0.025
0.120395   0.0715849   0.025
0.138275   0.0715849   0.025
0.156961   0.0715849   0.025
0.176443   0.0715849   0.025
0.196707   0.0715849   0.025
0.217734   0.0715849   0.025
0.239496   0.0715849   0.025
0.261959   0.0715849   0.025
0.285082   0.0715849   0.025
0.308818   0.0715849   0.025
0.333113   0.0715849   0.025
0.357906   0.0715849   0.025
0.383132   0.0715849   0.025
0.408719   0.0715849   0.025
0.434592   0.0715849   0.025
0.460672   0.0715849   0.025
0.486877   0.0715849   0.025
0.513123   0.0715849   0.025
0.539328   0.0715849   0.025
0.565408   0.0715849   0.025
0.591281   0.0715849   0.025
0.616868   0.0715849   0.025
0.642094   0.0715849   0.025
0.666887   0.0715849   0.025
0.691182   0.0715849   0.025
0.714918   0.0715849   0.025
0.738041   0.0715849   0.025
0.760504   0.0715849   0.025
0.782266   0.0715849   0.025
0.803293   0.0715849   0.025
0.823557   0.0715849   0.025
0.843039   0.0715849   0.025
0.861725   0.0715849   0.025
0.879605   0.0715849   0.025
0.896677   0.0715849   0.025
0.912945   0.0715849   0.025
0.928415   0.0715849   0.025
0.943099   0.0715849   0.025
0.957011   0.0715849   0.025
0.970171   0.0715849   0.025
0.982598   0.0715849   0.025
0.994315   0.0715849   0.025
0.00568455   0.0870549   0.025
0.0174023   0.0870549   0.025
0.0298294   0.0870549   0.025
0.0429888   0.0870549   0.025
0.0569012   0.0870549   0.025
0.0715849   0.0870549   0.025
0.0870549   0.0870549   0.025
0.103323   0.0870549   0.025
0.120395   0.0870549   0.025
0.138275   0.0870549   0.025
0.156961   0.0870549   0.025
0.176443   0.0870549   0.025
0.196707   0.0870549   0.025
0.217734   0.0870549   0.025
0.239496   0.0870549   0.025
0.261959   0.0870549   0.025
0.285082   0.0870549   0.025
0.308818   0.0870549   0.025
0.333113   0.0870549   0.025
0.357906   0.0870549   0.025
0.383132   0.0870549   0.025
0.408719   0.0870549   0.025
0.434592   0.0870549   0.025
0.460672   0.0870549   0.025
0.486877   0.0870549   0.025
0.513123   0.0870549   0.025
0.539328   0.0870549   0.025
0.565408   0.0870549   0.025
0.591281   0.0870549   0.025
0.616868   0.0870549   0.025
0.642094   0.0870549   0.025
0.666887   0.0870549   0.025
0.691182   0.0870549   0.025
0.714918   0.0870549   0.025
0.738041   0.0870549   0.025
0.760504   0.0870549   0.025
0.782266   0.0870549   0.025
[...]
POINT_DATA   50000
SCALARS Presion double
LOOKUP_TABLE   Presion

0 0 0 0 0 0 0 0 0 0 0 0 0 0 0 0 0 0 0 0 0 0 0 0 0 0 0 0 0 0 0 0 0 0 0 0 0 0 0 0 0 0 0 0 0 0 0 0 0 0 0.00161374 0.0017565 0.0019287 0.00205306 0.00211566 0.00211775 0.0020639 0.00195912 0.00180815 0.00161502 0.00138291 0.00111326 0.000666279 0.000396794 0.000156946 -5.14606e-05 -0.000223667 -0.000351692 -0.000426139 -0.000438524 -0.000383644 -0.000261558 -7.85542e-05 0.000153104 0.000398288 0.000641606 0.000850573 0.000998832 0.00106535 0.00103655 0.000907874 0.000684454 0.000380821 1.97479e-05 -0.000369605 -0.000753056 -0.000998473 -0.00135551 -0.00168805 -0.00197875 -0.00221718 -0.00239767 -0.0025173 -0.00257462 -0.0025689 -0.00249966 -0.00236697 -0.00217434 -0.00194195 -0.00176116 0.00211936 0.00210818 0.00215623 0.00220516 0.00222622 0.00220762 0.00214583 0.00204118 0.0018958 0.00171278 0.00149621 0.00124984 0.000742676 0.000499147 0.000272813 7.04848e-05 -0.000100835 -0.000232514 -0.000315209 -0.000340687 -0.000303884 -0.000204719 -4.90831e-05 0.000149681 0.00036764 0.0005803 0.00076078 0.000884147 0.000930548 0.000887239 0.00075012 0.000524325 0.000223762 -0.000130393 -0.000512301 -0.000892307 -0.00106705 -0.00142126 -0.00174317 -0.0020214 -0.0022487 -0.00242133 -0.00253798 -0.00259911 -0.00260678 -0.00256523 -0.00248282 -0.00237668 -0.0022825 -0.00226889 0.00246268 0.00241366 0.00239896 0.00239328 0.00237581 0.00233342 0.0022592 0.00215048 0.00200734 0.00183181 0.00162811 0.00139928 0.000823344 0.000601716 0.00038746 0.000189393 1.59947e-05 -0.000123448 -0.000219367 -0.000263344 -0.000249906 -0.000178226 -5.33308e-05 0.000110285 0.000305532 0.00049338 0.000652682 0.000759421 0.000793859 0.000742853 0.000601661 0.00037469 7.49963e-05 -0.000277523 -0.000659233 -0.00104192 -0.00114189 -0.00149835 -0.00181514 -0.00208555 -0.00230568 -0.00247412 -0.00259147 -0.00266009 -0.00268432 -0.00267115 -0.00263178 -0.00258371 -0.00255254 -0.00256886 0.00274867 0.00268997 0.0026442 0.00260289 0.00255477 0.00249002 0.00240184 0.00228646 0.0021427 0.0019717 0.00177729 0.00156058 0.000910572 0.000704877 0.000498652 0.000300875 0.000120624 -3.23543e-05 -0.00014807 -0.000217475 -0.000234052 -0.000195493 -0.000105209 2.18596e-05 0.000196319 0.000365317 0.000511005 0.000609968 0.000641632 0.000591271 0.000452351 0.000227678 -7.09758e-05 -0.000424843 -0.000811553 -0.0012023 -0.00122727 -0.00159002 -0.00190616 -0.00217291 -0.00238965 -0.00255733 -0.00267835 -0.00275653 -0.00279738 -0.00280845 -0.00279981 -0.00278421 -0.00277567 -0.00278517 0.00302519 0.00295821 0.00289302 0.00282737 0.00275572 0.00267174 0.00256996 0.00244661 0.0022999 0.00213025 0.00194082 0.00173027 0.00100368 0.000806427 0.000601659 0.000397634 0.000203336 2.8733e-05 -0.000115609 -0.000219538 -0.000274786 -0.000276684 -0.000226022 -0.00013707 1.68142e-05 0.000172237 0.00031183 0.000412546 0.000452111 0.000413033 0.000285725 7.02742e-05 -0.000223581 -0.000578376 -0.000972416 -0.00137484 -0.00132799 -0.00169982 -0.00201842 -0.00228487 -0.00250157 -0.00267154 -0.00279854 -0.00288722 -0.00294324 -0.00297326 -0.00298489 -0.0029861 -0.0029838 -0.00298158 0.00331123 0.00323077 0.00314828 0.00306323 0.00297267 0.00287239 0.00275805 0.00262612 0.00247442 0.00230268 0.00211318 0.00190184 0.00109857 0.000900579 0.000688071 0.000468276 0.000249665 4.22604e-05 -0.000142613 -0.000293187 -0.000398656 -0.00045101 -0.000447207 -0.000399538 -0.000265984 -0.000120687 1.9818e-05 0.000132566 0.000192743 0.000178862 7.68151e-05 -0.000117506 -0.000397602 -0.000747962 -0.00114747 -0.00156226 -0.00145028 -0.00183171 -0.002154 -0.00242235 -0.00264177 -0.00281674 -0.00295176 -0.00305161 -0.00312139 -0.00316642 -0.00319195 -0.00320275 -0.0032023 -0.00319206 0.00361068 0.00351076 0.00340936 0.00330615 0.00319896 0.00308433 0.00295834 0.00281729 0.00265846 0.00248068 0.00228511 0.00206474 0.00118667 0.000976722 0.000744392 0.000495854 0.000238888 -1.64557e-05 -0.000257832 -0.000471288 -0.000642638 -0.000759461 -0.000813565 -0.000813853 -0.000697894 -0.000562594 -0.000415405 -0.000279677 -0.000183595 -0.000153976 -0.000211203 -0.000365539 -0.000615545 -0.000948973 -0.00134583 -0.00176887 -0.00160286 -0.00199054 -0.00231495 -0.00258584 -0.00281008 -0.00299265 -0.00313793 -0.00325014 -0.00333345 -0.00339181 -0.00342877 -0.00344731 -0.00344954 -0.00343664 0.00391782 0.00379315 0.00367017 0.00354829 0.00342516 0.00329711 0.00315973 0.0030086 0.00283994 0.00265131 0.0024424 0.00220312 0.0012535 0.00101793 0.000750432 0.000456193 0.000142302 -0.000181044 -0.000500119 -0.000798148 -0.00105668 -0.00125776 -0.00138671 -0.00144753 -0.0013413 -0.001221 -0.0010637 -0.000893775 -0.00074359 -0.000646712 -0.000631884 -0.000718057 -0.00091144 -0.00120523 -0.00158195 -0.00200144 -0.00179865 -0.00218293 -0.00250385 -0.00277581 -0.00300617 -0.003199 -0.00335737 -0.00348425 -0.00358252 -0.00365492 -0.00370385 -0.00373137 -0.00373919 -0.00372873 0.00421906 0.00406536 0.00391819 0.00377653 0.0036373 0.00349586 0.00334657 0.00318354 0.00300137 0.00279582 0.00256463 0.00229455 0.00127713 0.000999362 0.00067764 0.00031618 -7.85295e-05 -0.000495897 -0.000920359 -0.00133162 -0.00170604 -0.00201902 -0.00224806 -0.00239061 -0.00227931 -0.00218616 -0.00201919 -0.00180455 -0.00157937 -0.00138538 -0.00126199 -0.00123995 -0.0013366 -0.00155384 -0.00187921 -0.0022714 -0.00205771 -0.0024192 -0.00272513 -0.00299369 -0.00323038 -0.00343616 -0.00361127 -0.00375644 -0.0038729 -0.00396211 -0.00402566 -0.00406514 -0.00408223 -0.00407869 0.00449309 0.00430717 0.00413376 0.00397123 0.00381534 0.00365985 0.00349721 0.00331939 0.00311869 0.00288849 0.00262402 0.00230885 0.00122663 0.000886781 0.000487607 3.22669e-05 -0.000473234 -0.00101759 -0.00158288 -0.00214452 -0.00267272 -0.00313508 -0.00350013 -0.00375668 -0.00361938 -0.00357442 -0.00340409 -0.00313659 -0.00281401 -0.00248732 -0.00220888 -0.0020247 -0.00196752 -0.00205245 -0.00227598 -0.00259945 -0.00241205 -0.00271684 -0.00298782 -0.00324405 -0.00348526 -0.00370624 -0.00390231 -0.00407063 -0.00421004 -0.00432054 -0.00440288 -0.00445836 -0.00448868 -0.00449599 0.00471058 0.00449044 0.00428954 0.00410537 0.00393212 0.00376137 0.00358301 0.0033862 0.00316032 0.00289577 0.00258463 0.00220732 0.00106094 0.000635523 0.000131133 -0.000450333 -0.00110327 -0.00181529 -0.00256552 -0.00332427 -0.00405458 -0.00471509 -0.00526413 -0.00567941 -0.00549427 -0.00552839 -0.00536882 -0.00504514 -0.00460381 -0.00410533 -0.00361668 -0.00320234 -0.00291522 -0.00278921 -0.00283528 -0.00302425 -0.00291295 -0.00310648 -0.00331035 -0.0035382 -0.00377826 -0.00401501 -0.00423597 -0.00443293 -0.00460121 -0.00473875 -0.00484519 -0.00492142 -0.00496919 -0.0049909 0.00483402 0.00457902 0.00435032 0.00414423 0.00395289 0.00376512 0.00356765 0.00334625 0.00308677 0.00277597 0.0024022 0.00194268 0.000728632 0.000190442 -0.000451579 -0.00119713 -0.00204095 -0.0029692 -0.00395733 -0.00496964 -0.00596079 -0.00687916 -0.00767176 -0.00830187 -0.00805703 -0.00821011 -0.00808452 -0.00770907 -0.00713289 -0.00642491 -0.00566691 -0.00494398 -0.00433339 -0.00389392 -0.00365805 -0.00361677 -0.00364049 -0.00364064 -0.0037278 -0.00389967 -0.00412557 -0.00437447 -0.00462237 -0.00485301 -0.00505651 -0.00522761 -0.00536429 -0.00546669 -0.00553643 -0.00557612 0.00481823 0.00452929 0.00427356 0.00404581 0.00383561 0.00362853 0.00340757 0.00315453 0.00285115 0.00248001 0.00202505 0.00146028 0.000169047 -0.000512566 -0.00132893 -0.00228176 -0.00336603 -0.00456599 -0.00585257 -0.00718286 -0.0085017 -0.00974564 -0.010849 -0.0117569 -0.0114659 -0.0117832 -0.0117234 -0.0113109 -0.0105945 -0.00964856 -0.00856746 -0.00745662 -0.00642 -0.00554655 -0.00489791 -0.00450034 -0.00471301 -0.00440401 -0.00430054 -0.00437068 -0.00455673 -0.00480609 -0.0050784 -0.00534565 -0.00559005 -0.00580145 -0.00597505 -0.00610967 -0.00620647 -0.00626814 0.00461193 0.00429176 0.00401094 0.00376233 0.0035325 0.00330328 0.00305343 0.00276032 0.00240109 0.00195354 0.0013966 0.000700878 -0.000684533 -0.00154282 -0.00257346 -0.0037805 -0.00515896 -0.00669043 -0.00834019 -0.0100565 -0.0117726 -0.0134113 -0.0148927 -0.0161396 -0.0158561 -0.0163817 -0.016425 -0.0160017 -0.0151558 -0.0139623 -0.0125234 -0.0109608 -0.00940401 -0.00797472 -0.00677054 -0.00587132 -0.00629004 -0.00552103 -0.00512164 -0.00501812 -0.00511903 -0.00534388 -0.00562988 -0.00593213 -0.00622106 -0.00647889 -0.00669634 -0.00686987 -0.00699965 -0.00708823 0.00416076 0.00381395 0.00351121 0.00324314 0.00299292 0.00273824 0.00245329 0.00211058 0.00168224 0.00114081 0.00045966 -0.000394413 -0.00189916 -0.00296839 -0.00425437 -0.00576356 -0.00749047 -0.00941291 -0.0114888 -0.0136557 -0.0158327 -0.017927 -0.0198425 -0.0214768 -0.0212997 -0.022068 -0.0222514 -0.0218529 -0.0209077 -0.0194851 -0.0176876 -0.0156458 -0.0135088 -0.011429 -0.00954382 -0.00800529 -0.00855897 -0.00715321 -0.00631846 -0.00593668 -0.00588067 -0.00603682 -0.00631317 -0.00664134 -0.00697451 -0.00728331 -0.00755131 -0.00777102 -0.00794076 -0.00806251 0.00341167 0.00304478 0.00272454 0.00243902 0.00216774 0.00188402 0.00155722 0.00115476 0.000643483 -9.69844e-06 -0.000837426 -0.00187727 -0.00353393 -0.004847 -0.00642737 -0.00828347 -0.0104083 -0.0127741 -0.0153294 -0.017998 -0.0206832 -0.0232739 -0.0256564 -0.0277027 -0.0277636 -0.0287913 -0.029144 -0.0288109 -0.0278142 -0.0262124 -0.0241 -0.0216065 -0.0188901 -0.0161267 -0.0134923 -0.0112241 -0.0116987 -0.00947977 -0.00804454 -0.00724716 -0.00693176 -0.00695051 -0.00717648 -0.00751042 -0.0078813 -0.00824265 -0.00856703 -0.00884056 -0.00905833 -0.00922107 0.00231867 0.00194012 0.00160803 0.00130771 0.00101498 0.000698677 0.000323305 -0.000148858 -0.00075642 -0.00153824 -0.00253318 -0.00378382 -0.00562968 -0.00721509 -0.00912279 -0.0113622 -0.013923 -0.0167698 -0.0198388 -0.0230377 -0.0262511 -0.0293489 -0.0321989 -0.0346508 -0.0350824 -0.0363644 -0.0369017 -0.0366708 -0.0356807 -0.0339758 -0.0316363 -0.0287801 -0.0255622 -0.0221697 -0.01881 -0.0158052 -0.0158274 -0.012662 -0.0104607 -0.0090888 -0.00838252 -0.00816754 -0.00828056 -0.00858505 -0.00897795 -0.00938864 -0.00977333 -0.0101082 -0.010383 -0.0105961 0.000849337 0.000469113 0.000131881 -0.000179813 -0.000493862 -0.000845735 -0.00127564 -0.0018263 -0.00254165 -0.00346625 -0.00464506 -0.00612616 -0.0081985 -0.0100769 -0.0123344 -0.0149796 -0.0179968 -0.0213402 -0.0249307 -0.0286578 -0.032386 -0.035966 -0.0392488 -0.0420683 -0.0429647 -0.0444755 -0.045195 -0.0450918 -0.0441647 -0.0424444 -0.0399943 -0.0369135 -0.0333422 -0.0294643 -0.0255043 -0.0218504 -0.0209574 -0.016802 -0.0137074 -0.0116039 -0.0103564 -0.00978526 -0.0096982 -0.00991912 -0.0103058 -0.0107554 -0.0112009 -0.0116036 -0.0119448 -0.0122188 -0.00100898 -0.0013798 -0.00171455 -0.00203342 -0.00236777 -0.00275704 -0.00324579 -0.00388139 -0.00471272 -0.00578964 -0.0071627 -0.00888553 -0.0112152 -0.0133963 -0.0160115 -0.0190667 -0.0225383 -0.0263671 -0.0304567 -0.0346769 -0.0388723 -0.0428762 -0.0465264 -0.04965 -0.0510386 -0.052738 -0.0536204 -0.0536535 -0.0528316 -0.0511764 -0.0487354 -0.0455873 -0.0418496 -0.037689 -0.0333285 -0.0291832 -0.0269801 -0.0219094 -0.0178717 -0.0149135 -0.0129754 -0.0119082 -0.0115105 -0.0115726 -0.0119092 -0.0123773 -0.0128788 -0.0133534 -0.0137699 -0.0141162 -0.00324426 -0.00359412 -0.00391818 -0.00423918 -0.00459156 -0.00501828 -0.00556769 -0.00629119 -0.00724198 -0.00847447 -0.0100439 -0.0120089 -0.0146134 -0.0170936 -0.0200576 -0.0235064 -0.0274059 -0.031682 -0.0362196 -0.0408686 -0.0454557 -0.0498008 -0.0537334 -0.0570833 -0.0589212 -0.0607622 -0.0617762 -0.0619367 -0.0612406 -0.0597065 -0.0573717 -0.0542965 -0.0505736 -0.0463424 -0.0418043 -0.0373512 -0.0336824 -0.027883 -0.0229535 -0.0190845 -0.0163356 -0.0146324 -0.0137981 -0.0136059 -0.0138311 -0.0142851 -0.01483 -0.015377 -0.0158762 -0.0163058 -0.00581744 -0.00613509 -0.00644001 -0.00675727 -0.00712393 -0.00758583 -0.00819442 -0.00900438 -0.0100723 -0.0114562 -0.0132146 -0.0154101 -0.018288 -0.0210495 -0.0243363 -0.0281421 -0.0324212 -0.0370833 -0.0419953 -0.0469889 -0.0518764 -0.0564685 -0.0605928 -0.064089 -0.0662852 -0.0682211 -0.0693296 -0.0695951 -0.0690231 -0.0676348 -0.0654636 -0.0625574 -0.0589864 -0.0548583 -0.0503371 -0.0457469 -0.040776 -0.0345087 -0.0288398 -0.0240948 -0.0204751 -0.0180219 -0.0166247 -0.01607 -0.0161063 -0.0164998 -0.0170666 -0.0176807 -0.0182672 -0.0187903 -0.00866344 -0.00893871 -0.00921629 -0.00952324 -0.00989875 -0.0103909 -0.0110534 -0.0119435 -0.01312 -0.0146433 -0.0165738 -0.018976 -0.0221035 -0.0251152 -0.0286831 -0.0327928 -0.0373864 -0.0423583 -0.0475587 -0.0528048 -0.0578982 -0.0626459 -0.0668782 -0.0704494 -0.0728978 -0.0748871 -0.0760537 -0.0763953 -0.0759287 -0.0746819 -0.0726902 -0.0699953 -0.066651 -0.062735 -0.0583666 -0.0537775 -0.0479285 -0.0414763 -0.0352979 -0.0298086 -0.0253424 -0.0220794 -0.0200159 -0.0189905 -0.0187502 -0.0190248 -0.0195818 -0.0202511 -0.0209257 -0.0215502 -0.0116957 -0.0119203 -0.012163 -0.0124526 -0.01283 -0.0133447 -0.0140522 -0.0150109 -0.0162812 -0.0179244 -0.0200014 -0.0225765 -0.0259071 -0.0291267 -0.0329223 -0.0372716 -0.0421051 -0.047304 -0.0527053 -0.0581152 -0.0633293 -0.0681545 -0.0724273 -0.0760174 -0.0786251 -0.0806345 -0.0818284 -0.0822171 -0.0818285 -0.0806996 -0.0788707 -0.0763833 -0.073282 -0.0696211 -0.0654783 -0.0609929 -0.0547964 -0.0484159 -0.0419953 -0.0359736 -0.0307772 -0.0267211 -0.023935 -0.0223497 -0.0217455 -0.0218352 -0.0223421 -0.0230478 -0.0238064 -0.0245373 -0.014814 -0.0149818 -0.0151833 -0.0154485 -0.0158194 -0.0163466 -0.0170863 -0.0180977 -0.0194415 -0.0211787 -0.0233694 -0.0260758 -0.0295435 -0.0329203 -0.036883 -0.0414021 -0.046399 -0.0517444 -0.057266 -0.0627631 -0.0680292 -0.0728733 -0.0771392 -0.0807109 -0.0834125 -0.0854183 -0.086617 -0.0870283 -0.0866896 -0.085646 -0.0839448 -0.0816315 -0.0787481 -0.0753351 -0.0714389 -0.0671266 -0.0610623 -0.0549514 -0.0485467 -0.0422475 -0.0365145 -0.0317649 -0.0282655 -0.0260696 -0.0250291 -0.0248682 -0.0252794 -0.0259965 -0.0268301 -0.0276688 -0.0179136 -0.0180214 -0.0181769 -0.018411 -0.0187663 -0.0192938 -0.02005 -0.0210942 -0.0224864 -0.0242868 -0.0265534 -0.0293445 -0.0328686 -0.036347 -0.0404131 -0.0450323 -0.0501195 -0.0555391 -0.061113 -0.0666378 -0.0719066 -0.0767321 -0.0809644 -0.0844983 -0.0872571 -0.0892452 -0.0904351 -0.0908516 -0.0905382 -0.0895473 -0.0879331 -0.0857475 -0.0830353 -0.0798331 -0.0761699 -0.0720686 -0.0664702 -0.0607529 -0.0545741 -0.0482493 -0.0422154 -0.0369413 -0.032808 -0.0300029 -0.0284819 -0.0280149 -0.0282847 -0.0289847 -0.0298798 -0.0308239 -0.0208952 -0.0209429 -0.0210495 -0.0212465 -0.0215767 -0.0220911 -0.0228459 -0.0238998 -0.025312 -0.0271409 -0.0294423 -0.032269 -0.0357598 -0.0392821 -0.0433885 -0.0480417 -0.0531538 -0.0585865 -0.06416 -0.0696702 -0.0749119 -0.0797005 -0.0838902 -0.0873824 -0.0901837 -0.0921492 -0.0933245 -0.0937357 -0.0934296 -0.0924634 -0.0908981 -0.0887928 -0.0861994 -0.0831578 -0.0796932 -0.0758116 -0.0708473 -0.0655745 -0.0597599 -0.0536176 -0.0475171 -0.0419249 -0.0372946 -0.0339362 -0.0319283 -0.0311185 -0.031207 -0.0318607 -0.0328013 -0.033845 -0.0236739 -0.0236639 -0.0237209 -0.0238762 -0.0241723 -0.0246594 -0.0253933 -0.0264318 -0.0278329 -0.0296532 -0.0319462 -0.0347589 -0.0381223 -0.0416313 -0.0457179 -0.050345 -0.0554257 -0.0608225 -0.0663569 -0.0718265 -0.0770273 -0.0817763 -0.0859285 -0.0893872 -0.09223 -0.0941753 -0.0953368 -0.0957385 -0.0954277 -0.0944649 -0.0929168 -0.0908502 -0.0883258 -0.0853924 -0.0820816 -0.0784026 -0.074106 -0.0692669 -0.0638784 -0.0580573 -0.052084 -0.0463787 -0.041419 -0.0376069 -0.035144 -0.0339786 -0.0338567 -0.0344374 -0.0354066 -0.0365423 -0.0261849 -0.0261223 -0.0261311 -0.0262418 -0.0264955 -0.0269415 -0.0276344 -0.0286308 -0.0299879 -0.0317607 -0.0340008 -0.0367502 -0.0398925 -0.0433323 -0.047343 -0.0518909 -0.056893 -0.0622161 -0.0676853 -0.0731008 -0.0782596 -0.0829778 -0.0871079 -0.0905499 -0.0934393 -0.095373 -0.0965264 -0.0969193 -0.0965975 -0.0956231 -0.0940678 -0.0920056 -0.0895071 -0.0866324 -0.0834253 -0.0799117 -0.0762315 -0.0717697 -0.0668011 -0.0613635 -0.0556461 -0.0499965 -0.0448729 -0.0407295 -0.037873 -0.0363625 -0.0360139 -0.0365002 -0.0374821 -0.0387017 -0.0283872 -0.0282793 -0.0282433 -0.0283082 -0.0285129 -0.0289046 -0.0295361 -0.0304632 -0.031742 -0.033427 -0.035569 -0.0382065 -0.0410364 -0.0443537 -0.0482371 -0.0526592 -0.0575438 -0.0627648 -0.0681525 -0.07351 -0.0786345 -0.0833385 -0.0874687 -0.0909171 -0.0938589 -0.0957945 -0.0969496 -0.0973384 -0.0970037 -0.0960084 -0.0944277 -0.0923428 -0.0898336 -0.0869721 -0.083817 -0.0804164 -0.0772625 -0.0730919 -0.0684848 -0.0634231 -0.0580168 -0.0525323 -0.0473789 -0.0430232 -0.0398484 -0.0380201 -0.0374404 -0.0378165 -0.0387975 -0.0400942 -0.0302636 -0.0301194 -0.030044 -0.0300638 -0.0302143 -0.0305397 -0.0310903 -0.0319203 -0.0330855 -0.034641 -0.036639 -0.0391164 -0.0415474 -0.0446914 -0.0484008 -0.0526569 -0.0573929 -0.0624911 -0.0677884 -0.0730909 -0.0781942 -0.0829057 -0.0870624 -0.0905444 -0.093542 -0.095497 -0.0966668 -0.0970596 -0.0967144 -0.0956932 -0.0940745 -0.0919453 -0.0893942 -0.0865042 -0.0833483 -0.0799982 -0.0772734 -0.0732904 -0.0689506 -0.0642013 -0.0590917 -0.0538131 -0.0487113 -0.0442351 -0.0408121 -0.0386992 -0.0378906 -0.0381453 -0.0391146 -0.0404838 -0.0318185 -0.0316483 -0.0315405 -0.0315177 -0.031611 -0.0318595 -0.03231 -0.0330149 -0.0340303 -0.0354136 -0.0372206 -0.03949 -0.0414415 -0.0443643 -0.047858 -0.0519142 -0.0564771 -0.0614387 -0.0666428 -0.0718978 -0.0769969 -0.0817399 -0.0859521 -0.0894979 -0.092549 -0.0945445 -0.0957456 -0.0961541 -0.0958042 -0.0947567 -0.0930917 -0.0909013 -0.0882812 -0.0853237 -0.0821139 -0.0787446 -0.0763609 -0.0724534 -0.0682634 -0.0637215 -0.0588356 -0.0537355 -0.0487038 -0.0441533 -0.0405284 -0.0381562 -0.0371204 -0.0372436 -0.0381923 -0.0396324 -0.0330741 -0.0328891 -0.0327574 -0.0326963 -0.0327305 -0.0328928 -0.0332247 -0.0337763 -0.0346048 -0.0357719 -0.03734 -0.0393538 -0.0407525 -0.0434095 -0.046651 -0.0504802 -0.0548527 -0.0596704 -0.0647836 -0.0700024 -0.0751165 -0.0799163 -0.0842137 -0.0878552 -0.0909501 -0.0930102 -0.0942625 -0.0947019 -0.0943576 -0.0932876 -0.0915727 -0.0893083 -0.0865955 -0.0835336 -0.0802161 -0.0767526 -0.0746364 -0.0706869 -0.0665146 -0.0620454 -0.057263 -0.0522534 -0.0472448 -0.0426091 -0.0387894 -0.036162 -0.0348912 -0.0348691 -0.0357878 -0.0373002 -0.0340656 -0.0338778 -0.0337318 -0.0336381 -0.0336127 -0.03368 -0.0338747 -0.0342441 -0.0348473 -0.0357528 -0.0370338 -0.0387454 -0.0395268 -0.0418779 -0.0448371 -0.0484196 -0.0525921 -0.0572655 -0.0622955 -0.0674929 -0.0726426 -0.077525 -0.0819371 -0.0857068 -0.0888261 -0.0909774 -0.0923041 -0.0927938 -0.0924694 -0.0913855 -0.0896218 -0.087275 -0.0844494 -0.0812478 -0.0777688 -0.0741317 -0.0722201 -0.0681071 -0.0638093 -0.0592555 -0.0544191 -0.0493591 -0.0442643 -0.0394706 -0.0354126 -0.0325006 -0.0309681 -0.030777 -0.0316533 -0.0332413 -0.0348364 -0.0346591 -0.0345096 -0.0343897 -0.0343047 -0.0342677 -0.0343054 -0.0344617 -0.0347994 -0.0353972 -0.0363433 -0.0377084 -0.0378187 -0.0398301 -0.0424849 -0.0458099 -0.0497816 -0.0543178 -0.059278 -0.0644723 -0.0696798 -0.0746702 -0.0792256 -0.0831556 -0.0862687 -0.0885398 -0.0899668 -0.0905295 -0.0902439 -0.0891596 -0.0873532 -0.0849204 -0.0819653 -0.0785914 -0.074897 -0.0710036 -0.0692366 -0.0648339 -0.0602569 -0.0554418 -0.0503621 -0.0450652 -0.039717 -0.0346296 -0.0302321 -0.0269625 -0.0251135 -0.024714 -0.0255286 -0.027196 -0.0354348 -0.0352827 -0.035142 -0.035003 -0.0348572 -0.0347044 -0.0345618 -0.0344709 -0.0345005 -0.0347438 -0.0353092 -0.0362881 -0.0356875 -0.0373335 -0.0396716 -0.0427387 -0.0465184 -0.0509329 -0.0558428 -0.0610559 -0.0663449 -0.0714686 -0.0761942 -0.0803148 -0.08338 -0.0857993 -0.0873545 -0.088016 -0.0877917 -0.0867247 -0.0848864 -0.0823684 -0.0792715 -0.0756954 -0.0717333 -0.0674987 -0.0658103 -0.0609853 -0.0559641 -0.0506917 -0.0451499 -0.0393877 -0.0335649 -0.0279861 -0.0230862 -0.0193343 -0.0170779 -0.0164084 -0.0171308 -0.0188802 -0.0359113 -0.0358025 -0.0356844 -0.035533 -0.0353225 -0