# vtk DataFile Version 2.0
Velocidades
ASCII

DATASET STRUCTURED_GRID
DIMENSIONS   50   50   20

POINTS   50000   double
0.00568455   0.00568455   0.025
0.0174023   0.00568455   0.025
0.0298294   0.00568455   0.025
0.0429888   0.00568455   0.025
0.0569012   0.00568455   0.025
0.0715849   0.00568455   0.025
0.0870549   0.00568455   0.025
0.103323   0.00568455   0.025
0.120395   0.00568455   0.025
0.138275   0.00568455   0.025
0.156961   0.00568455   0.025
0.176443   0.00568455   0.025
0.196707   0.00568455   0.025
0.217734   0.00568455   0.025
0.239496   0.00568455   0.025
0.261959   0.00568455   0.025
0.285082   0.00568455   0.025
0.308818   0.00568455   0.025
0.333113   0.00568455   0.025
0.357906   0.00568455   0.025
0.383132   0.00568455   0.025
0.408719   0.00568455   0.025
0.434592   0.00568455   0.025
0.460672   0.00568455   0.025
0.486877   0.00568455   0.025
0.513123   0.00568455   0.025
0.539328   0.00568455   0.025
0.565408   0.00568455   0.025
0.591281   0.00568455   0.025
0.616868   0.00568455   0.025
0.642094   0.00568455   0.025
0.666887   0.00568455   0.025
0.691182   0.00568455   0.025
0.714918   0.00568455   0.025
0.738041   0.00568455   0.025
0.760504   0.00568455   0.025
0.782266   0.00568455   0.025
0.803293   0.00568455   0.025
0.823557   0.00568455   0.025
0.843039   0.00568455   0.025
0.861725   0.00568455   0.025
0.879605   0.00568455   0.025
0.896677   0.00568455   0.025
0.912945   0.00568455   0.025
0.928415   0.00568455   0.025
0.943099   0.00568455   0.025
0.957011   0.00568455   0.025
0.970171   0.00568455   0.025
0.982598   0.00568455   0.025
0.994315   0.00568455   0.025
0.00568455   0.0174023   0.025
0.0174023   0.0174023   0.025
0.0298294   0.0174023   0.025
0.0429888   0.0174023   0.025
0.0569012   0.0174023   0.025
0.0715849   0.0174023   0.025
0.0870549   0.0174023   0.025
0.103323   0.0174023   0.025
0.120395   0.0174023   0.025
0.138275   0.0174023   0.025
0.156961   0.0174023   0.025
0.176443   0.0174023   0.025
0.196707   0.0174023   0.025
0.217734   0.0174023   0.025
0.239496   0.0174023   0.025
0.261959   0.0174023   0.025
0.285082   0.0174023   0.025
0.308818   0.0174023   0.025
0.333113   0.0174023   0.025
0.357906   0.0174023   0.025
0.383132   0.0174023   0.025
0.408719   0.0174023   0.025
0.434592   0.0174023   0.025
0.460672   0.0174023   0.025
0.486877   0.0174023   0.025
0.513123   0.0174023   0.025
0.539328   0.0174023   0.025
0.565408   0.0174023   0.025
0.591281   0.0174023   0.025
0.616868   0.0174023   0.025
0.642094   0.0174023   0.025
0.666887   0.0174023   0.025
0.691182   0.0174023   0.025
0.714918   0.0174023   0.025
0.738041   0.0174023   0.025
0.760504   0.0174023   0.025
0.782266   0.0174023   0.025
0.803293   0.0174023   0.025
0.823557   0.0174023   0.025
0.843039   0.0174023   0.025
0.861725   0.0174023   0.025
0.879605   0.0174023   0.025
0.896677   0.0174023   0.025
0.912945   0.0174023   0.025
0.928415   0.0174023   0.025
0.943099   0.0174023   0.025
0.957011   0.0174023   0.025
0.970171   0.0174023   0.025
0.982598   0.0174023   0.025
0.994315   0.0174023   0.025
0.00568455   0.0298294   0.025
0.0174023   0.0298294   0.025
0.0298294   0.0298294   0.025
0.0429888   0.0298294   0.025
0.0569012   0.0298294   0.025
0.0715849   0.0298294   0.025
0.0870549   0.0298294   0.025
0.103323   0.0298294   0.025
0.120395   0.0298294   0.025
0.138275   0.0298294   0.025
0.156961   0.0298294   0.025
0.176443   0.0298294   0.025
0.196707   0.0298294   0.025
0.217734   0.0298294   0.025
0.239496   0.0298294   0.025
0.261959   0.0298294   0.025
0.285082   0.0298294   0.025
0.308818   0.0298294   0.025
0.333113   0.0298294   0.025
0.357906   0.0298294   0.025
0.383132   0.0298294   0.025
0.408719   0.0298294   0.025
0.434592   0.0298294   0.025
0.460672   0.0298294   0.025
0.486877   0.0298294   0.025
0.513123   0.0298294   0.025
0.539328   0.0298294   0.025
0.565408   0.0298294   0.025
0.591281   0.0298294   0.025
0.616868   0.0298294   0.025
0.642094   0.0298294   0.025
0.666887   0.0298294   0.025
0.691182   0.0298294   0.025
0.714918   0.0298294   0.025
0.738041   0.0298294   0.025
0.760504   0.0298294   0.025
0.782266   0.0298294   0.025
0.803293   0.0298294   0.025
0.823557   0.0298294   0.025
0.843039   0.0298294   0.025
0.861725   0.0298294   0.025
0.879605   0.0298294   0.025
0.896677   0.0298294   0.025
0.912945   0.0298294   0.025
0.928415   0.0298294   0.025
0.943099   0.0298294   0.025
0.957011   0.0298294   0.025
0.970171   0.0298294   0.025
0.982598   0.0298294   0.025
0.994315   0.0298294   0.025
0.00568455   0.0429888   0.025
0.0174023   0.0429888   0.025
0.0298294   0.0429888   0.025
0.0429888   0.0429888   0.025
0.0569012   0.0429888   0.025
0.0715849   0.0429888   0.025
0.0870549   0.0429888   0.025
0.103323   0.0429888   0.025
0.120395   0.0429888   0.025
0.138275   0.0429888   0.025
0.156961   0.0429888   0.025
0.176443   0.0429888   0.025
0.196707   0.0429888   0.025
0.217734   0.0429888   0.025
0.239496   0.0429888   0.025
0.261959   0.0429888   0.025
0.285082   0.0429888   0.025
0.308818   0.0429888   0.025
0.333113   0.0429888   0.025
0.357906   0.0429888   0.025
0.383132   0.0429888   0.025
0.408719   0.0429888   0.025
0.434592   0.0429888   0.025
0.460672   0.0429888   0.025
0.486877   0.0429888   0.025
0.513123   0.0429888   0.025
0.539328   0.0429888   0.025
0.565408   0.0429888   0.025
0.591281   0.0429888   0.025
0.616868   0.0429888   0.025
0.642094   0.0429888   0.025
0.666887   0.0429888   0.025
0.691182   0.0429888   0.025
0.714918   0.0429888   0.025
0.738041   0.0429888   0.025
0.760504   0.0429888   0.025
0.782266   0.0429888   0.025
0.803293   0.0429888   0.025
0.823557   0.0429888   0.025
0.843039   0.0429888   0.025
0.861725   0.0429888   0.025
0.879605   0.0429888   0.025
0.896677   0.0429888   0.025
0.912945   0.0429888   0.025
0.928415   0.0429888   0.025
0.943099   0.0429888   0.025
0.957011   0.0429888   0.025
0.970171   0.0429888   0.025
0.982598   0.0429888   0.025
0.994315   0.0429888   0.025
0.00568455   0.0569012   0.025
0.0174023   0.0569012   0.025
0.0298294   0.0569012   0.025
0.0429888   0.0569012   0.025
0.0569012   0.0569012   0.025
0.0715849   0.0569012   0.025
0.0870549   0.0569012   0.025
0.103323   0.0569012   0.025
0.120395   0.0569012   0.025
0.138275   0.0569012   0.025
0.156961   0.0569012   0.025
0.176443   0.0569012   0.025
0.196707   0.0569012   0.025
0.217734   0.0569012   0.025
0.239496   0.0569012   0.025
0.261959   0.0569012   0.025
0.285082   0.0569012   0.025
0.308818   0.0569012   0.025
0.333113   0.0569012   0.025
0.357906   0.0569012   0.025
0.383132   0.0569012   0.025
0.408719   0.0569012   0.025
0.434592   0.0569012   0.025
0.460672   0.0569012   0.025
0.486877   0.0569012   0.025
0.513123   0.0569012   0.025
0.539328   0.0569012   0.025
0.565408   0.0569012   0.025
0.591281   0.0569012   0.025
0.616868   0.0569012   0.025
0.642094   0.0569012   0.025
0.666887   0.0569012   0.025
0.691182   0.0569012   0.025
0.714918   0.0569012   0.025
0.738041   0.0569012   0.025
0.760504   0.0569012   0.025
0.782266   0.0569012   0.025
0.803293   0.0569012   0.025
0.823557   0.0569012   0.025
0.843039   0.0569012   0.025
0.861725   0.0569012   0.025
0.879605   0.0569012   0.025
0.896677   0.0569012   0.025
0.912945   0.0569012   0.025
0.928415   0.0569012   0.025
0.943099   0.0569012   0.025
0.957011   0.0569012   0.025
0.970171   0.0569012   0.025
0.982598   0.0569012   0.025
0.994315   0.0569012   0.025
0.00568455   0.0715849   0.025
0.0174023   0.0715849   0.025
0.0298294   0.0715849   0.025
0.0429888   0.0715849   0.025
0.0569012   0.0715849   0.025
0.0715849   0.0715849   0.025
0.0870549   0.0715849   0.025
0.103323   0.0715849   0.025
0.120395   0.0715849   0.025
0.138275   0.0715849   0.025
0.156961   0.0715849   0.025
0.176443   0.0715849   0.025
0.196707   0.0715849   0.025
0.217734   0.0715849   0.025
0.239496   0.0715849   0.025
0.261959   0.0715849   0.025
0.285082   0.0715849   0.025
0.308818   0.0715849   0.025
0.333113   0.0715849   0.025
0.357906   0.0715849   0.025
0.383132   0.0715849   0.025
0.408719   0.0715849   0.025
0.434592   0.0715849   0.025
0.460672   0.0715849   0.025
0.486877   0.0715849   0.025
0.513123   0.0715849   0.025
0.539328   0.0715849   0.025
0.565408   0.0715849   0.025
0.591281   0.0715849   0.025
0.616868   0.0715849   0.025
0.642094   0.0715849   0.025
0.666887   0.0715849   0.025
0.691182   0.0715849   0.025
0.714918   0.0715849   0.025
0.738041   0.0715849   0.025
0.760504   0.0715849   0.025
0.782266   0.0715849   0.025
0.803293   0.0715849   0.025
0.823557   0.0715849   0.025
0.843039   0.0715849   0.025
0.861725   0.0715849   0.025
0.879605   0.0715849   0.025
0.896677   0.0715849   0.025
0.912945   0.0715849   0.025
0.928415   0.0715849   0.025
0.943099   0.0715849   0.025
0.957011   0.0715849   0.025
0.970171   0.0715849   0.025
0.982598   0.0715849   0.025
0.994315   0.0715849   0.025
0.00568455   0.0870549   0.025
0.0174023   0.0870549   0.025
0.0298294   0.0870549   0.025
0.0429888   0.0870549   0.025
0.0569012   0.0870549   0.025
0.0715849   0.0870549   0.025
0.0870549   0.0870549   0.025
0.103323   0.0870549   0.025
0.120395   0.0870549   0.025
0.138275   0.0870549   0.025
0.156961   0.0870549   0.025
0.176443   0.0870549   0.025
0.196707   0.0870549   0.025
0.217734   0.0870549   0.025
0.239496   0.0870549   0.025
0.261959   0.0870549   0.025
0.285082   0.0870549   0.025
0.308818   0.0870549   0.025
0.333113   0.0870549   0.025
0.357906   0.0870549   0.025
0.383132   0.0870549   0.025
0.408719   0.0870549   0.025
0.434592   0.0870549   0.025
0.460672   0.0870549   0.025
0.486877   0.0870549   0.025
0.513123   0.0870549   0.025
0.539328   0.0870549   0.025
0.565408   0.0870549   0.025
0.591281   0.0870549   0.025
0.616868   0.0870549   0.025
0.642094   0.0870549   0.025
0.666887   0.0870549   0.025
0.691182   0.0870549   0.025
0.714918   0.0870549   0.025
0.738041   0.0870549   0.025
0.760504   0.0870549   0.025
0.782266   0.0870549   0.025
[...]
POINT_DATA   50000
VECTORS Velocidades double

-7.68556e-05 -0.00168912 0
-0.000207939 -0.00331773 0
-0.00028552 -0.00423474 0
-0.000313955 -0.00475003 0
-0.000321017 -0.00498912 0
-0.000333962 -0.00501547 0
-0.000373535 -0.00486805 0
-0.000454321 -0.00457456 0
-0.000586157 -0.00415612 0
-0.000775657 -0.00362803 0
-0.00102826 -0.00299674 0
-0.00115407 -0.00224621 0
-0.00133395 -0.00127782 0
-0.00177622 -0.000549307 0
-0.00229383 5.829e-05 0
-0.00285931 0.000571751 0
-0.00346328 0.000987953 0
-0.00409666 0.00128994 0
-0.00474632 0.00145522 0
-0.0053933 0.00146232 0
-0.00601222 0.00129669 0
-0.00657181 0.000955674 0
-0.00703766 0.000452044 0
-0.00736391 -0.000183572 0
-0.00750872 -0.000890802 0
-0.00744406 -0.00160259 0
-0.00715241 -0.00223948 0
-0.00663751 -0.00272698 0
-0.00592332 -0.00300125 0
-0.0050546 -0.00301777 0
-0.00409274 -0.00275861 0
-0.00310768 -0.00223605 0
-0.00216779 -0.00149165 0
-0.00132988 -0.000592057 0
-0.000630656 0.000376045 0
-0.00023876 0.00130408 0
2.01876e-06 0.0020325 0
0.000272495 0.00287546 0
0.000437747 0.0036752 0
0.000503969 0.00437277 0
0.000490936 0.00494232 0
0.000418459 0.00537201 0
0.000304783 0.00565577 0
0.000167083 0.00578882 0
2.25214e-05 0.00576441 0
-0.000110304 0.0055699 0
-0.000209565 0.00517969 0
-0.00024926 0.00453934 0
-0.000204944 0.00352217 0
-7.95914e-05 0.00179165 0
-0.000257138 -0.00310533 0
-0.000677377 -0.00647235 0
-0.000894651 -0.00841836 0
-0.000950727 -0.00949836 0
-0.000950669 -0.0099799 0
-0.000977581 -0.0100078 0
-0.00109059 -0.00967211 0
-0.00133116 -0.00903588 0
-0.00172805 -0.00814623 0
-0.00230153 -0.00703628 0
-0.00306956 -0.00571848 0
-0.00340581 -0.00415622 0
-0.00396954 -0.00216858 0
-0.00539808 -0.000666693 0
-0.00701047 0.000578197 0
-0.00877038 0.00162693 0
-0.0106527 0.0024745 0
-0.0126268 0.00308477 0
-0.0146471 0.00340906 0
-0.0166486 0.00340032 0
-0.018546 0.0030256 0
-0.020237 0.00227699 0
-0.021611 0.00117968 0
-0.0225386 -0.000202725 0
-0.0229008 -0.00176856 0
-0.0226189 -0.00334786 0
-0.0216595 -0.00477827 0
-0.0200481 -0.00590071 0
-0.0178633 -0.00657529 0
-0.0152381 -0.0067013 0
-0.0123485 -0.00623408 0
-0.00939237 -0.00519397 0
-0.00656432 -0.00366558 0
-0.00402972 -0.00178937 0
-0.00190132 0.000248074 0
-0.000743902 0.00220925 0
-2.4419e-06 0.00376247 0
0.000881092 0.00554821 0
0.00140363 0.00724382 0
0.00161395 0.00872359 0
0.00157386 0.00993402 0
0.00134381 0.0108512 0
0.000980291 0.0114623 0
0.000537173 0.0117562 0
6.84456e-05 0.0117161 0
-0.000367888 0.0113107 0
-0.000704054 0.0104787 0
-0.000854949 0.00909486 0
-0.00072068 0.00689291 0
-0.000284628 0.00328122 0
-0.000185442 -0.00262384 0
-0.000589101 -0.00607799 0
-0.000961412 -0.00821314 0
-0.00122067 -0.00939728 0
-0.00142817 -0.00988999 0
-0.00167606 -0.00986124 0
-0.0020481 -0.00942558 0
-0.00261097 -0.0086646 0
-0.00341518 -0.00763789 0
-0.00449919 -0.00638555 0
-0.00589528 -0.00492093 0
-0.00652763 -0.00320343 0
-0.00750045 -0.00108776 0
-0.00990154 0.000530447 0
-0.0126002 0.00185946 0
-0.0155516 0.00297028 0
-0.0187091 0.00385898 0
-0.0220124 0.00448331 0
-0.0253763 0.00478482 0
-0.0286846 0.00470567 0
-0.0317903 0.0042032 0
-0.0345214 0.003263 0
-0.0366939 0.00190942 0
-0.0381369 0.000210501 0
-0.0386539 -0.00175687 0
-0.0381085 -0.00375492 0
-0.036488 -0.00560443 0
-0.0338397 -0.00711991 0
-0.0302913 -0.00813048 0
-0.0260486 -0.008506 0
-0.0213797 -0.00817952 0
-0.0165849 -0.00716044 0
-0.0119613 -0.00553631 0
-0.00776552 -0.00346521 0
-0.00417984 -0.00116611 0
-0.00220698 0.00107706 0
-0.000922197 0.00290128 0
0.00063714 0.00495889 0
0.00161211 0.00691167 0
0.00208665 0.00861861 0
0.00215625 0.0100214 0
0.00191669 0.0110939 0
0.00146125 0.0118204 0
0.0008819 0.012184 0
0.000271781 0.0121586 0
-0.000272031 0.0116988 0
-0.000648087 0.0107238 0
-0.000760782 0.00909056 0
-0.00056535 0.00655609 0
-0.000195204 0.00275958 0
-0.000117117 -0.00227587 0
-0.000450303 -0.00560444 0
-0.000900761 -0.00781104 0
-0.00137305 -0.00905999 0
-0.00187744 -0.00954617 0
-0.00247871 -0.00943723 0
-0.003257 -0.00886481 0
-0.00428809 -0.00792957 0
-0.00563649 -0.00670652 0
-0.00735481 -0.00524601 0
-0.00948515 -0.00356693 0
-0.0104788 -0.00163589 0
-0.0118953 0.00065142 0
-0.0152948 0.00243619 0
-0.0190929 0.00389882 0
-0.0232423 0.00510909 0
-0.0276748 0.00605926 0
-0.0322958 0.00669679 0
-0.0369756 0.00694887 0
-0.0415437 0.00674227 0
-0.0457912 0.00602103 0
-0.0494795 0.00476258 0
-0.0523576 0.00299074 0
-0.0542502 0.000780312 0
-0.0548812 -0.00178738 0
-0.0540527 -0.00441727 0
-0.051802 -0.00689602 0
-0.0481951 -0.00900006 0
-0.0433979 -0.0105154 0
-0.0376727 -0.0112714 0
-0.0313582 -0.0111698 0
-0.0248355 -0.0102035 0
-0.0184855 -0.00846224 0
-0.0126447 -0.00612609 0
-0.00756553 -0.00345525 0
-0.0047452 -0.000787909 0
-0.00287196 0.00147208 0
-0.000540554 0.00394692 0
0.0010028 0.00628524 0
0.00187608 0.00833397 0
0.00220296 0.0100279 0
0.00210878 0.0113353 0
0.00171899 0.0122331 0
0.00115878 0.0126951 0
0.000552248 0.0126827 0
1.92436e-05 0.0121372 0
-0.000334313 0.0109697 0
-0.000439858 0.00905478 0
-0.000310726 0.00624209 0
-9.80218e-05 0.00242335 0
-8.39434e-05 -0.00203095 0
-0.000381469 -0.00510914 0
-0.000899013 -0.00722326 0
-0.00158083 -0.00842292 0
-0.00242056 -0.00883205 0
-0.00345577 -0.00859301 0
-0.00474862 -0.0078384 0
-0.00636878 -0.00668026 0
-0.00838294 -0.00520673 0
-0.0108494 -0.00347974 0
-0.0138134 -0.00152892 0
-0.0152226 0.000661293 0
-0.0171192 0.00314927 0
-0.0215638 0.00514369 0
-0.0264917 0.00678667 0
-0.0318559 0.00813211 0
-0.0375677 0.00915972 0
-0.0434967 0.00980102 0
-0.0494664 0.00996428 0
-0.0552519 0.00955728 0
-0.0605846 0.00850865 0
-0.0651657 0.0067875 0
-0.0686872 0.00441938 0
-0.0709874 0.00149289 0
-0.0717174 -0.0018779 0
-0.0706255 -0.0053485 0
-0.067811 -0.00866352 0
-0.0633495 -0.0115517 0
-0.0574311 -0.0137456 0
-0.0503565 -0.0150243 0
-0.0425156 -0.0152495 0
-0.0343518 -0.0143912 0
-0.0263169 -0.0125373 0
-0.0188221 -0.00989017 0
-0.0121941 -0.00675416 0
-0.00849409 -0.00352424 0
-0.00598059 -0.000651756 0
-0.00275327 0.00238661 0
-0.000501523 0.00523651 0
0.000923168 0.00774013 0
0.00166652 0.0098248 0
0.00187646 0.011449 0
0.00170338 0.0125787 0
0.00129705 0.0131758 0
0.000800873 0.0131917 0
0.000342655 0.0125633 0
1.99153e-05 0.0112141 0
-0.000120895 0.00906525 0
-0.000105452 0.00606789 0
-3.34815e-05 0.0022646 0
-7.80882e-05 -0.00182188 0
-0.000391704 -0.00456191 0
-0.00101301 -0.00642875 0
-0.001929 -0.00743311 0
-0.00313931 -0.00765299 0
-0.00466707 -0.00720167 0
-0.00655599 -0.00620099 0
-0.00886193 -0.00476429 0
-0.0116443 -0.00298701 0
-0.0149581 -0.00094126 0
-0.0188455 0.0013291 0
-0.0207162 0.00381448 0
-0.0231283 0.00652316 0
-0.0286737 0.00876225 0
-0.0347722 0.0106254 0
-0.041376 0.0121356 0
-0.048376 0.013249 0
-0.0556065 0.0138742 0
-0.0628451 0.0138961 0
-0.0698149 0.0132011 0
-0.0761939 0.0117019 0
-0.0816322 0.00936106 0
-0.0857776 0.00621017 0
-0.0884709 0.00236047 0
-0.0893136 -0.00202225 0
-0.0880298 -0.00653604 0
-0.0847624 -0.0108923 0
-0.0795835 -0.0147646 0
-0.0726898 -0.0178228 0
-0.0644014 -0.0197863 0
-0.0551412 -0.0204674 0
-0.0454005 -0.0198037 0
-0.0356933 -0.017874 0
-0.0265051 -0.0148978 0
-0.0182443 -0.0112213 0
-0.0136205 -0.00729639 0
-0.0104023 -0.00362927 0
-0.00612586 0.00011719 0
-0.0029976 0.00360288 0
-0.000846565 0.00667574 0
0.000486262 0.00925598 0
0.00116318 0.0112886 0
0.00135153 0.012725 0
0.0012174 0.0135156 0
0.00091548 0.0136065 0
0.000576591 0.0129415 0
0.000294316 0.0114699 0
0.000113814 0.00916464 0
2.99776e-05 0.006049 0
4.30286e-06 0.00222821 0
-9.04315e-05 -0.00159214 0
-0.000467065 -0.00389135 0
-0.00124639 -0.00536217 0
-0.00244437 -0.00601594 0
-0.00407196 -0.00591154 0
-0.00614698 -0.00514111 0
-0.00869905 -0.00381199 0
-0.0117687 -0.00203117 0
-0.0154028 0.000105228 0
-0.0196469 0.00251806 0
-0.0245345 0.00514827 0
-0.0269045 0.00795722 0
-0.0298641 0.010901 0
-0.0365671 0.0134128 0
-0.0438809 0.0155274 0
-0.0517529 0.0172226 0
-0.0600536 0.0184198 0
-0.0685833 0.0189975 0
-0.0770773 0.0188134 0
-0.0852131 0.0177313 0
-0.0926243 0.0156495 0
-0.0989221 0.0125273 0
-0.103723 0.00840751 0
-0.106823 0.00343096 0
-0.107823 -0.00217815 0
-0.106479 -0.00793014 0
-0.102921 -0.0135338 0
-0.0972004 -0.0186006 0
-0.0895014 -0.0227295 0
-0.0801442 -0.0255703 0
-0.0695673 -0.0268743 0
-0.0582975 -0.026534 0
-0.0469055 -0.0246064 0
-0.0359534 -0.0213174 0
-0.0259416 -0.0170483 0
-0.0203313 -0.0123053 0
-0.0163257 -0.00765848 0
-0.010811 -0.00306541 0
-0.00660354 0.00117877 0
-0.00352332 0.00494097 0
-0.00140984 0.00813404 0
-9.51619e-05 0.0106849 0
0.000598425 0.0125274 0
0.000848609 0.0136004 0
0.000819536 0.0138497 0
0.000648738 0.013232 0
0.000437354 0.0117254 0
0.000246812 0.00934353 0
0.000105208 0.00615034 0
2.42215e-05 0.00226772 0
-0.000115241 -0.00129698 0
-0.000593314 -0.00301378 0
-0.00158594 -0.00392938 0
-0.00312345 -0.0040712 0
-0.00522392 -0.00349635 0
-0.00790213 -0.00228553 0
-0.0111768 -0.000532522 0
-0.015074 0.0016663 0
-0.0196261 0.00421973 0
-0.0248662 0.00704551 0
-0.030816 0.0100704 0
-0.0337144 0.0132257 0
-0.0372482 0.0164158 0
-0.0451602 0.0192229 0
-0.0537316 0.0216107 0
-0.0629001 0.0235002 0
-0.0725149 0.0247679 0
-0.0823456 0.0252559 0
-0.0920911 0.0247918 0
-0.101393 0.0232176 0
-0.109852 0.0204199 0
-0.117053 0.0163593 0
-0.122592 0.0110937 0
-0.126139 0.00479604 0
-0.127372 -0.00225594 0
-0.126161 -0.00943412 0
-0.122528 -0.0164969 0
-0.116483 -0.0229861 0
-0.10818 -0.0284213 0
-0.0979185 -0.0323727 0
-0.0861365 -0.0345166 0
-0.0733831 -0.034683 0
-0.0602804 -0.0328887 0
-0.0474701 -0.0293492 0
-0.0355547 -0.0244675 0
-0.0288762 -0.0187992 0
-0.0239788 -0.0129869 0
-0.0169915 -0.00742006 0
-0.0114587 -0.00229506 0
-0.00721132 0.00228879 0
-0.00410166 0.00623359 0
-0.0019642 0.00944093 0
-0.000614532 0.0118218 0
0.000136402 0.0133026 0
0.000465756 0.0138295 0
0.00052562 0.013373 0
0.000435835 0.0119349 0
0.000284097 0.00955606 0
0.000133105 0.0063199 0
3.21979e-05 0.00234873 0
-0.000149139 -0.000898763 0
-0.00075942 -0.00184466 0
-0.00201485 -0.00202292 0
-0.00394868 -0.00148117 0
-0.00657889 -0.000282859 0
-0.00991484 0.0014966 0
-0.0139647 0.00377542 0
-0.0187409 0.00647047 0
-0.0242614 0.0094999 0
-0.0305455 0.0127823 0
-0.0376025 0.0162326 0
-0.0410487 0.0197533 0
-0.0451761 0.0232003 0
-0.0543385 0.0263204 0
-0.0642013 0.0289945 0
-0.0746888 0.0310765 0
-0.0856288 0.0323905 0
-0.0967643 0.0327377 0
-0.107767 0.0319151 0
-0.118253 0.0297448 0
-0.127803 0.0261055 0
-0.135989 0.0209628 0
-0.142394 0.0143921 0
-0.146443 0.0065946 0
-0.148009 -0.00211126 0
-0.147182 -0.0108989 0
-0.143737 -0.0196427 0
-0.137627 -0.027804 0
-0.128957 -0.0348168 0
-0.11799 -0.040161 0
-0.105144 -0.0434222 0
-0.090975 -0.0443466 0
-0.0761459 -0.0428859 0
-0.0613774 -0.0392203 0
-0.0473832 -0.0337544 0
-0.0395432 -0.0270821 0
-0.0336271 -0.019924 0
-0.0248778 -0.0132747 0
-0.017721 -0.00714426 0
-0.0120257 -0.00158532 0
-0.00767334 0.00328264 0
-0.00450699 0.00732321 0
-0.00233571 0.010416 0
-0.00095537 0.0124702 0
-0.000169049 0.0134298 0
0.000198658 0.0132751 0
0.000294823 0.0120247 0
0.000238245 0.00973615 0
0.000124346 0.00650259 0
3.18703e-05 0.00244493 0
-0.00018991 -0.000364094 0
-0.000956604 -0.000302782 0
-0.00251581 0.000467277 0
-0.00489535 0.00187853 0
-0.00810595 0.00385941 0
-0.0121472 0.00633831 0
-0.017015 0.00924598 0
-0.022708 0.0125154 0
-0.0292302 0.0160784 0
-0.0365876 0.0198584 0
-0.0447777 0.0237615 0
-0.0487811 0.0276645 0
-0.0535126 0.0313797 0
-0.0639508 0.034827 0
-0.0751248 0.037792 0
-0.0869419 0.0400544 0
-0.0992103 0.0413816 0
-0.111652 0.0415321 0
-0.123921 0.0402736 0
-0.13562 0.0374112 0
-0.146322 0.03282 0
-0.155595 0.0264731 0
-0.163018 0.0184618 0
-0.16763 0.0090076 0
-0.169641 -0.00154574 0
-0.169484 -0.0121249 0
-0.166523 -0.0227831 0
-0.160642 -0.0328877 0
-0.151888 -0.0417845 0
-0.140468 -0.0488549 0
-0.126757 -0.0535775 0
-0.111296 -0.0555911 0
-0.0947724 -0.0547512 0
-0.0779745 -0.0511692 0
-0.0617295 -0.0452207 0
-0.0526408 -0.0375167 0
-0.0455614 -0.0288539 0
-0.0346993 -0.0210412 0
-0.0255608 -0.0137734 0
-0.0180893 -0.00705371 0
-0.012212 -0.0010465 0
-0.00778394 0.00405341 0
-0.00460498 0.00808071 0
-0.00244953 0.0109193 0
-0.00109282 0.012505 0
-0.000327817 0.0128223 0
2.62618e-05 0.0119004 0
0.000122245 0.00980777 0
8.71428e-05 0.00664485 0
2.55951e-05 0.00253508 0
-0.000235755 0.000337106 0
-0.00117686 0.00168691 0
-0.00307066 0.00364579 0
-0.00593346 0.00612817 0
-0.0097627 0.00905654 0
-0.0145436 0.0123657 0
-0.0202573 0.0160025 0
-0.0268878 0.0199209 0
-0.0344257 0.0240709 0
-0.0428646 0.0283856 0
-0.0521922 0.0327662 0
-0.0567509 0.0370672 0
-0.0620864 0.0410645 0
-0.0738043 0.0448492 0
-0.0862878 0.048102 0
-0.0994264 0.0505243 0
-0.113011 0.0518256 0
-0.126749 0.0517228 0
-0.140286 0.0499569 0
-0.153222 0.0463203 0
-0.165131 0.0406872 0
-0.175586 0.0330389 0
-0.184167 0.0234793 0
-0.189386 0.012241 0
-0.191949 -0.000320041 0
-0.192754 -0.0128745 0
-0.190581 -0.0256858 0
-0.18525 -0.0380164 0
-0.176743 -0.0491283 0
-0.165191 -0.0583011 0
-0.150904 -0.0648939 0
-0.134377 -0.068414 0
-0.116288 -0.0685863 0
-0.0974695 -0.0654105 0
-0.0788504 -0.0591895 0
-0.0684634 -0.0505149 0
-0.0600706 -0.0402426 0
-0.0466865 -0.0312252 0
-0.0351528 -0.0226733 0
-0.0255317 -0.0145633 0
-0.0178107 -0.0071446 0
-0.0118585 -0.000699817 0
-0.00746126 0.00454221 0
-0.00436487 0.00842818 0
-0.00230863 0.0108778 0
-0.00104636 0.0118741 0
-0.000357848 0.0114524 0
-5.309e-05 0.00968975 0
2.7553e-05 0.00669555 0
1.49704e-05 0.00260138 0
-0.000284873 0.00123096 0
-0.00141175 0.00418968 0
-0.0036591 0.00760415 0
-0.00702728 0.0113734 0
-0.0114959 0.0154186 0
-0.017032 0.0196869 0
-0.0235993 0.0241481 0
-0.0311666 0.0287836 0
-0.039711 0.0335683 0
-0.0492157 0.0384501 0
-0.0596598 0.0433295 0
-0.0647601 0.048044 0
-0.0706862 0.0523399 0
-0.0836591 0.0564681 0
-0.0974215 0.0599982 0
-0.111845 0.0625528 0
-0.126705 0.0637854 0
-0.141704 0.0633748 0
-0.156484 0.0610389 0
-0.170649 0.0565608 0
-0.183783 0.0498162 0
-0.195468 0.0407943 0
-0.20529 0.0296082 0
-0.211124 0.016495 0
-0.214315 0.00181741 0
-0.216336 -0.0128961 0
-0.215232 -0.028088 0
-0.210779 -0.0429173 0
-0.20289 -0.0565762 0
-0.191612 -0.0682476 0
-0.177155 -0.0771672 0
-0.159931 -0.0826922 0
-0.140563 -0.0843824 0
-0.119882 -0.0820763 0
-0.0988819 -0.075946 0
-0.0872307 -0.0665071 0
-0.0773936 -0.0546335 0
-0.0610423 -0.0444197 0
-0.0466663 -0.0344156 0
-0.0344918 -0.0246345 0
-0.0245781 -0.0154691 0
-0.0168093 -0.00732727 0
-0.0109555 -0.000525028 0
-0.00672886 0.00473181 0
-0.00382612 0.00833713 0
-0.00195519 0.0102661 0
-0.000850674 0.0105572 0
-0.000281042 0.00929657 0
-5.06274e-05 0.00660511 0
9.92062e-07 0.00262825 0
-0.000335211 0.00233793 0
-0.00165161 0.00725605 0
-0.00425753 0.0124126 0
-0.00813448 0.0176943 0
-0.0132412 0.0230274 0
-0.0195241 0.0283799 0
-0.0269278 0.0337538 0
-0.035405 0.0391669 0
-0.0449199 0.0446268 0
-0.0554461 0.0501023 0
-0.0669564 0.0554985 0
-0.0725711 0.0606411 0
-0.0790585 0.0652541 0
-0.0932255 0.069726 0
-0.108197 0.0735149 0
-0.123827 0.0761676 0
-0.139882 0.0772858 0
-0.156059 0.0765142 0
-0.172003 0.0735521 0
-0.187327 0.0681765 0
-0.201626 0.0602661 0
-0.214497 0.0498185 0
-0.225543 0.0369561 0
-0.231941 0.0219208 0
-0.235785 0.00508541 0
-0.239183 -0.0119604 0
-0.239366 -0.0297205 0
-0.236096 -0.0472773 0
-0.229223 -0.0637768 0
-0.218695 -0.0783239 0
-0.204605 -0.0900397 0
-0.187231 -0.0981252 0
-0.167081 -0.101947 0
-0.144917 -0.101134 0
-0.121732 -0.0956565 0
-0.108993 -0.085877 0
-0.097641 -0.072612 0
-0.0779004 -0.0612671 0
-0.0602522 -0.0496236 0
-0.0451216 -0.0378467 0
-0.0326498 -0.0265416 0
-0.022745 -0.0162837 0
-0.0151659 -0.00750538 0
-0.00959179 -0.00048518 0
-0.00567308 0.00463182 0
-0.0030664 0.00780566 0
-0.00145532 0.00907497 0
-0.000561029 0.0085353 0
-0.00014638 0.00632264 0
-1.59876e-05 0.00260094 0
-0.000384352 0.00367036 0
-0.00188513 0.0109155 0
-0.00483843 0.0181107 0
-0.00920571 0.0251341 0
-0.0149237 0.0319244 0
-0.0219169 0.0384803 0
-0.0301104 0.044847 0
-0.0394404 0.0510895 0
-0.0498586 0.057257 0
-0.0613298 0.0633464 0
-0.0738219 0.0692732 0
-0.0799088 0.0748563 0
-0.0869094 0.0798042 0
-0.102164 0.0846114 0
-0.118227 0.0886304 0
-0.134933 0.0913383 0
-0.15204 0.0922901 0
-0.169244 0.0911015 0
-0.186193 0.0874564 0
-0.202508 0.0811288 0
-0.2178 0.0720038 0
-0.231684 0.0600912 0
-0.243797 0.0455285 0
-0.250638 0.028571 0
-0.255083 0.0096134 0
-0.259879 -0.00990392 0
-0.261463 -0.0303428 0
-0.259616 -0.0507696 0
-0.25414 -0.0703157 0
-0.244886 -0.0880416 0
-0.231806 -0.10298 0
-0.215004 -0.114189 0
-0.194809 -0.120832 0
-0.171824 -0.122286 0
-0.146948 -0.118254 0
-0.133497 -0.108849 0
-0.12068 -0.0947173 0
-0.0972621 -0.0823684 0
-0.076017 -0.0689102 0
-0.0575803 -0.0548056 0
-0.0421934 -0.0409361 0
-0.0298139 -0.0280887 0
-0.0202099 -0.0168494 0
-0.0130378 -0.00759812 0
-0.00790448 -0.0005384 0
-0.00441246 0.00426327 0
-0.00218868 0.00684083 0
-0.000900404 0.00729895 0
-0.000262062 0.00579102 0
-3.63633e-05 0.00250345 0
-0.000429497 0.00522959 0
-0.00209937 0.0151697 0
-0.00537053 0.024698 0
-0.0101852 0.0336878 0
-0.016459 0.042098 0
-0.0240949 0.0499685 0
-0.032999 0.0573994 0
-0.0430912 0.0645142 0
-0.0543111 0.0714132 0
-0.0666149 0.0781291 0
-0.0799659 0.0845938 0
-0.0864665 0.0906248 0
-0.0939103 0.0959206 0
-0.110093 0.101042 0
-0.127068 0.105248 0
-0.144653 0.107955 0
-0.162596 0.108676 0
-0.180589 0.107002 0
-0.198282 0.102605 0
-0.215304 0.0952613 0
-0.231283 0.0848673 0
-0.245861 0.0714549 0
-0.258723 0.0551893 0
-0.265818 0.0363554 0
-0.270725 0.0153848 0
-0.276766 -0.0066729 0
-0.279723 -0.029788 0
-0.27943 -0.0530982 0
-0.275659 -0.0757565 0
-0.268181 -0.0968271 0
-0.2568 -0.115301 0
-0.24142 -0.130128 0
-0.22213 -0.140286 0
-0.199287 -0.144886 0
-0.173579 -0.143307 0
-0.160021 -0.135325 0
-0.145986 -0.12127 0
-0.118904 -0.10813 0
-0.0939632 -0.0927762 0
-0.0719957 -0.0760847 0
-0.0533856 -0.0592502 0
-0.038194 -0.0433179 0
-0.0262407 -0.0290768 0
-0.0171858 -0.0170513 0
-0.0106048 -0.00753463 0
-0.00604823 -0.0006393 0
-0.00308276 0.00365426 0
-0.00131513 0.00545679 0
-0.000403636 0.00494003 0
-6.13153e-05 0.0023157 0
-0.000467563 0.00700312 0
-0.00228016 0.0199857 0
-0.00581992 0.0321249 0
-0.011013 0.0432924 0
-0.0177564 0.0534738 0
-0.0259347 0.0627601 0
-0.0354359 0.0713172 0
-0.0461647 0.0793377 0
-0.0580483 0.086983 0
-0.071034 0.0943292 0
-0.0850795 0.10133 0
-0.0919179 0.107807 0
-0.0997111 0.113453 0
-0.116603 0.11885 0
-0.134245 0.123181 0
-0.152439 0.125811 0
-0.170918 0.126215 0
-0.189368 0.123965 0
-0.207438 0.118724 0
-0.224764 0.110278 0
-0.240996 0.0985464 0
-0.255815 0.083598 0
-0.268968 0.0656435 0
-0.276072 0.0450171 0
-0.281223 0.0221994 0
-0.288175 -0.00235648 0
-0.292317 -0.0280072 0
-0.293556 -0.0540533 0
-0.291665 -0.0797066 0
-0.286358 -0.104093 0
-0.277309 -0.126224 0
-0.264221 -0.145003 0
-0.24691 -0.159269 0
-0.225416 -0.167892 0
-0.200103 -0.169909 0
-0.187239 -0.164695 0
-0.17249 -0.152116 0
-0.142256 -0.138559 0
-0.11388 -0.121472 0
-0.0883768 -0.102132 0
-0.0663499 -0.0820485 0
-0.0480511 -0.062573 0
-0.0334222 -0.0447655 0
-0.0221748 -0.0293591 0
-0.0138796 -0.016787 0
-0.00804635 -0.00724044 0
-0.00418216 -0.000733025 0
-0.00182846 0.00284393 0
-0.000580134 0.00367884 0
-9.26953e-05 0.00201047 0
-0.000495377 0.00896239 0
-0.00241301 0.0252908 0
-0.00615202 0.0402858 0
-0.0116279 0.0538187 0
-0.0187247 0.0659065 0
-0.027312 0.076698 0
-0.0372629 0.0864336 0
-0.0484676 0.0953843 0
-0.0608407 0.103781 0
-0.0743193 0.11175 0
-0.0888532 0.119274 0
-0.0959359 0.126181 0
-0.103961 0.132161 0
-0.121283 0.13777 0
-0.139285 0.14214 0
-0.157745 0.144589 0
-0.176384 0.144563 0
-0.194875 0.141614 0
-0.212867 0.135407 0
-0.230006 0.125748 0
-0.245968 0.112594 0
-0.260488 0.0960709 0
-0.273383 0.0764542 0
-0.280225 0.0541446 0
-0.28535 0.0296763 0
-0.29274 0.0028067 0
-0.297738 -0.0250984 0
-0.300322 -0.0535631 0
-0.300301 -0.0818958 0
-0.297367 -0.109341 0
-0.291108 -0.135 0
-0.281052 -0.157811 0
-0.266753 -0.176556 0
-0.247908 -0.189926 0
-0.224483 -0.196653 0
-0.213194 -0.195693 0