# vtk DataFile Version 2.0
Presion
ASCII

DATASET STRUCTURED_GRID
DIMENSIONS   50   50   20

POINTS   50000   double
0.00568455   0.00568455   0.025
0.0174023   0.00568455   0.025
0.0298294   0.00568455   0.025
0.0429888   0.00568455   0.025
0.0569012   0.00568455   0.025
0.0715849   0.00568455   0.025
0.0870549   0.00568455   0.025
0.103323   0.00568455   0.025
0.120395   0.00568455   0.025
0.138275   0.00568455   0.025
0.156961   0.00568455   0.025
0.176443   0.00568455   0.025
0.196707   0.00568455   0.025
0.217734   0.00568455   0.025
0.239496   0.00568455   0.025
0.261959   0.00568455   0.025
0.285082   0.00568455   0.025
0.308818   0.00568455   0.025
0.333113   0.00568455   0.025
0.357906   0.00568455   0.025
0.383132   0.00568455   0.025
0.408719   0.00568455   0.025
0.434592   0.00568455   0.025
0.460672   0.00568455   0.025
0.486877   0.00568455   0.025
0.513123   0.00568455   0.025
0.539328   0.00568455   0.025
0.565408   0.00568455   0.025
0.591281   0.00568455   0.025
0.616868   0.00568455   0.025
0.642094   0.00568455   0.025
0.666887   0.00568455   0.025
0.691182   0.00568455   0.025
0.714918   0.00568455   0.025
0.738041   0.00568455   0.025
0.760504   0.00568455   0.025
0.782266   0.00568455   0.025
0.803293   0.00568455   0.025
0.823557   0.00568455   0.025
0.843039   0.00568455   0.025
0.861725   0.00568455   0.025
0.879605   0.00568455   0.025
0.896677   0.00568455   0.025
0.912945   0.00568455   0.025
0.928415   0.00568455   0.025
0.943099   0.00568455   0.025
0.957011   0.00568455   0.025
0.970171   0.00568455   0.025
0.982598   0.00568455   0.025
0.994315   0.00568455   0.025
0.00568455   0.0174023   0.025
0.0174023   0.0174023   0.025
0.0298294   0.0174023   0.025
0.0429888   0.0174023   0.025
0.0569012   0.0174023   0.025
0.0715849   0.0174023   0.025
0.0870549   0.0174023   0.025
0.103323   0.0174023   0.025
0.120395   0.0174023   0.025
0.138275   0.0174023   0.025
0.156961   0.0174023   0.025
0.176443   0.0174023   0.025
0.196707   0.0174023   0.025
0.217734   0.0174023   0.025
0.239496   0.0174023   0.025
0.261959   0.0174023   0.025
0.285082   0.0174023   0.025
0.308818   0.0174023   0.025
0.333113   0.0174023   0.025
0.357906   0.0174023   0.025
0.383132   0.0174023   0.025
0.408719   0.0174023   0.025
0.434592   0.0174023   0.025
0.460672   0.0174023   0.025
0.486877   0.0174023   0.025
0.513123   0.0174023   0.025
0.539328   0.0174023   0.025
0.565408   0.0174023   0.025
0.591281   0.0174023   0.025
0.616868   0.0174023   0.025
0.642094   0.0174023   0.025
0.666887   0.0174023   0.025
0.691182   0.0174023   0.025
0.714918   0.0174023   0.025
0.738041   0.0174023   0.025
0.760504   0.0174023   0.025
0.782266   0.0174023   0.025
0.803293   0.0174023   0.025
0.823557   0.0174023   0.025
0.843039   0.0174023   0.025
0.861725   0.0174023   0.025
0.879605   0.0174023   0.025
0.896677   0.0174023   0.025
0.912945   0.0174023   0.025
0.928415   0.0174023   0.025
0.943099   0.0174023   0.025
0.957011   0.0174023   0.025
0.970171   0.0174023   0.025
0.982598   0.0174023   0.025
0.994315   0.0174023   0.025
0.00568455   0.0298294   0.025
0.0174023   0.0298294   0.025
0.0298294   0.0298294   0.025
0.0429888   0.0298294   0.025
0.0569012   0.0298294   0.025
0.0715849   0.0298294   0.025
0.0870549   0.0298294   0.025
0.103323   0.0298294   0.025
0.120395   0.0298294   0.025
0.138275   0.0298294   0.025
0.156961   0.0298294   0.025
0.176443   0.0298294   0.025
0.196707   0.0298294   0.025
0.217734   0.0298294   0.025
0.239496   0.0298294   0.025
0.261959   0.0298294   0.025
0.285082   0.0298294   0.025
0.308818   0.0298294   0.025
0.333113   0.0298294   0.025
0.357906   0.0298294   0.025
0.383132   0.0298294   0.025
0.408719   0.0298294   0.025
0.434592   0.0298294   0.025
0.460672   0.0298294   0.025
0.486877   0.0298294   0.025
0.513123   0.0298294   0.025
0.539328   0.0298294   0.025
0.565408   0.0298294   0.025
0.591281   0.0298294   0.025
0.616868   0.0298294   0.025
0.642094   0.0298294   0.025
0.666887   0.0298294   0.025
0.691182   0.0298294   0.025
0.714918   0.0298294   0.025
0.738041   0.0298294   0.025
0.760504   0.0298294   0.025
0.782266   0.0298294   0.025
0.803293   0.0298294   0.025
0.823557   0.0298294   0.025
0.843039   0.0298294   0.025
0.861725   0.0298294   0.025
0.879605   0.0298294   0.025
0.896677   0.0298294   0.025
0.912945   0.0298294   0.025
0.928415   0.0298294   0.025
0.943099   0.0298294   0.025
0.957011   0.0298294   0.025
0.970171   0.0298294   0.025
0.982598   0.0298294   0.025
0.994315   0.0298294   0.025
0.00568455   0.0429888   0.025
0.0174023   0.0429888   0.025
0.0298294   0.0429888   0.025
0.0429888   0.0429888   0.025
0.0569012   0.0429888   0.025
0.0715849   0.0429888   0.025
0.0870549   0.0429888   0.025
0.103323   0.0429888   0.025
0.120395   0.0429888   0.025
0.138275   0.0429888   0.025
0.156961   0.0429888   0.025
0.176443   0.0429888   0.025
0.196707   0.0429888   0.025
0.217734   0.0429888   0.025
0.239496   0.0429888   0.025
0.261959   0.0429888   0.025
0.285082   0.0429888   0.025
0.308818   0.0429888   0.025
0.333113   0.0429888   0.025
0.357906   0.0429888   0.025
0.383132   0.0429888   0.025
0.408719   0.0429888   0.025
0.434592   0.0429888   0.025
0.460672   0.0429888   0.025
0.486877   0.0429888   0.025
0.513123   0.0429888   0.025
0.539328   0.0429888   0.025
0.565408   0.0429888   0.025
0.591281   0.0429888   0.025
0.616868   0.0429888   0.025
0.642094   0.0429888   0.025
0.666887   0.0429888   0.025
0.691182   0.0429888   0.025
0.714918   0.0429888   0.025
0.738041   0.0429888   0.025
0.760504   0.0429888   0.025
0.782266   0.0429888   0.025
0.803293   0.0429888   0.025
0.823557   0.0429888   0.025
0.843039   0.0429888   0.025
0.861725   0.0429888   0.025
0.879605   0.0429888   0.025
0.896677   0.0429888   0.025
0.912945   0.0429888   0.025
0.928415   0.0429888   0.025
0.943099   0.0429888   0.025
0.957011   0.0429888   0.025
0.970171   0.0429888   0.025
0.982598   0.0429888   0.025
0.994315   0.0429888   0.025
0.00568455   0.0569012   0.025
0.0174023   0.0569012   0.025
0.0298294   0.0569012   0.025
0.0429888   0.0569012   0.025
0.0569012   0.0569012   0.025
0.0715849   0.0569012   0.025
0.0870549   0.0569012   0.025
0.103323   0.0569012   0.025
0.120395   0.0569012   0.025
0.138275   0.0569012   0.025
0.156961   0.0569012   0.025
0.176443   0.0569012   0.025
0.196707   0.0569012   0.025
0.217734   0.0569012   0.025
0.239496   0.0569012   0.025
0.261959   0.0569012   0.025
0.285082   0.0569012   0.025
0.308818   0.0569012   0.025
0.333113   0.0569012   0.025
0.357906   0.0569012   0.025
0.383132   0.0569012   0.025
0.408719   0.0569012   0.025
0.434592   0.0569012   0.025
0.460672   0.0569012   0.025
0.486877   0.0569012   0.025
0.513123   0.0569012   0.025
0.539328   0.0569012   0.025
0.565408   0.0569012   0.025
0.591281   0.0569012   0.025
0.616868   0.0569012   0.025
0.642094   0.0569012   0.025
0.666887   0.0569012   0.025
0.691182   0.0569012   0.025
0.714918   0.0569012   0.025
0.738041   0.0569012   0.025
0.760504   0.0569012   0.025
0.782266   0.0569012   0.025
0.803293   0.0569012   0.025
0.823557   0.0569012   0.025
0.843039   0.0569012   0.025
0.861725   0.0569012   0.025
0.879605   0.0569012   0.025
0.896677   0.0569012   0.025
0.912945   0.0569012   0.025
0.928415   0.0569012   0.025
0.943099   0.0569012   0.025
0.957011   0.0569012   0.025
0.970171   0.0569012   0.025
0.982598   0.0569012   0.025
0.994315   0.0569012   0.025
0.00568455   0.0715849   0.025
0.0174023   0.0715849   0.025
0.0298294   0.0715849   0.025
0.0429888   0.0715849   0.025
0.0569012   0.0715849   0.025
0.0715849   0.0715849   0.025
0.0870549   0.0715849   0.025
0.103323   0.0715849   0.025
0.120395   0.0715849   0.025
0.138275   0.0715849   0.025
0.156961   0.0715849   0.025
0.176443   0.0715849   0.025
0.196707   0.0715849   0.025
0.217734   0.0715849   0.025
0.239496   0.0715849   0.025
0.261959   0.0715849   0.025
0.285082   0.0715849   0.025
0.308818   0.0715849   0.025
0.333113   0.0715849   0.025
0.357906   0.0715849   0.025
0.383132   0.0715849   0.025
0.408719   0.0715849   0.025
0.434592   0.0715849   0.025
0.460672   0.0715849   0.025
0.486877   0.0715849   0.025
0.513123   0.0715849   0.025
0.539328   0.0715849   0.025
0.565408   0.0715849   0.025
0.591281   0.0715849   0.025
0.616868   0.0715849   0.025
0.642094   0.0715849   0.025
0.666887   0.0715849   0.025
0.691182   0.0715849   0.025
0.714918   0.0715849   0.025
0.738041   0.0715849   0.025
0.760504   0.0715849   0.025
0.782266   0.0715849   0.025
0.803293   0.0715849   0.025
0.823557   0.0715849   0.025
0.843039   0.0715849   0.025
0.861725   0.0715849   0.025
0.879605   0.0715849   0.025
0.896677   0.0715849   0.025
0.912945   0.0715849   0.025
0.928415   0.0715849   0.025
0.943099   0.0715849   0.025
0.957011   0.0715849   0.025
0.970171   0.0715849   0.025
0.982598   0.0715849   0.025
0.994315   0.0715849   0.025
0.00568455   0.0870549   0.025
0.0174023   0.0870549   0.025
0.0298294   0.0870549   0.025
0.0429888   0.0870549   0.025
0.0569012   0.0870549   0.025
0.0715849   0.0870549   0.025
0.0870549   0.0870549   0.025
0.103323   0.0870549   0.025
0.120395   0.0870549   0.025
0.138275   0.0870549   0.025
0.156961   0.0870549   0.025
0.176443   0.0870549   0.025
0.196707   0.0870549   0.025
0.217734   0.0870549   0.025
0.239496   0.0870549   0.025
0.261959   0.0870549   0.025
0.285082   0.0870549   0.025
0.308818   0.0870549   0.025
0.333113   0.0870549   0.025
0.357906   0.0870549   0.025
0.383132   0.0870549   0.025
0.408719   0.0870549   0.025
0.434592   0.0870549   0.025
0.460672   0.0870549   0.025
0.486877   0.0870549   0.025
0.513123   0.0870549   0.025
0.539328   0.0870549   0.025
0.565408   0.0870549   0.025
0.591281   0.0870549   0.025
0.616868   0.0870549   0.025
0.642094   0.0870549   0.025
0.666887   0.0870549   0.025
0.691182   0.0870549   0.025
0.714918   0.0870549   0.025
0.738041   0.0870549   0.025
0.760504   0.0870549   0.025
0.782266   0.0870549   0.025
[...]
POINT_DATA   50000
SCALARS Presion double
LOOKUP_TABLE   Presion

0 0 0 0 0 0 0 0 0 0 0 0 0 0 0 0 0 0 0 0 0 0 0 0 0 0 0 0 0 0 0 0 0 0 0 0 0 0 0 0 0 0 0 0 0 0 0 0 0 0 0.00166251 0.00180996 0.00198797 0.00211672 0.00218171 0.00218409 0.00212844 0.0020199 0.00186334 0.00166302 0.00142235 0.00114305 0.000683252 0.000403958 0.000154679 -6.2516e-05 -0.000242505 -0.000376879 -0.000455828 -0.000470544 -0.000415649 -0.00029123 -0.000103795 0.000134031 0.00038501 0.000634954 0.000850121 0.00100354 0.00107372 0.00104679 0.000918088 0.000692824 0.000385744 1.99772e-05 -0.000374842 -0.000763935 -0.00101269 -0.00137489 -0.00171201 -0.00200657 -0.00224808 -0.00243085 -0.00255199 -0.00261004 -0.00260425 -0.00253411 -0.00239969 -0.0022045 -0.00196898 -0.00178579 0.00218231 0.00217119 0.0022212 0.00227212 0.00229418 0.00227512 0.00221121 0.00210275 0.00195194 0.00176201 0.00153732 0.00128189 0.00076108 0.000508439 0.000273088 6.22014e-05 -0.000116816 -0.000254902 -0.000342302 -0.000370455 -0.000334119 -0.000233215 -7.38204e-05 0.000130348 0.000353424 0.000572038 0.00075815 0.000886229 0.00093597 0.000894349 0.000757152 0.00052957 0.000225716 -0.000132905 -0.000520042 -0.000905548 -0.00108243 -0.00144168 -0.00176792 -0.00204974 -0.00227989 -0.00245465 -0.00257273 -0.0026346 -0.00264237 -0.00260031 -0.00251688 -0.00240943 -0.00231413 -0.00230056 0.0025346 0.00248466 0.00247008 0.0024647 0.00244701 0.00240335 0.00232656 0.00221384 0.00206527 0.00188301 0.00167149 0.00143401 0.000843541 0.000613366 0.000390414 0.000183906 2.74373e-06 -0.00014335 -0.000244392 -0.000291628 -0.000279376 -0.000206771 -7.89793e-05 8.90969e-05 0.000288925 0.000482195 0.000646773 0.000758046 0.000795799 0.000746571 0.000605466 0.00037691 7.41394e-05 -0.000282646 -0.000669438 -0.00105757 -0.0011586 -0.00152001 -0.00184093 -0.00211469 -0.00233748 -0.00250792 -0.00262665 -0.0026961 -0.00272063 -0.00270735 -0.00266757 -0.00261905 -0.00258772 -0.00260458 0.00282779 0.0027681 0.00272161 0.00267958 0.00263028 0.00256355 0.00247231 0.00235264 0.00220335 0.00202565 0.00182357 0.00159846 0.000933057 0.000719164 0.000504374 0.000298075 0.000109766 -5.03688e-05 -0.000171918 -0.000245469 -0.000264249 -0.000225839 -0.000133723 -3.26466e-06 0.000175245 0.000349283 0.000500113 0.000603714 0.00063899 0.00059082 0.000452443 0.000226619 -7.4744e-05 -0.000432606 -0.000824247 -0.0012204 -0.00124557 -0.00161318 -0.00193323 -0.00220313 -0.00242236 -0.00259194 -0.00271433 -0.00279343 -0.0028348 -0.00284609 -0.00283751 -0.00282195 -0.00281362 -0.00282366 0.0031114 0.00304338 0.00297704 0.00290999 0.00283649 0.00274993 0.00264462 0.00251665 0.00236421 0.00218777 0.00199065 0.00177171 0.001029 0.000823594 0.0006101 0.000397167 0.000194188 1.15618e-05 -0.000139706 -0.000249054 -0.000307882 -0.000311316 -0.000260111 -0.000168945 -1.16443e-05 0.000148573 0.000293394 0.000399152 0.000442982 0.000406898 0.000280976 6.5159e-05 -0.000230755 -0.000589069 -0.00098776 -0.00139548 -0.0013483 -0.00172478 -0.00204705 -0.00231642 -0.00253545 -0.00270724 -0.00283564 -0.00292534 -0.00298207 -0.00301259 -0.00302459 -0.00302611 -0.00302417 -0.00302239 0.00340514 0.00332342 0.0032394 0.00315248 0.00305955 0.0029562 0.00283791 0.00270102 0.0025433 0.00236452 0.00216711 0.0019471 0.00112722 0.000920718 0.000698914 0.0004694 0.000241032 2.42601e-05 -0.000169121 -0.000326867 -0.000437735 -0.000493383 -0.000490595 -0.000442005 -0.000305807 -0.000155876 -9.85514e-06 0.00010865 0.000174151 0.00016454 6.5227e-05 -0.00012818 -0.000409232 -0.00076226 -0.00116584 -0.00158558 -0.00147317 -0.00185887 -0.00218445 -0.00245545 -0.00267704 -0.0028538 -0.00299025 -0.00309124 -0.00316191 -0.00320765 -0.00323376 -0.00324503 -0.00324502 -0.00323517 0.00371313 0.00361153 0.00350819 0.00340269 0.0032927 0.00317461 0.00304427 0.00289789 0.00273266 0.00254742 0.00234344 0.00211376 0.00121889 0.000999599 0.00075688 0.000497254 0.000228868 -3.77935e-05 -0.000289869 -0.000512831 -0.000691927 -0.000814245 -0.000871253 -0.00087209 -0.000754341 -0.000614571 -0.000461413 -0.000318898 -0.000215983 -0.000180255 -0.000232762 -0.000384233 -0.00063344 -0.00096809 -0.00136794 -0.00179516 -0.00162914 -0.00202035 -0.00234749 -0.00262069 -0.00284693 -0.00303125 -0.00317803 -0.00329151 -0.00337589 -0.00343515 -0.00347287 -0.00349202 -0.00349477 -0.00348226 0.00402958 0.00390265 0.00377724 0.00365264 0.00352635 0.00339446 0.00325238 0.0030955 0.00291993 0.00272321 0.00250505 0.00225539 0.00128912 0.00104277 0.000763151 0.000455769 0.000128072 -0.000209278 -0.000541965 -0.000852515 -0.00112175 -0.00133104 -0.0014652 -0.00152831 -0.0014211 -0.00129661 -0.00113277 -0.000954737 -0.000795735 -0.000690272 -0.000667969 -0.000748471 -0.000938418 -0.00123114 -0.00160898 -0.00203124 -0.00182945 -0.00221602 -0.0025388 -0.00281258 -0.00304476 -0.00323932 -0.0033993 -0.00352761 -0.00362716 -0.00370064 -0.00375049 -0.00377877 -0.0037872 -0.00377718 0.00434056 0.00418391 0.00403376 0.00388894 0.00374618 0.00360055 0.00344616 0.00327689 0.00308714 0.00287259 0.00263093 0.00234887 0.00131525 0.0010246 0.000688277 0.000310817 -0.000100921 -0.000535824 -0.000977625 -0.00140518 -0.00179393 -0.00211841 -0.00235542 -0.00250237 -0.00239075 -0.00229389 -0.0021198 -0.00189548 -0.00165904 -0.00145332 -0.00131885 -0.00128732 -0.00137679 -0.00158952 -0.00191306 -0.00230563 -0.00209467 -0.00245643 -0.00276295 -0.00303266 -0.00327091 -0.00347841 -0.00365526 -0.00380207 -0.00392001 -0.00401053 -0.00407519 -0.00411559 -0.0041334 -0.00413041 0.00462419 0.00443455 0.00425758 0.00409145 0.00393166 0.00377162 0.00360342 0.00341872 0.00320956 0.00296912 0.00269249 0.00236316 0.00126536 0.000909785 0.000492716 1.76369e-05 -0.000509032 -0.00107536 -0.00166256 -0.00224504 -0.00279186 -0.00326959 -0.00364585 -0.0039093 -0.00377219 -0.00372426 -0.00354627 -0.00326736 -0.00293071 -0.00258855 -0.00229459 -0.00209604 -0.00202668 -0.0021023 -0.00231962 -0.00263977 -0.00245754 -0.00275957 -0.0030293 -0.00328573 -0.0035281 -0.00375075 -0.00394868 -0.00411886 -0.00426001 -0.00437206 -0.00445574 -0.00451231 -0.00454351 -0.00455148 0.0048503 0.00462566 0.00442062 0.00423242 0.00405489 0.00387917 0.0036947 0.0034902 0.00325471 0.00297829 0.00265279 0.0022585 0.00109713 0.00065238 0.000125955 -0.000479895 -0.00115905 -0.00189837 -0.0026759 -0.00346072 -0.00421451 -0.00489467 -0.00545853 -0.00588348 -0.00569916 -0.00573121 -0.00556351 -0.00522665 -0.00476827 -0.00425021 -0.00374095 -0.00330645 -0.00300094 -0.00285935 -0.00289322 -0.00307359 -0.00297044 -0.0031569 -0.00335695 -0.00358358 -0.00382413 -0.00406234 -0.00428524 -0.00448426 -0.00465455 -0.00479389 -0.00490191 -0.00497946 -0.00502827 -0.00505077 0.00498032 0.00472009 0.0044867 0.00427618 0.00408016 0.00388695 0.00368269 0.00345258 0.00318199 0.00285728 0.0024664 0.00198648 0.000757698 0.000195825 -0.000473178 -0.0012486 -0.00212452 -0.00308612 -0.00410755 -0.00515161 -0.00617139 -0.00711383 -0.00792484 -0.0085673 -0.00832456 -0.00847636 -0.00834219 -0.0079519 -0.00735579 -0.00662416 -0.00584031 -0.00509096 -0.00445496 -0.00399244 -0.00373686 -0.00368007 -0.00371486 -0.00370216 -0.00378195 -0.00395051 -0.00417576 -0.00442561 -0.00467533 -0.00490816 -0.00511388 -0.00528706 -0.00542557 -0.00552951 -0.00560049 -0.00564112 0.00496781 0.00467303 0.00441216 0.00417959 0.00396432 0.00375124 0.00352263 0.00325962 0.00294333 0.0025558 0.00208048 0.00149126 0.000184924 -0.000525355 -0.00137433 -0.00236317 -0.00348601 -0.00472581 -0.00605193 -0.00741966 -0.00877205 -0.0100441 -0.0111689 -0.012091 -0.0118047 -0.0121209 -0.012052 -0.0116232 -0.0108844 -0.0099113 -0.00879972 -0.0076566 -0.00658758 -0.00568321 -0.00500649 -0.00458541 -0.00481068 -0.00448157 -0.00436598 -0.00442972 -0.00461324 -0.00486255 -0.00513626 -0.00540562 -0.00565237 -0.00586606 -0.00604175 -0.00617815 -0.0062764 -0.00633919 0.00476022 0.00443374 0.00414744 0.00389369 0.00365838 0.00342251 0.003164 0.00285941 0.00248514 0.00201833 0.00143734 0.000712651 -0.000689182 -0.00158156 -0.00265086 -0.0039004 -0.00532407 -0.00690184 -0.00859704 -0.0103559 -0.0121095 -0.013779 -0.0152835 -0.016545 -0.01627 -0.0167938 -0.0168269 -0.016386 -0.0155161 -0.0142933 -0.0128207 -0.0112216 -0.00962681 -0.00815973 -0.00691965 -0.00598906 -0.00641833 -0.00562093 -0.00520339 -0.00508917 -0.00518469 -0.00540775 -0.00569424 -0.00599823 -0.00628947 -0.00654973 -0.00676948 -0.00694502 -0.00707649 -0.0071664 0.00430192 0.00394858 0.00364016 0.00336669 0.00311056 0.0028485 0.00255371 0.00219779 0.00175202 0.00118819 0.000479 -0.000408849 -0.00193247 -0.00304139 -0.00437215 -0.00593021 -0.00770859 -0.00968306 -0.0118092 -0.0140221 -0.0162388 -0.0183647 -0.0203025 -0.0219496 -0.0217856 -0.0225498 -0.0227213 -0.0223041 -0.0213342 -0.0198817 -0.0180498 -0.0159699 -0.0137922 -0.0116705 -0.00974416 -0.00816845 -0.00872455 -0.00728224 -0.00642237 -0.00602438 -0.00595901 -0.00611078 -0.00638608 -0.00671521 -0.0070504 -0.00736163 -0.00763207 -0.00785401 -0.00802568 -0.008149 0.00353889 0.00316549 0.00283954 0.00254845 0.00227083 0.00197891 0.00164099 0.00122346 0.000692204 1.33352e-05 -0.000846502 -0.00192495 -0.00360408 -0.00496226 -0.00659312 -0.00850379 -0.0106853 -0.0131074 -0.0157157 -0.0184317 -0.0211559 -0.023776 -0.0261772 -0.0282317 -0.0283093 -0.029329 -0.0296674 -0.0293143 -0.0282932 -0.0266627 -0.0245178 -0.0219881 -0.0192323 -0.0164273 -0.0137509 -0.0114437 -0.0119052 -0.00964349 -0.00817628 -0.0073565 -0.00702685 -0.00703771 -0.00726037 -0.00759397 -0.00796625 -0.00832982 -0.00865669 -0.00893262 -0.00915255 -0.00931714 0.00242461 0.00203986 0.00170219 0.00139622 0.00109673 0.000771408 0.000383581 -0.000105578 -0.000735668 -0.0015464 -0.00257734 -0.0038711 -0.00574396 -0.00737927 -0.00934228 -0.0116407 -0.0142616 -0.0171667 -0.0202889 -0.0235332 -0.0267819 -0.0299036 -0.0327657 -0.0352187 -0.0356673 -0.0369362 -0.0374558 -0.0372038 -0.03619 -0.0344591 -0.0320912 -0.0292038 -0.0259519 -0.022523 -0.0191254 -0.0160846 -0.0160734 -0.0128629 -0.0106245 -0.00922436 -0.00849849 -0.00827141 -0.00837813 -0.0086804 -0.00907366 -0.0094861 -0.00987317 -0.0102105 -0.0104877 -0.0107029 0.000926724 0.000540872 0.000198397 -0.000118939 -0.000440109 -0.000801801 -0.00124545 -0.00181494 -0.00255521 -0.00351166 -0.0047299 -0.00625796 -0.0083623 -0.0102944 -0.0126106 -0.0153173 -0.0183958 -0.0217967 -0.0254375 -0.0292048 -0.0329611 -0.0365565 -0.0398422 -0.0426537 -0.0435628 -0.0450547 -0.0457527 -0.0456269 -0.0446771 -0.0429342 -0.040461 -0.0373561 -0.0337592 -0.0298535 -0.0258642 -0.0221811 -0.0212357 -0.0170381 -0.0139048 -0.0117689 -0.0104969 -0.00990909 -0.00981219 -0.0100285 -0.010414 -0.0108646 -0.0113122 -0.0117173 -0.012061 -0.0123374 -0.000966645 -0.00134227 -0.00168177 -0.00200615 -0.00234788 -0.00274768 -0.00325133 -0.00390738 -0.00476568 -0.00587687 -0.00729204 -0.00906467 -0.0114312 -0.0136684 -0.016344 -0.0194611 -0.0229923 -0.0268749 -0.0310088 -0.0352609 -0.0394744 -0.0434828 -0.047125 -0.0502308 -0.0516232 -0.0532979 -0.054155 -0.0541641 -0.0533203 -0.0516455 -0.0491869 -0.0460222 -0.0422679 -0.0380897 -0.0337103 -0.0295444 -0.0272792 -0.0221742 -0.0181003 -0.0151085 -0.0131425 -0.0120545 -0.0116434 -0.0116979 -0.0120314 -0.0124994 -0.0130024 -0.0134794 -0.0138984 -0.0142473 -0.00324201 -0.00359566 -0.00392382 -0.00425007 -0.00460998 -0.00504776 -0.00561299 -0.00635821 -0.00733751 -0.00860601 -0.0102193 -0.0122356 -0.0148811 -0.0174183 -0.0204424 -0.0239511 -0.0279063 -0.0322296 -0.0368027 -0.041473 -0.0460665 -0.050404 -0.0543173 -0.0576397 -0.0594697 -0.0612808 -0.0622661 -0.0624011 -0.0616838 -0.0601326 -0.0577845 -0.0546991 -0.0509675 -0.046728 -0.0421807 -0.0377153 -0.0339884 -0.0281658 -0.0232068 -0.0193066 -0.016529 -0.0148024 -0.0139513 -0.0137487 -0.0139685 -0.0144209 -0.0149666 -0.0155155 -0.0160172 -0.0164495 -0.00585831 -0.0061786 -0.00648686 -0.00680897 -0.00718313 -0.0076564 -0.00828141 -0.0091139 -0.0102113 -0.0116321 -0.0134351 -0.0156822 -0.0186037 -0.0214216 -0.0247663 -0.028628 -0.0329564 -0.0376575 -0.0425944 -0.0475976 -0.052479 -0.0570515 -0.0611458 -0.064606 -0.0667821 -0.0686837 -0.0697608 -0.0699998 -0.0694068 -0.0680032 -0.0658219 -0.0629099 -0.059336 -0.0552064 -0.0506835 -0.0460878 -0.0410747 -0.0347962 -0.0291075 -0.0243373 -0.0206912 -0.0182142 -0.0167983 -0.0162306 -0.0162593 -0.0166496 -0.017216 -0.0178315 -0.0184203 -0.018946 -0.00874811 -0.00902481 -0.00930486 -0.00961615 -0.00999895 -0.0105025 -0.0111817 -0.0120946 -0.0133009 -0.0148611 -0.0168358 -0.0192888 -0.0224608 -0.0255268 -0.0291491 -0.033309 -0.0379444 -0.0429455 -0.0481598 -0.0534035 -0.0584791 -0.0631963 -0.0673894 -0.0709173 -0.0733353 -0.0752867 -0.07642 -0.0767344 -0.0762472 -0.0749864 -0.0729865 -0.0702885 -0.0669448 -0.0630316 -0.0586664 -0.0540772 -0.0482071 -0.0417543 -0.0355669 -0.0300613 -0.0255744 -0.0222899 -0.0202076 -0.0191678 -0.018918 -0.0191878 -0.0197432 -0.0204131 -0.0210896 -0.0217166 -0.0118225 -0.0120472 -0.0122915 -0.0125849 -0.0129691 -0.013495 -0.0142189 -0.0152003 -0.0165001 -0.0181796 -0.0202995 -0.0229233 -0.0262979 -0.0295686 -0.0334138 -0.0378068 -0.0426738 -0.0478923 -0.0532967 -0.0586932 -0.0638791 -0.0686646 -0.0728908 -0.0764322 -0.0790016 -0.0809704 -0.0821298 -0.0824911 -0.0820825 -0.0809404 -0.0791046 -0.0766157 -0.0735168 -0.069861 -0.0657242 -0.0612429 -0.0550447 -0.048672 -0.0422524 -0.0362243 -0.0310153 -0.0269428 -0.0241401 -0.0225406 -0.021926 -0.0220095 -0.0225138 -0.0232192 -0.0239791 -0.0247122 -0.0149789 -0.0151458 -0.015348 -0.0156162 -0.0159933 -0.0165312 -0.0172868 -0.0183203 -0.0196926 -0.0214648 -0.0236966 -0.0264488 -0.0299586 -0.0333826 -0.0373897 -0.0419458 -0.046968 -0.0523239 -0.0578392 -0.0633137 -0.0685429 -0.0733402 -0.077554 -0.081073 -0.083731 -0.0856944 -0.0868579 -0.0872419 -0.0868837 -0.0858279 -0.0841208 -0.0818068 -0.0789268 -0.0755201 -0.0716315 -0.0673262 -0.0612742 -0.0551763 -0.0487806 -0.0424843 -0.0367476 -0.0319888 -0.0284772 -0.026269 -0.0252184 -0.0250507 -0.0254582 -0.0261743 -0.0270085 -0.0278489 -0.018111 -0.018217 -0.0183722 -0.0186085 -0.0189693 -0.0195067 -0.020278 -0.0213432 -0.0227626 -0.0245963 -0.0269016 -0.0297353 -0.0332987 -0.0368202 -0.0409253 -0.0455752 -0.0506806 -0.0561029 -0.0616629 -0.0671576 -0.0723833 -0.0771568 -0.081333 -0.0848115 -0.0875234 -0.089468 -0.0906224 -0.0910118 -0.0906797 -0.0896773 -0.0880581 -0.0858726 -0.0831646 -0.0799692 -0.0763144 -0.0722222 -0.0666436 -0.0609419 -0.0547772 -0.0484626 -0.0424332 -0.0371577 -0.0330181 -0.0302044 -0.0286749 -0.0282012 -0.0284668 -0.0291651 -0.0300602 -0.0310053 -0.0211184 -0.0211633 -0.0212688 -0.0214672 -0.0218021 -0.0223254 -0.0230942 -0.0241678 -0.0256056 -0.0274657 -0.0298032 -0.0326692 -0.0361961 -0.0397574 -0.0438981 -0.0485765 -0.053701 -0.0591304 -0.0646841 -0.0701592 -0.0753533 -0.0800865 -0.0842177 -0.0876529 -0.0904055 -0.0923267 -0.0934664 -0.0938508 -0.0935265 -0.0925496 -0.0909802 -0.0888758 -0.0862871 -0.0832528 -0.0797972 -0.0759257 -0.0709837 -0.065727 -0.0599289 -0.0538014 -0.0477117 -0.0421251 -0.0374948 -0.0341325 -0.0321188 -0.0313034 -0.0313878 -0.0320392 -0.0329791 -0.0340234 -0.0239154 -0.023902 -0.0239572 -0.0241131 -0.0244128 -0.0249078 -0.0256544 -0.0267111 -0.0281359 -0.0299853 -0.0323117 -0.0351607 -0.0385569 -0.0421012 -0.046218 -0.0508661 -0.0559549 -0.0613444 -0.0668554 -0.0722867 -0.0774376 -0.0821293 -0.0862218 -0.0896226 -0.0924157 -0.0943164 -0.0954421 -0.0958172 -0.0954886 -0.0945159 -0.0929643 -0.0908993 -0.0883803 -0.0854546 -0.0821531 -0.0784846 -0.0742095 -0.0693856 -0.0640137 -0.0582093 -0.0522506 -0.0465561 -0.0416021 -0.0377911 -0.0353258 -0.0341566 -0.0340311 -0.0346093 -0.0355773 -0.036713 -0.0264375 -0.026371 -0.0263773 -0.0264878 -0.0267443 -0.0271969 -0.027901 -0.028914 -0.0302928 -0.0320925 -0.0343635 -0.0371465 -0.0403184 -0.0437905 -0.0478283 -0.0523942 -0.0574018 -0.0627156 -0.0681598 -0.0735358 -0.078644 -0.0833044 -0.0873744 -0.0907583 -0.0935978 -0.0954867 -0.0966043 -0.0969706 -0.0966312 -0.0956473 -0.094089 -0.0920291 -0.0895364 -0.0866696 -0.0834719 -0.0799685 -0.0763077 -0.0718593 -0.0669059 -0.0614847 -0.0557832 -0.0501474 -0.0450337 -0.0408957 -0.0380402 -0.0365282 -0.036177 -0.0366609 -0.0376413 -0.0388604 -0.0286441 -0.028532 -0.028493 -0.0285569 -0.0287633 -0.0291604 -0.0298017 -0.0307435 -0.032042 -0.0337516 -0.0359224 -0.0385909 -0.0414477 -0.0447949 -0.0487033 -0.0531418 -0.0580312 -0.0632424 -0.0686054 -0.0739242 -0.0789987 -0.0836458 -0.0877163 -0.0911068 -0.0939994 -0.0958902 -0.0970093 -0.0973713 -0.0970191 -0.0960142 -0.0944308 -0.0923484 -0.0898452 -0.0869917 -0.0838457 -0.0804546 -0.0773172 -0.0731579 -0.0685637 -0.0635166 -0.0581255 -0.0526556 -0.0475143 -0.0431671 -0.0399965 -0.0381689 -0.0375878 -0.0379619 -0.0389412 -0.0402369 -0.0305189 -0.0303702 -0.0302915 -0.0303096 -0.030461 -0.0307905 -0.0313492 -0.0321919 -0.0333748 -0.0349528 -0.0369773 -0.0394837 -0.0419389 -0.045111 -0.0488444 -0.0531167 -0.0578579 -0.0629478 -0.0682224 -0.0734883 -0.078544 -0.0832002 -0.0872986 -0.0907235 -0.0936732 -0.0955835 -0.0967172 -0.097083 -0.0967197 -0.0956888 -0.0940671 -0.0919402 -0.089395 -0.0865127 -0.0833653 -0.0800237 -0.0773123 -0.0733384 -0.0690087 -0.0642712 -0.0591747 -0.0539096 -0.0488205 -0.0443543 -0.0409377 -0.0388274 -0.0380186 -0.0382718 -0.0392394 -0.0406073 -0.0320673 -0.0318925 -0.0317811 -0.0317561 -0.0318492 -0.0321005 -0.0325575 -0.0332732 -0.0343041 -0.0357077 -0.0375391 -0.0398357 -0.0418087 -0.0447585 -0.0482759 -0.0523492 -0.0569193 -0.0618755 -0.0670602 -0.0722823 -0.0773371 -0.0820277 -0.0861835 -0.0896733 -0.092679 -0.0946301 -0.0957949 -0.0961759 -0.0958074 -0.0947495 -0.093081 -0.0908923 -0.0882774 -0.085327 -0.0821247 -0.0787624 -0.076389 -0.0724881 -0.0683054 -0.0637721 -0.0588962 -0.0538075 -0.0487873 -0.044247 -0.0406296 -0.0382613 -0.0372264 -0.0373486 -0.0382956 -0.0397342 -0.0333125 -0.0331229 -0.0329874 -0.0329236 -0.0329569 -0.0331207 -0.0334574 -0.0340178 -0.0348595 -0.0360445 -0.0376349 -0.0396744 -0.0410915 -0.0437748 -0.0470405 -0.0508885 -0.0552712 -0.0600875 -0.065186 -0.0703768 -0.075451 -0.0802022 -0.0844459 -0.088033 -0.091086 -0.0931021 -0.0943178 -0.0947292 -0.0943654 -0.093284 -0.0915646 -0.0893009 -0.0865923 -0.0835363 -0.080225 -0.0767669 -0.0746575 -0.0707123 -0.0665443 -0.0620803 -0.0573046 -0.0523032 -0.047304 -0.0426774 -0.0388652 -0.0362424 -0.0349733 -0.0349506 -0.0358678 -0.0373785 -0.0342908 -0.0340986 -0.0339486 -0.0338518 -0.0338247 -0.0338923 -0.0340901 -0.0344661 -0.0350801 -0.036001 -0.0373022 -0.0390379 -0.039834 -0.042211 -0.0451954 -0.0487992 -0.0529857 -0.0576626 -0.0626836 -0.0678588 -0.072974 -0.0778123 -0.0821742 -0.0858916 -0.0889735 -0.0910814 -0.0923713 -0.0928322 -0.0924873 -0.0913908 -0.0896212 -0.0872737 -0.0844508 -0.0812536 -0.077779 -0.0741454 -0.072237 -0.0681258 -0.0638294 -0.0592774 -0.0544442 -0.0493891 -0.0443008 -0.0395143 -0.0354629 -0.0325556 -0.0310251 -0.0308338 -0.0317086 -0.0332949 -0.0350465 -0.0348649 -0.0347114 -0.0345881 -0.0345007 -0.0344629 -0.0345018 -0.0346625 -0.0350083 -0.0356188 -0.0365826 -0.0379703 -0.0380909 -0.0401279 -0.0428092 -0.0461584 -0.0501485 -0.0546939 -0.0596514 -0.0648301 -0.0700093 -0.0749609 -0.0794701 -0.0833504 -0.0864317 -0.08866 -0.0900501 -0.0905832 -0.0902759 -0.0891773 -0.0873634 -0.0849281 -0.0819739 -0.0786024 -0.0749105 -0.0710184 -0.0692509 -0.0648473 -0.0602688 -0.0554522 -0.0503722 -0.0450767 -0.0397319 -0.0346494 -0.0302572 -0.0269918 -0.0251449 -0.0247454 -0.0255585 -0.0272241 -0.0356286 -0.0354724 -0.0353277 -0.0351851 -0.0350363 -0.0348815 -0.0347384 -0.0346494 -0.0346844 -0.0349373 -0.0355177 -0.0365173 -0.0359218 -0.0375932 -0.0399593 -0.0430538 -0.0468567 -0.0512864 -0.0562004 -0.0614049 -0.0666724 -0.0717631 -0.076447 -0.0805209 -0.0835608 -0.0859381 -0.0874563 -0.0880874 -0.08784 -0.0867571 -0.0849092 -0.0823866 -0.0792884 -0.0757124 -0.0717506 -0.067515 -0.0658223 -0.0609939 -0.0559681 -0.0506911 -0.0451455 -0.0393814 -0.033559 -0.0279825 -0.0230863 -0.0193379 -0.0170834 -0.0164141 -0.017135 -0.0188824 -0.0360881 -0.0359754 -0.0358534 -0.0356982 -0.0354842 -0.0