# vtk DataFile Version 2.0
Presion
ASCII

DATASET STRUCTURED_GRID
DIMENSIONS   50   50   20

POINTS   50000   double
0.00568455   0.00568455   0.025
0.0174023   0.00568455   0.025
0.0298294   0.00568455   0.025
0.0429888   0.00568455   0.025
0.0569012   0.00568455   0.025
0.0715849   0.00568455   0.025
0.0870549   0.00568455   0.025
0.103323   0.00568455   0.025
0.120395   0.00568455   0.025
0.138275   0.00568455   0.025
0.156961   0.00568455   0.025
0.176443   0.00568455   0.025
0.196707   0.00568455   0.025
0.217734   0.00568455   0.025
0.239496   0.00568455   0.025
0.261959   0.00568455   0.025
0.285082   0.00568455   0.025
0.308818   0.00568455   0.025
0.333113   0.00568455   0.025
0.357906   0.00568455   0.025
0.383132   0.00568455   0.025
0.408719   0.00568455   0.025
0.434592   0.00568455   0.025
0.460672   0.00568455   0.025
0.486877   0.00568455   0.025
0.513123   0.00568455   0.025
0.539328   0.00568455   0.025
0.565408   0.00568455   0.025
0.591281   0.00568455   0.025
0.616868   0.00568455   0.025
0.642094   0.00568455   0.025
0.666887   0.00568455   0.025
0.691182   0.00568455   0.025
0.714918   0.00568455   0.025
0.738041   0.00568455   0.025
0.760504   0.00568455   0.025
0.782266   0.00568455   0.025
0.803293   0.00568455   0.025
0.823557   0.00568455   0.025
0.843039   0.00568455   0.025
0.861725   0.00568455   0.025
0.879605   0.00568455   0.025
0.896677   0.00568455   0.025
0.912945   0.00568455   0.025
0.928415   0.00568455   0.025
0.943099   0.00568455   0.025
0.957011   0.00568455   0.025
0.970171   0.00568455   0.025
0.982598   0.00568455   0.025
0.994315   0.00568455   0.025
0.00568455   0.0174023   0.025
0.0174023   0.0174023   0.025
0.0298294   0.0174023   0.025
0.0429888   0.0174023   0.025
0.0569012   0.0174023   0.025
0.0715849   0.0174023   0.025
0.0870549   0.0174023   0.025
0.103323   0.0174023   0.025
0.120395   0.0174023   0.025
0.138275   0.0174023   0.025
0.156961   0.0174023   0.025
0.176443   0.0174023   0.025
0.196707   0.0174023   0.025
0.217734   0.0174023   0.025
0.239496   0.0174023   0.025
0.261959   0.0174023   0.025
0.285082   0.0174023   0.025
0.308818   0.0174023   0.025
0.333113   0.0174023   0.025
0.357906   0.0174023   0.025
0.383132   0.0174023   0.025
0.408719   0.0174023   0.025
0.434592   0.0174023   0.025
0.460672   0.0174023   0.025
0.486877   0.0174023   0.025
0.513123   0.0174023   0.025
0.539328   0.0174023   0.025
0.565408   0.0174023   0.025
0.591281   0.0174023   0.025
0.616868   0.0174023   0.025
0.642094   0.0174023   0.025
0.666887   0.0174023   0.025
0.691182   0.0174023   0.025
0.714918   0.0174023   0.025
0.738041   0.0174023   0.025
0.760504   0.0174023   0.025
0.782266   0.0174023   0.025
0.803293   0.0174023   0.025
0.823557   0.0174023   0.025
0.843039   0.0174023   0.025
0.861725   0.0174023   0.025
0.879605   0.0174023   0.025
0.896677   0.0174023   0.025
0.912945   0.0174023   0.025
0.928415   0.0174023   0.025
0.943099   0.0174023   0.025
0.957011   0.0174023   0.025
0.970171   0.0174023   0.025
0.982598   0.0174023   0.025
0.994315   0.0174023   0.025
0.00568455   0.0298294   0.025
0.0174023   0.0298294   0.025
0.0298294   0.0298294   0.025
0.0429888   0.0298294   0.025
0.0569012   0.0298294   0.025
0.0715849   0.0298294   0.025
0.0870549   0.0298294   0.025
0.103323   0.0298294   0.025
0.120395   0.0298294   0.025
0.138275   0.0298294   0.025
0.156961   0.0298294   0.025
0.176443   0.0298294   0.025
0.196707   0.0298294   0.025
0.217734   0.0298294   0.025
0.239496   0.0298294   0.025
0.261959   0.0298294   0.025
0.285082   0.0298294   0.025
0.308818   0.0298294   0.025
0.333113   0.0298294   0.025
0.357906   0.0298294   0.025
0.383132   0.0298294   0.025
0.408719   0.0298294   0.025
0.434592   0.0298294   0.025
0.460672   0.0298294   0.025
0.486877   0.0298294   0.025
0.513123   0.0298294   0.025
0.539328   0.0298294   0.025
0.565408   0.0298294   0.025
0.591281   0.0298294   0.025
0.616868   0.0298294   0.025
0.642094   0.0298294   0.025
0.666887   0.0298294   0.025
0.691182   0.0298294   0.025
0.714918   0.0298294   0.025
0.738041   0.0298294   0.025
0.760504   0.0298294   0.025
0.782266   0.0298294   0.025
0.803293   0.0298294   0.025
0.823557   0.0298294   0.025
0.843039   0.0298294   0.025
0.861725   0.0298294   0.025
0.879605   0.0298294   0.025
0.896677   0.0298294   0.025
0.912945   0.0298294   0.025
0.928415   0.0298294   0.025
0.943099   0.0298294   0.025
0.957011   0.0298294   0.025
0.970171   0.0298294   0.025
0.982598   0.0298294   0.025
0.994315   0.0298294   0.025
0.00568455   0.0429888   0.025
0.0174023   0.0429888   0.025
0.0298294   0.0429888   0.025
0.0429888   0.0429888   0.025
0.0569012   0.0429888   0.025
0.0715849   0.0429888   0.025
0.0870549   0.0429888   0.025
0.103323   0.0429888   0.025
0.120395   0.0429888   0.025
0.138275   0.0429888   0.025
0.156961   0.0429888   0.025
0.176443   0.0429888   0.025
0.196707   0.0429888   0.025
0.217734   0.0429888   0.025
0.239496   0.0429888   0.025
0.261959   0.0429888   0.025
0.285082   0.0429888   0.025
0.308818   0.0429888   0.025
0.333113   0.0429888   0.025
0.357906   0.0429888   0.025
0.383132   0.0429888   0.025
0.408719   0.0429888   0.025
0.434592   0.0429888   0.025
0.460672   0.0429888   0.025
0.486877   0.0429888   0.025
0.513123   0.0429888   0.025
0.539328   0.0429888   0.025
0.565408   0.0429888   0.025
0.591281   0.0429888   0.025
0.616868   0.0429888   0.025
0.642094   0.0429888   0.025
0.666887   0.0429888   0.025
0.691182   0.0429888   0.025
0.714918   0.0429888   0.025
0.738041   0.0429888   0.025
0.760504   0.0429888   0.025
0.782266   0.0429888   0.025
0.803293   0.0429888   0.025
0.823557   0.0429888   0.025
0.843039   0.0429888   0.025
0.861725   0.0429888   0.025
0.879605   0.0429888   0.025
0.896677   0.0429888   0.025
0.912945   0.0429888   0.025
0.928415   0.0429888   0.025
0.943099   0.0429888   0.025
0.957011   0.0429888   0.025
0.970171   0.0429888   0.025
0.982598   0.0429888   0.025
0.994315   0.0429888   0.025
0.00568455   0.0569012   0.025
0.0174023   0.0569012   0.025
0.0298294   0.0569012   0.025
0.0429888   0.0569012   0.025
0.0569012   0.0569012   0.025
0.0715849   0.0569012   0.025
0.0870549   0.0569012   0.025
0.103323   0.0569012   0.025
0.120395   0.0569012   0.025
0.138275   0.0569012   0.025
0.156961   0.0569012   0.025
0.176443   0.0569012   0.025
0.196707   0.0569012   0.025
0.217734   0.0569012   0.025
0.239496   0.0569012   0.025
0.261959   0.0569012   0.025
0.285082   0.0569012   0.025
0.308818   0.0569012   0.025
0.333113   0.0569012   0.025
0.357906   0.0569012   0.025
0.383132   0.0569012   0.025
0.408719   0.0569012   0.025
0.434592   0.0569012   0.025
0.460672   0.0569012   0.025
0.486877   0.0569012   0.025
0.513123   0.0569012   0.025
0.539328   0.0569012   0.025
0.565408   0.0569012   0.025
0.591281   0.0569012   0.025
0.616868   0.0569012   0.025
0.642094   0.0569012   0.025
0.666887   0.0569012   0.025
0.691182   0.0569012   0.025
0.714918   0.0569012   0.025
0.738041   0.0569012   0.025
0.760504   0.0569012   0.025
0.782266   0.0569012   0.025
0.803293   0.0569012   0.025
0.823557   0.0569012   0.025
0.843039   0.0569012   0.025
0.861725   0.0569012   0.025
0.879605   0.0569012   0.025
0.896677   0.0569012   0.025
0.912945   0.0569012   0.025
0.928415   0.0569012   0.025
0.943099   0.0569012   0.025
0.957011   0.0569012   0.025
0.970171   0.0569012   0.025
0.982598   0.0569012   0.025
0.994315   0.0569012   0.025
0.00568455   0.0715849   0.025
0.0174023   0.0715849   0.025
0.0298294   0.0715849   0.025
0.0429888   0.0715849   0.025
0.0569012   0.0715849   0.025
0.0715849   0.0715849   0.025
0.0870549   0.0715849   0.025
0.103323   0.0715849   0.025
0.120395   0.0715849   0.025
0.138275   0.0715849   0.025
0.156961   0.0715849   0.025
0.176443   0.0715849   0.025
0.196707   0.0715849   0.025
0.217734   0.0715849   0.025
0.239496   0.0715849   0.025
0.261959   0.0715849   0.025
0.285082   0.0715849   0.025
0.308818   0.0715849   0.025
0.333113   0.0715849   0.025
0.357906   0.0715849   0.025
0.383132   0.0715849   0.025
0.408719   0.0715849   0.025
0.434592   0.0715849   0.025
0.460672   0.0715849   0.025
0.486877   0.0715849   0.025
0.513123   0.0715849   0.025
0.539328   0.0715849   0.025
0.565408   0.0715849   0.025
0.591281   0.0715849   0.025
0.616868   0.0715849   0.025
0.642094   0.0715849   0.025
0.666887   0.0715849   0.025
0.691182   0.0715849   0.025
0.714918   0.0715849   0.025
0.738041   0.0715849   0.025
0.760504   0.0715849   0.025
0.782266   0.0715849   0.025
0.803293   0.0715849   0.025
0.823557   0.0715849   0.025
0.843039   0.0715849   0.025
0.861725   0.0715849   0.025
0.879605   0.0715849   0.025
0.896677   0.0715849   0.025
0.912945   0.0715849   0.025
0.928415   0.0715849   0.025
0.943099   0.0715849   0.025
0.957011   0.0715849   0.025
0.970171   0.0715849   0.025
0.982598   0.0715849   0.025
0.994315   0.0715849   0.025
0.00568455   0.0870549   0.025
0.0174023   0.0870549   0.025
0.0298294   0.0870549   0.025
0.0429888   0.0870549   0.025
0.0569012   0.0870549   0.025
0.0715849   0.0870549   0.025
0.0870549   0.0870549   0.025
0.103323   0.0870549   0.025
0.120395   0.0870549   0.025
0.138275   0.0870549   0.025
0.156961   0.0870549   0.025
0.176443   0.0870549   0.025
0.196707   0.0870549   0.025
0.217734   0.0870549   0.025
0.239496   0.0870549   0.025
0.261959   0.0870549   0.025
0.285082   0.0870549   0.025
0.308818   0.0870549   0.025
0.333113   0.0870549   0.025
0.357906   0.0870549   0.025
0.383132   0.0870549   0.025
0.408719   0.0870549   0.025
0.434592   0.0870549   0.025
0.460672   0.0870549   0.025
0.486877   0.0870549   0.025
0.513123   0.0870549   0.025
0.539328   0.0870549   0.025
0.565408   0.0870549   0.025
0.591281   0.0870549   0.025
0.616868   0.0870549   0.025
0.642094   0.0870549   0.025
0.666887   0.0870549   0.025
0.691182   0.0870549   0.025
0.714918   0.0870549   0.025
0.738041   0.0870549   0.025
0.760504   0.0870549   0.025
0.782266   0.0870549   0.025
[...]
POINT_DATA   50000
SCALARS Presion double
LOOKUP_TABLE   Presion

0 0 0 0 0 0 0 0 0 0 0 0 0 0 0 0 0 0 0 0 0 0 0 0 0 0 0 0 0 0 0 0 0 0 0 0 0 0 0 0 0 0 0 0 0 0 0 0 0 0 0.00165121 0.00179758 0.00197425 0.002102 0.00216647 0.00216882 0.00211365 0.00200604 0.00185085 0.00165228 0.00141367 0.00113669 0.000679993 0.00040304 0.000156001 -5.91204e-05 -0.000237289 -0.000370201 -0.000448147 -0.000462394 -0.000407609 -0.000283866 -9.76196e-05 0.000138596 0.00038807 0.000636307 0.000849878 0.00100196 0.00107118 0.00104373 0.000914986 0.00069013 0.000383857 1.92124e-05 -0.000374286 -0.000762007 -0.00100996 -0.00137089 -0.00170689 -0.00200049 -0.00224123 -0.00242343 -0.00254417 -0.00260202 -0.00259622 -0.00252627 -0.00239223 -0.00219761 -0.00196281 -0.00178017 0.00216772 0.00215658 0.00220615 0.00225663 0.00227848 0.00225957 0.00219621 0.00208869 0.00193921 0.00175095 0.00152822 0.00127496 0.000757459 0.00050699 0.00027378 6.49136e-05 -0.000112303 -0.00024891 -0.000335254 -0.000362853 -0.000326506 -0.000226132 -6.77599e-05 0.000134986 0.000356724 0.000573797 0.000758453 0.000885307 0.000934167 0.000892075 0.000754846 0.000527659 0.000224575 -0.00013298 -0.000518854 -0.000903021 -0.0010794 -0.00143741 -0.00176259 -0.00204352 -0.00227296 -0.00244718 -0.00256489 -0.00262656 -0.00263428 -0.00259232 -0.00250911 -0.00240195 -0.00230691 -0.00229334 0.00251791 0.00246818 0.00245358 0.00244816 0.00243055 0.00238722 0.00231107 0.00219934 0.00205209 0.00187146 0.00166183 0.00142642 0.000839472 0.000611334 0.000390447 0.000185933 6.59114e-06 -0.000137962 -0.000237843 -0.00028438 -0.000271939 -0.000199661 -7.26791e-05 9.42082e-05 0.00029283 0.00048469 0.0006479 0.000757992 0.000794869 0.000745148 0.00060397 0.000375758 7.37049e-05 -0.000282063 -0.000667629 -0.00105444 -0.00115523 -0.00151542 -0.00183533 -0.00210826 -0.00233039 -0.00250033 -0.00261871 -0.00268793 -0.00271237 -0.0026991 -0.0026594 -0.00261098 -0.00257969 -0.00259643 0.0028094 0.00274994 0.00270363 0.00266178 0.00261279 0.00254655 0.00245607 0.00233746 0.00218951 0.00201343 0.00181319 0.0015901 0.000928423 0.000716484 0.00050373 0.000299448 0.000113035 -4.54308e-05 -0.000165642 -0.000238273 -0.000256612 -0.000218265 -0.000126695 2.83878e-06 0.000180273 0.000352995 0.00050249 0.000604884 0.000639209 0.000590443 0.00045188 0.000226292 -7.44457e-05 -0.000431359 -0.000821812 -0.00121665 -0.0012418 -0.00160821 -0.00192731 -0.00219642 -0.00241503 -0.00258414 -0.00270618 -0.00278505 -0.00282628 -0.0028375 -0.00282889 -0.00281332 -0.00280494 -0.00281486 0.00309131 0.00302355 0.00295749 0.00289078 0.00281774 0.00273182 0.00262738 0.00250053 0.00234948 0.00217468 0.00197941 0.00176248 0.00102368 0.000820212 0.000608797 0.000397981 0.000197055 1.63134e-05 -0.000133345 -0.000241458 -0.000299504 -0.00030266 -0.000251683 -0.000161152 -4.76917e-06 0.000154192 0.000297655 0.000402106 0.000444824 0.000407945 0.000281628 6.58514e-05 -0.000229599 -0.000587084 -0.000984659 -0.00139109 -0.00134401 -0.00171936 -0.00204073 -0.00230938 -0.00252783 -0.00269917 -0.00282721 -0.00291666 -0.00297321 -0.0030036 -0.0030155 -0.00301695 -0.00301492 -0.00301304 0.0033832 0.00330179 0.00321815 0.00313169 0.00303935 0.00293675 0.00281942 0.00268373 0.00252747 0.00235039 0.00215488 0.00193695 0.00112108 0.000916621 0.00069704 0.000469846 0.000243799 2.92448e-05 -0.000162136 -0.000318214 -0.000427854 -0.00048279 -0.000479849 -0.000431577 -0.000296103 -0.000147391 -2.79956e-06 0.000114221 0.00017835 0.000167629 6.75882e-05 -0.000126095 -0.000406958 -0.00075937 -0.00116198 -0.00158053 -0.00146824 -0.0018529 -0.00217767 -0.00244802 -0.00266908 -0.00284539 -0.00298149 -0.00308219 -0.00315264 -0.0031982 -0.00322417 -0.00323533 -0.00323521 -0.00322527 0.00368914 0.00358796 0.0034851 0.00338016 0.00327086 0.00315361 0.00302433 0.00287924 0.00271556 0.00253212 0.00233016 0.00210273 0.0012119 0.000994855 0.000754631 0.000497664 0.000232011 -3.19512e-05 -0.000281486 -0.000502208 -0.0006795 -0.000800568 -0.000856962 -0.000857759 -0.00074052 -0.000601931 -0.000450314 -0.000309537 -0.000208365 -0.000174198 -0.000227921 -0.000380149 -0.0006296 -0.000963992 -0.00136314 -0.00178937 -0.00162336 -0.00201372 -0.00234019 -0.00261282 -0.00283857 -0.00302246 -0.00316887 -0.00328204 -0.00336616 -0.00342519 -0.00346273 -0.00348173 -0.00348435 -0.00347175 0.00400336 0.00387699 0.00375218 0.00362825 0.00350273 0.00337178 0.00323083 0.00307534 0.00290145 0.00270668 0.00249076 0.0022436 0.00128133 0.00103758 0.000760886 0.000456671 0.000132294 -0.000201698 -0.000531131 -0.000838704 -0.00110541 -0.0013128 -0.00144578 -0.00150843 -0.00140152 -0.00127815 -0.00111599 -0.00094002 -0.000783246 -0.000679949 -0.000659535 -0.00074148 -0.00093232 -0.00122535 -0.00160296 -0.00202457 -0.00182254 -0.00220857 -0.0025309 -0.00280423 -0.00303597 -0.00323011 -0.0033897 -0.00351766 -0.00361689 -0.00369011 -0.00373974 -0.00376783 -0.00377611 -0.00376599 0.00431202 0.0041561 0.00400669 0.00386264 0.00372074 0.00357613 0.00342297 0.00325521 0.0030673 0.00285493 0.0026158 0.00233664 0.0013069 0.00101937 0.000686577 0.000312985 -9.4645e-05 -0.000525327 -0.000962967 -0.00138663 -0.00177198 -0.00209375 -0.00232893 -0.00247491 -0.00236342 -0.00226756 -0.0020953 -0.00187342 -0.00163981 -0.00143701 -0.00130531 -0.00127616 -0.00136743 -0.00158131 -0.00190534 -0.00229786 -0.00208624 -0.00244795 -0.00275433 -0.00302377 -0.00326164 -0.00346872 -0.00364515 -0.00379156 -0.00390915 -0.00399935 -0.00406373 -0.00410391 -0.00412155 -0.00411842 0.00459337 0.00440465 0.00422856 0.0040633 0.00390446 0.00374553 0.00357868 0.00339565 0.00318854 0.00295058 0.0026769 0.002351 0.00125692 0.000905166 0.000492437 2.21378e-05 -0.000499414 -0.00106045 -0.00164238 -0.00221987 -0.00276226 -0.00323636 -0.00361001 -0.00387191 -0.00373479 -0.00368769 -0.00351166 -0.00323561 -0.00290246 -0.00256413 -0.002274 -0.002079 -0.00201266 -0.00209059 -0.00230947 -0.00263048 -0.00244701 -0.00274974 -0.00301978 -0.00327616 -0.00351826 -0.00374051 -0.00393799 -0.00410772 -0.00424845 -0.00436013 -0.00444348 -0.00449979 -0.00453077 -0.00453857 0.00481747 0.00459393 0.0043899 0.00420269 0.0040262 0.00385169 0.0036687 0.00346607 0.00323291 0.00295937 0.00263736 0.0022472 0.0010894 0.000649346 0.000128269 -0.000471673 -0.00114449 -0.00187723 -0.00264819 -0.00342678 -0.00417499 -0.00485051 -0.00541092 -0.00583366 -0.00564915 -0.00568183 -0.00551622 -0.00518265 -0.00472848 -0.00421523 -0.00371101 -0.00328145 -0.00298044 -0.00284267 -0.00287956 -0.00306206 -0.00295698 -0.00314518 -0.00334617 -0.0035731 -0.00381354 -0.0040514 -0.00427384 -0.00447236 -0.00464217 -0.00478109 -0.00488872 -0.00496595 -0.0050145 -0.00503681 0.00494598 0.00468703 0.00445479 0.00424535 0.00405047 0.00385858 0.00365597 0.00342798 0.00316009 0.00283875 0.00245204 0.00197708 0.000751805 0.000195686 -0.000466771 -0.00123496 -0.00210313 -0.0030567 -0.00407015 -0.00510663 -0.00611962 -0.0070564 -0.00786314 -0.00850279 -0.00825953 -0.0084118 -0.00827983 -0.00789322 -0.007302 -0.00657613 -0.00579856 -0.00505562 -0.00442579 -0.00396887 -0.00371809 -0.00366511 -0.00369731 -0.00368773 -0.00376931 -0.00393868 -0.0041641 -0.00441374 -0.00466303 -0.00489534 -0.00510053 -0.00527322 -0.00541129 -0.00551486 -0.00558553 -0.00562593 0.0049328 0.00463944 0.00437982 0.00414843 0.00393439 0.00372276 0.00349602 0.00323542 0.00292228 0.00253873 0.00206836 0.00148509 0.000182355 -0.000520966 -0.00136204 -0.00234218 -0.00345573 -0.00468598 -0.00600265 -0.00736149 -0.00870596 -0.00997142 -0.0110913 -0.0120102 -0.0117227 -0.0120394 -0.0119728 -0.0115481 -0.0108147 -0.0098482 -0.00874396 -0.0076086 -0.00654738 -0.00565045 -0.00498051 -0.00456512 -0.00478752 -0.00446326 -0.00435059 -0.00441589 -0.00460004 -0.00484938 -0.00512277 -0.00539164 -0.00563783 -0.00585098 -0.00602617 -0.00616214 -0.00626004 -0.00632255 0.00472566 0.00440072 0.00411574 0.00386324 0.00362926 0.003395 0.0031386 0.0028368 0.00246619 0.00200406 0.00142892 0.000711262 -0.000686644 -0.00157077 -0.00263073 -0.00387004 -0.00528286 -0.00684957 -0.00853398 -0.0102828 -0.0120276 -0.01369 -0.0151892 -0.0164476 -0.0161705 -0.016695 -0.0167307 -0.0162941 -0.01543 -0.0142142 -0.0127497 -0.0111593 -0.00957353 -0.00811546 -0.00688394 -0.00596086 -0.00638787 -0.00559726 -0.00518407 -0.00507243 -0.00516926 -0.00539279 -0.00567918 -0.00598278 -0.00627347 -0.00653316 -0.00675236 -0.00692742 -0.00705848 -0.00714807 0.00426925 0.00391748 0.00361043 0.00333827 0.00308357 0.0028233 0.00253091 0.0021782 0.00173666 0.00117827 0.000475883 -0.000403781 -0.00192288 -0.00302221 -0.00434219 -0.00588854 -0.00765463 -0.00961675 -0.0117311 -0.0139332 -0.0161407 -0.0182594 -0.0201922 -0.0218367 -0.0216695 -0.022435 -0.0226095 -0.022197 -0.021233 -0.0197876 -0.0179638 -0.0158929 -0.0137247 -0.0116129 -0.0096963 -0.00812938 -0.00868532 -0.00725165 -0.00639775 -0.00600364 -0.00594053 -0.00609338 -0.00636896 -0.0066979 -0.00703262 -0.00734328 -0.00761315 -0.00783456 -0.00800577 -0.00812871 0.00350976 0.00313793 0.00281335 0.00252359 0.00224751 0.00195758 0.00162236 0.00120848 0.000682074 9.4302e-06 -0.000842637 -0.00191176 -0.00358548 -0.00493282 -0.00655158 -0.00844924 -0.0106173 -0.0130261 -0.0156221 -0.0183271 -0.0210425 -0.023656 -0.0260533 -0.0281064 -0.0281799 -0.029202 -0.029544 -0.0291958 -0.0281805 -0.0265568 -0.0244195 -0.0218981 -0.0191515 -0.0163561 -0.0136894 -0.0113913 -0.0118565 -0.00960477 -0.00814509 -0.00733062 -0.00700437 -0.00701715 -0.00724063 -0.00757435 -0.00794632 -0.00830938 -0.00863567 -0.00891104 -0.00913046 -0.0092946 0.00240079 0.00201752 0.00168118 0.00137657 0.00107871 0.000755567 0.000370758 -0.000114283 -0.000738921 -0.00154267 -0.00256492 -0.0038483 -0.00571468 -0.00733805 -0.00928788 -0.0115723 -0.0141791 -0.0170706 -0.0201805 -0.0234146 -0.0266555 -0.0297721 -0.032632 -0.0350854 -0.03553 -0.0368025 -0.0373266 -0.0370797 -0.0360716 -0.0343467 -0.0319852 -0.029105 -0.0258608 -0.0224401 -0.019051 -0.0160185 -0.0160158 -0.0128156 -0.0105858 -0.00919233 -0.00847109 -0.0082469 -0.00835515 -0.00865798 -0.00905119 -0.00946324 -0.00984977 -0.0101865 -0.0104631 -0.0106778 0.000909955 0.000525431 0.000184199 -0.00013179 -0.000451248 -0.000810569 -0.0012509 -0.00181584 -0.0025501 -0.00349888 -0.00470764 -0.00622445 -0.00832112 -0.0102404 -0.0125427 -0.015235 -0.0182993 -0.0216869 -0.0253163 -0.0290748 -0.0328252 -0.0364177 -0.0397036 -0.0425177 -0.0434241 -0.044921 -0.0456243 -0.0455041 -0.0445596 -0.0428219 -0.0403538 -0.0372543 -0.0336629 -0.0297632 -0.0257802 -0.0221036 -0.0211711 -0.016983 -0.0138585 -0.0117301 -0.0104638 -0.0098799 -0.00978535 -0.0100027 -0.0103886 -0.010839 -0.0112861 -0.0116907 -0.0120338 -0.0123097 -0.000974837 -0.00134934 -0.00168772 -0.00201079 -0.00235076 -0.00274802 -0.00324809 -0.00389921 -0.00475103 -0.005854 -0.0072591 -0.00901986 -0.0113776 -0.0136015 -0.0162629 -0.0193656 -0.0228832 -0.0267536 -0.0308778 -0.0351232 -0.0393334 -0.0433418 -0.0469869 -0.0500977 -0.0514896 -0.0531707 -0.0540342 -0.0540491 -0.0532104 -0.05154 -0.0490852 -0.0459239 -0.0421729 -0.0379982 -0.0336225 -0.0294609 -0.0272106 -0.022113 -0.0180471 -0.0150629 -0.0131033 -0.0120201 -0.0116122 -0.0116685 -0.0120028 -0.0124709 -0.0129735 -0.0134499 -0.0138684 -0.0142166 -0.00324046 -0.00359325 -0.00392045 -0.00424546 -0.00460358 -0.00503871 -0.00560014 -0.00634015 -0.00731263 -0.00857253 -0.0101754 -0.0121796 -0.0148153 -0.0173391 -0.0203493 -0.0238442 -0.0277868 -0.0320998 -0.0366654 -0.0413318 -0.045925 -0.0502654 -0.0541845 -0.0575144 -0.0593467 -0.0611655 -0.062158 -0.0622992 -0.0615868 -0.0600393 -0.057694 -0.0546103 -0.0508801 -0.0466418 -0.0420958 -0.0376326 -0.0339192 -0.0281013 -0.0231485 -0.0192551 -0.0164839 -0.0147627 -0.0139154 -0.0137153 -0.0139364 -0.0143892 -0.0149347 -0.0154832 -0.0159844 -0.0164161 -0.00584636 -0.00616607 -0.00647356 -0.00679454 -0.00716692 -0.00763747 -0.00825856 -0.00908567 -0.0101761 -0.0115881 -0.0133805 -0.0156155 -0.0185268 -0.0213315 -0.024663 -0.028512 -0.0328296 -0.0375224 -0.0424547 -0.0474569 -0.0523411 -0.0569195 -0.0610222 -0.064492 -0.0666735 -0.0685839 -0.0696688 -0.0699142 -0.0693261 -0.0679257 -0.0657463 -0.0628349 -0.059261 -0.0551309 -0.0506074 -0.0460122 -0.0410085 -0.0347316 -0.0290467 -0.0242817 -0.0206413 -0.0181696 -0.0167579 -0.0161932 -0.0162236 -0.0166147 -0.0171813 -0.0177964 -0.0183848 -0.0189099 -0.00872567 -0.00900208 -0.00928158 -0.00959187 -0.00997294 -0.0104738 -0.011149 -0.0120565 -0.0132557 -0.0148073 -0.0167716 -0.0192127 -0.0223744 -0.0254279 -0.0290378 -0.0331867 -0.0378131 -0.0428085 -0.0480209 -0.0532667 -0.058348 -0.0630739 -0.0672777 -0.070817 -0.0732429 -0.075204 -0.0763455 -0.0766665 -0.076184 -0.0749262 -0.0729276 -0.0702295 -0.0668848 -0.06297 -0.0586031 -0.0540129 -0.0481469 -0.0416931 -0.0355069 -0.0300042 -0.0255215 -0.0222416 -0.0201633 -0.0191267 -0.0188791 -0.01915 -0.0197059 -0.0203757 -0.0210518 -0.0216782 -0.0117901 -0.0120148 -0.0122587 -0.0125512 -0.0129339 -0.0134571 -0.0141772 -0.0151532 -0.016446 -0.018117 -0.020227 -0.0228395 -0.026204 -0.0294631 -0.0332972 -0.0376808 -0.0425411 -0.0477563 -0.0531616 -0.0585629 -0.0637571 -0.0685536 -0.0727922 -0.0763464 -0.0789258 -0.0809049 -0.0820729 -0.0824407 -0.0820367 -0.0808973 -0.0790625 -0.076573 -0.0734726 -0.0698146 -0.0656753 -0.0611919 -0.054993 -0.0486173 -0.0421963 -0.0361687 -0.0309618 -0.0268925 -0.0240931 -0.0224967 -0.0218845 -0.0219694 -0.0224742 -0.0231798 -0.0239394 -0.0246721 -0.0149375 -0.0151047 -0.0153067 -0.0155742 -0.0159499 -0.0164853 -0.0172372 -0.0182654 -0.0196311 -0.0213952 -0.0236175 -0.0263592 -0.0298595 -0.0332729 -0.0372703 -0.0418187 -0.0468363 -0.0521912 -0.0577097 -0.0631913 -0.0684311 -0.0732411 -0.0774687 -0.0810015 -0.0836708 -0.085645 -0.0868173 -0.0872079 -0.086854 -0.0858006 -0.0840942 -0.0817794 -0.0788975 -0.0754882 -0.0715966 -0.0672885 -0.0612323 -0.0551302 -0.0487312 -0.042433 -0.0366962 -0.0319387 -0.0284293 -0.0262237 -0.0251751 -0.0250089 -0.0254173 -0.0261337 -0.0269678 -0.0278078 -0.018062 -0.0181684 -0.0183238 -0.0185596 -0.0189191 -0.0194542 -0.020222 -0.0212823 -0.0226954 -0.0245214 -0.0268179 -0.0296419 -0.0331966 -0.0367085 -0.0408054 -0.0454491 -0.0505517 -0.055975 -0.0615401 -0.0670439 -0.0722816 -0.0770692 -0.0812603 -0.0847533 -0.0874774 -0.0894331 -0.0905963 -0.0909922 -0.0906643 -0.0896641 -0.0880452 -0.0858586 -0.0831485 -0.0799502 -0.0762922 -0.0721965 -0.0666119 -0.0609053 -0.054736 -0.0484179 -0.0423864 -0.0371102 -0.0329713 -0.030159 -0.0286312 -0.0281589 -0.0284255 -0.0291242 -0.0300193 -0.0309643 -0.0210634 -0.021109 -0.0212148 -0.021413 -0.0217468 -0.022268 -0.0230336 -0.0241026 -0.0255345 -0.0273875 -0.0297168 -0.032574 -0.036093 -0.0396458 -0.0437794 -0.0484532 -0.0535762 -0.0590082 -0.0645685 -0.0700539 -0.0752612 -0.0800093 -0.0841561 -0.0876062 -0.0903715 -0.092304 -0.0934526 -0.0938435 -0.0935232 -0.0925482 -0.0909788 -0.0888731 -0.086282 -0.0832447 -0.0797856 -0.0759103 -0.0709616 -0.0656998 -0.0598967 -0.0537645 -0.0476711 -0.0420822 -0.037451 -0.0340889 -0.0320762 -0.0312618 -0.031347 -0.031999 -0.0329391 -0.0339833 -0.0238563 -0.0238437 -0.0238993 -0.0240552 -0.0243541 -0.0248473 -0.025591 -0.0266435 -0.0280629 -0.0299057 -0.0322245 -0.0350655 -0.0384547 -0.0419914 -0.0461021 -0.0507466 -0.0558351 -0.0612282 -0.0667467 -0.0721891 -0.0773538 -0.082061 -0.0861693 -0.0895853 -0.0923914 -0.0943035 -0.0954382 -0.0958197 -0.0954951 -0.094524 -0.0929723 -0.0909057 -0.0883841 -0.0854551 -0.0821499 -0.0784775 -0.0741958 -0.069367 -0.06399 -0.0581805 -0.0522173 -0.0465192 -0.0415629 -0.0377509 -0.0352856 -0.0341169 -0.0339921 -0.0345709 -0.0355392 -0.036675 -0.026376 -0.0263104 -0.0263173 -0.0264279 -0.0266838 -0.0271349 -0.0278365 -0.0288457 -0.0302196 -0.0320132 -0.0342773 -0.0370529 -0.0402185 -0.0436839 -0.0477163 -0.0522794 -0.0572873 -0.0626051 -0.0680572 -0.0734447 -0.0785669 -0.083243 -0.087329 -0.0907282 -0.0935808 -0.0954812 -0.0966078 -0.0969805 -0.096645 -0.0956626 -0.094104 -0.0920423 -0.0895467 -0.0866766 -0.0834751 -0.0799677 -0.0763007 -0.0718479 -0.0668897 -0.0614634 -0.0557572 -0.0501171 -0.0450001 -0.0408601 -0.0380038 -0.0364917 -0.0361409 -0.0366253 -0.037606 -0.0388253 -0.0285817 -0.0284706 -0.0284324 -0.0284965 -0.0287026 -0.0290985 -0.0297376 -0.0306761 -0.0319701 -0.0336742 -0.0358386 -0.0385004 -0.0413515 -0.0446925 -0.0485961 -0.0530321 -0.057922 -0.0631374 -0.0685082 -0.0738383 -0.0789267 -0.0835893 -0.0876757 -0.0910815 -0.0939871 -0.0958894 -0.0970175 -0.0973861 -0.0970376 -0.0960343 -0.0944505 -0.0923661 -0.08986 -0.087003 -0.0838532 -0.0804583 -0.0773154 -0.073152 -0.0685536 -0.0635019 -0.0581062 -0.0526319 -0.0474869 -0.0431369 -0.0399646 -0.0381365 -0.0375554 -0.0379299 -0.0389096 -0.0402056 -0.0304571 -0.0303095 -0.0302315 -0.03025 -0.0304013 -0.0307299 -0.0312868 -0.0321267 -0.0333056 -0.0348786 -0.0368972 -0.0393973 -0.0418474 -0.0450138 -0.0487426 -0.0530124 -0.057754 -0.0628477 -0.0681296 -0.0734063 -0.0784754 -0.0831467 -0.0872607 -0.0907008 -0.0936631 -0.095585 -0.0967278 -0.0971001 -0.0967408 -0.0957114 -0.0940893 -0.0919605 -0.0894122 -0.0865265 -0.0833754 -0.0800301 -0.0773138 -0.0733364 -0.0690031 -0.0642617 -0.0591612 -0.053892 -0.0487991 -0.0443298 -0.0409111 -0.0387997 -0.0379907 -0.0382441 -0.0392121 -0.0405803 -0.0320071 -0.0318334 -0.0317229 -0.0316984 -0.0317916 -0.0320423 -0.0324979 -0.0332112 -0.0342387 -0.0356378 -0.0374638 -0.0397545 -0.041723 -0.0446671 -0.04818 -0.0522505 -0.0568205 -0.0617798 -0.066971 -0.072203 -0.0772704 -0.0819754 -0.0861465 -0.0896512 -0.0926689 -0.0946315 -0.0958054 -0.096193 -0.0958286 -0.0947724 -0.0931036 -0.090913 -0.0882953 -0.0853414 -0.0821356 -0.0787701 -0.0763925 -0.0724886 -0.068303 -0.0637665 -0.0588874 -0.0537951 -0.0487715 -0.0442281 -0.0406084 -0.0382387 -0.0372034 -0.0373256 -0.038273 -0.0397119 -0.0332549 -0.0330664 -0.0329318 -0.0328687 -0.0329022 -0.0330657 -0.0334013 -0.0339598 -0.0347986 -0.0359796 -0.0375652 -0.0395991 -0.0410123 -0.0436901 -0.046951 -0.0507958 -0.0551775 -0.0599959 -0.0650998 -0.0702993 -0.075385 -0.0801497 -0.0844081 -0.0880097 -0.0910739 -0.0931013 -0.0943262 -0.0947444 -0.0943848 -0.0933054 -0.0915859 -0.0893205 -0.0866093 -0.08355 -0.0802355 -0.0767744 -0.0746618 -0.0707141 -0.0665438 -0.0620775 -0.0572993 -0.0522952 -0.0472932 -0.0426639 -0.0388494 -0.0362251 -0.0349554 -0.0349326 -0.03585 -0.0373612 -0.0342364 -0.0340452 -0.0338961 -0.0338001 -0.0337735 -0.033841 -0.0340381 -0.0344127 -0.0350243 -0.0359418 -0.0372386 -0.0389691 -0.039762 -0.0421335 -0.0451129 -0.0487127 -0.0528973 -0.0575751 -0.0626 -0.0677824 -0.0729079 -0.0777585 -0.0821343 -0.0858657 -0.0889577 -0.0910768 -0.092376 -0.0928437 -0.0925034 -0.091409 -0.0896397 -0.0872909 -0.0844655 -0.0812654 -0.077788 -0.0741518 -0.0722412 -0.068128 -0.06383 -0.0592765 -0.0544417 -0.0493847 -0.0442943 -0.0395056 -0.0354523 -0.0325435 -0.0310124 -0.0308209 -0.031696 -0.0332826 -0.0349957 -0.034815 -0.0346625 -0.03454 -0.0344532 -0.0344156 -0.0344543 -0.0346141 -0.0349581 -0.0355658 -0.0365257 -0.0379084 -0.0380268 -0.0400583 -0.0427341 -0.0460786 -0.0500656 -0.0546104 -0.0595703 -0.0647546 -0.0699425 -0.0749052 -0.0794273 -0.083321 -0.086411 -0.0886503 -0.0900498 -0.0905899 -0.0902874 -0.0891914 -0.0873781 -0.0849418 -0.0819856 -0.0786117 -0.0749173 -0.0710231 -0.0692544 -0.0648495 -0.06027 -0.0554526 -0.0503718 -0.0450754 -0.0397293 -0.0346452 -0.0302515 -0.0269849 -0.0251373 -0.0247376 -0.025551 -0.0272169 -0.0355817 -0.0354264 -0.0352826 -0.0351408 -0.0349928 -0.0348385 -0.0346956 -0.0346062 -0.03464 -0.0348908 -0.0354679 -0.0364628 -0.0358662 -0.0375321 -0.0398922 -0.0429812 -0.0467797 -0.0512073 -0.0561219 -0.0613303 -0.0666048 -0.0717053 -0.0764009 -0.0804876 -0.0835344 -0.0859227 -0.0874502 -0.0880886 -0.0878463 -0.0867663 -0.0849195 -0.0823965 -0.0792968 -0.0757189 -0.071755 -0.0675178 -0.065825 -0.0609958 -0.0559697 -0.0506926 -0.0451471 -0.0393828 -0.0335599 -0.0279826 -0.0230853 -0.0193359 -0.0170809 -0.0164114 -0.0171325 -0.0188804 -0.0360451 -0.0359333 -0.0358122 -0.0356579 -0.0354448 -0.0351573 -0.0348033 -0.0344249 -0.03