# vtk DataFile Version 2.0
Presion
ASCII

DATASET STRUCTURED_GRID
DIMENSIONS   50   50   20

POINTS   50000   double
0.00568455   0.00568455   0.025
0.0174023   0.00568455   0.025
0.0298294   0.00568455   0.025
0.0429888   0.00568455   0.025
0.0569012   0.00568455   0.025
0.0715849   0.00568455   0.025
0.0870549   0.00568455   0.025
0.103323   0.00568455   0.025
0.120395   0.00568455   0.025
0.138275   0.00568455   0.025
0.156961   0.00568455   0.025
0.176443   0.00568455   0.025
0.196707   0.00568455   0.025
0.217734   0.00568455   0.025
0.239496   0.00568455   0.025
0.261959   0.00568455   0.025
0.285082   0.00568455   0.025
0.308818   0.00568455   0.025
0.333113   0.00568455   0.025
0.357906   0.00568455   0.025
0.383132   0.00568455   0.025
0.408719   0.00568455   0.025
0.434592   0.00568455   0.025
0.460672   0.00568455   0.025
0.486877   0.00568455   0.025
0.513123   0.00568455   0.025
0.539328   0.00568455   0.025
0.565408   0.00568455   0.025
0.591281   0.00568455   0.025
0.616868   0.00568455   0.025
0.642094   0.00568455   0.025
0.666887   0.00568455   0.025
0.691182   0.00568455   0.025
0.714918   0.00568455   0.025
0.738041   0.00568455   0.025
0.760504   0.00568455   0.025
0.782266   0.00568455   0.025
0.803293   0.00568455   0.025
0.823557   0.00568455   0.025
0.843039   0.00568455   0.025
0.861725   0.00568455   0.025
0.879605   0.00568455   0.025
0.896677   0.00568455   0.025
0.912945   0.00568455   0.025
0.928415   0.00568455   0.025
0.943099   0.00568455   0.025
0.957011   0.00568455   0.025
0.970171   0.00568455   0.025
0.982598   0.00568455   0.025
0.994315   0.00568455   0.025
0.00568455   0.0174023   0.025
0.0174023   0.0174023   0.025
0.0298294   0.0174023   0.025
0.0429888   0.0174023   0.025
0.0569012   0.0174023   0.025
0.0715849   0.0174023   0.025
0.0870549   0.0174023   0.025
0.103323   0.0174023   0.025
0.120395   0.0174023   0.025
0.138275   0.0174023   0.025
0.156961   0.0174023   0.025
0.176443   0.0174023   0.025
0.196707   0.0174023   0.025
0.217734   0.0174023   0.025
0.239496   0.0174023   0.025
0.261959   0.0174023   0.025
0.285082   0.0174023   0.025
0.308818   0.0174023   0.025
0.333113   0.0174023   0.025
0.357906   0.0174023   0.025
0.383132   0.0174023   0.025
0.408719   0.0174023   0.025
0.434592   0.0174023   0.025
0.460672   0.0174023   0.025
0.486877   0.0174023   0.025
0.513123   0.0174023   0.025
0.539328   0.0174023   0.025
0.565408   0.0174023   0.025
0.591281   0.0174023   0.025
0.616868   0.0174023   0.025
0.642094   0.0174023   0.025
0.666887   0.0174023   0.025
0.691182   0.0174023   0.025
0.714918   0.0174023   0.025
0.738041   0.0174023   0.025
0.760504   0.0174023   0.025
0.782266   0.0174023   0.025
0.803293   0.0174023   0.025
0.823557   0.0174023   0.025
0.843039   0.0174023   0.025
0.861725   0.0174023   0.025
0.879605   0.0174023   0.025
0.896677   0.0174023   0.025
0.912945   0.0174023   0.025
0.928415   0.0174023   0.025
0.943099   0.0174023   0.025
0.957011   0.0174023   0.025
0.970171   0.0174023   0.025
0.982598   0.0174023   0.025
0.994315   0.0174023   0.025
0.00568455   0.0298294   0.025
0.0174023   0.0298294   0.025
0.0298294   0.0298294   0.025
0.0429888   0.0298294   0.025
0.0569012   0.0298294   0.025
0.0715849   0.0298294   0.025
0.0870549   0.0298294   0.025
0.103323   0.0298294   0.025
0.120395   0.0298294   0.025
0.138275   0.0298294   0.025
0.156961   0.0298294   0.025
0.176443   0.0298294   0.025
0.196707   0.0298294   0.025
0.217734   0.0298294   0.025
0.239496   0.0298294   0.025
0.261959   0.0298294   0.025
0.285082   0.0298294   0.025
0.308818   0.0298294   0.025
0.333113   0.0298294   0.025
0.357906   0.0298294   0.025
0.383132   0.0298294   0.025
0.408719   0.0298294   0.025
0.434592   0.0298294   0.025
0.460672   0.0298294   0.025
0.486877   0.0298294   0.025
0.513123   0.0298294   0.025
0.539328   0.0298294   0.025
0.565408   0.0298294   0.025
0.591281   0.0298294   0.025
0.616868   0.0298294   0.025
0.642094   0.0298294   0.025
0.666887   0.0298294   0.025
0.691182   0.0298294   0.025
0.714918   0.0298294   0.025
0.738041   0.0298294   0.025
0.760504   0.0298294   0.025
0.782266   0.0298294   0.025
0.803293   0.0298294   0.025
0.823557   0.0298294   0.025
0.843039   0.0298294   0.025
0.861725   0.0298294   0.025
0.879605   0.0298294   0.025
0.896677   0.0298294   0.025
0.912945   0.0298294   0.025
0.928415   0.0298294   0.025
0.943099   0.0298294   0.025
0.957011   0.0298294   0.025
0.970171   0.0298294   0.025
0.982598   0.0298294   0.025
0.994315   0.0298294   0.025
0.00568455   0.0429888   0.025
0.0174023   0.0429888   0.025
0.0298294   0.0429888   0.025
0.0429888   0.0429888   0.025
0.0569012   0.0429888   0.025
0.0715849   0.0429888   0.025
0.0870549   0.0429888   0.025
0.103323   0.0429888   0.025
0.120395   0.0429888   0.025
0.138275   0.0429888   0.025
0.156961   0.0429888   0.025
0.176443   0.0429888   0.025
0.196707   0.0429888   0.025
0.217734   0.0429888   0.025
0.239496   0.0429888   0.025
0.261959   0.0429888   0.025
0.285082   0.0429888   0.025
0.308818   0.0429888   0.025
0.333113   0.0429888   0.025
0.357906   0.0429888   0.025
0.383132   0.0429888   0.025
0.408719   0.0429888   0.025
0.434592   0.0429888   0.025
0.460672   0.0429888   0.025
0.486877   0.0429888   0.025
0.513123   0.0429888   0.025
0.539328   0.0429888   0.025
0.565408   0.0429888   0.025
0.591281   0.0429888   0.025
0.616868   0.0429888   0.025
0.642094   0.0429888   0.025
0.666887   0.0429888   0.025
0.691182   0.0429888   0.025
0.714918   0.0429888   0.025
0.738041   0.0429888   0.025
0.760504   0.0429888   0.025
0.782266   0.0429888   0.025
0.803293   0.0429888   0.025
0.823557   0.0429888   0.025
0.843039   0.0429888   0.025
0.861725   0.0429888   0.025
0.879605   0.0429888   0.025
0.896677   0.0429888   0.025
0.912945   0.0429888   0.025
0.928415   0.0429888   0.025
0.943099   0.0429888   0.025
0.957011   0.0429888   0.025
0.970171   0.0429888   0.025
0.982598   0.0429888   0.025
0.994315   0.0429888   0.025
0.00568455   0.0569012   0.025
0.0174023   0.0569012   0.025
0.0298294   0.0569012   0.025
0.0429888   0.0569012   0.025
0.0569012   0.0569012   0.025
0.0715849   0.0569012   0.025
0.0870549   0.0569012   0.025
0.103323   0.0569012   0.025
0.120395   0.0569012   0.025
0.138275   0.0569012   0.025
0.156961   0.0569012   0.025
0.176443   0.0569012   0.025
0.196707   0.0569012   0.025
0.217734   0.0569012   0.025
0.239496   0.0569012   0.025
0.261959   0.0569012   0.025
0.285082   0.0569012   0.025
0.308818   0.0569012   0.025
0.333113   0.0569012   0.025
0.357906   0.0569012   0.025
0.383132   0.0569012   0.025
0.408719   0.0569012   0.025
0.434592   0.0569012   0.025
0.460672   0.0569012   0.025
0.486877   0.0569012   0.025
0.513123   0.0569012   0.025
0.539328   0.0569012   0.025
0.565408   0.0569012   0.025
0.591281   0.0569012   0.025
0.616868   0.0569012   0.025
0.642094   0.0569012   0.025
0.666887   0.0569012   0.025
0.691182   0.0569012   0.025
0.714918   0.0569012   0.025
0.738041   0.0569012   0.025
0.760504   0.0569012   0.025
0.782266   0.0569012   0.025
0.803293   0.0569012   0.025
0.823557   0.0569012   0.025
0.843039   0.0569012   0.025
0.861725   0.0569012   0.025
0.879605   0.0569012   0.025
0.896677   0.0569012   0.025
0.912945   0.0569012   0.025
0.928415   0.0569012   0.025
0.943099   0.0569012   0.025
0.957011   0.0569012   0.025
0.970171   0.0569012   0.025
0.982598   0.0569012   0.025
0.994315   0.0569012   0.025
0.00568455   0.0715849   0.025
0.0174023   0.0715849   0.025
0.0298294   0.0715849   0.025
0.0429888   0.0715849   0.025
0.0569012   0.0715849   0.025
0.0715849   0.0715849   0.025
0.0870549   0.0715849   0.025
0.103323   0.0715849   0.025
0.120395   0.0715849   0.025
0.138275   0.0715849   0.025
0.156961   0.0715849   0.025
0.176443   0.0715849   0.025
0.196707   0.0715849   0.025
0.217734   0.0715849   0.025
0.239496   0.0715849   0.025
0.261959   0.0715849   0.025
0.285082   0.0715849   0.025
0.308818   0.0715849   0.025
0.333113   0.0715849   0.025
0.357906   0.0715849   0.025
0.383132   0.0715849   0.025
0.408719   0.0715849   0.025
0.434592   0.0715849   0.025
0.460672   0.0715849   0.025
0.486877   0.0715849   0.025
0.513123   0.0715849   0.025
0.539328   0.0715849   0.025
0.565408   0.0715849   0.025
0.591281   0.0715849   0.025
0.616868   0.0715849   0.025
0.642094   0.0715849   0.025
0.666887   0.0715849   0.025
0.691182   0.0715849   0.025
0.714918   0.0715849   0.025
0.738041   0.0715849   0.025
0.760504   0.0715849   0.025
0.782266   0.0715849   0.025
0.803293   0.0715849   0.025
0.823557   0.0715849   0.025
0.843039   0.0715849   0.025
0.861725   0.0715849   0.025
0.879605   0.0715849   0.025
0.896677   0.0715849   0.025
0.912945   0.0715849   0.025
0.928415   0.0715849   0.025
0.943099   0.0715849   0.025
0.957011   0.0715849   0.025
0.970171   0.0715849   0.025
0.982598   0.0715849   0.025
0.994315   0.0715849   0.025
0.00568455   0.0870549   0.025
0.0174023   0.0870549   0.025
0.0298294   0.0870549   0.025
0.0429888   0.0870549   0.025
0.0569012   0.0870549   0.025
0.0715849   0.0870549   0.025
0.0870549   0.0870549   0.025
0.103323   0.0870549   0.025
0.120395   0.0870549   0.025
0.138275   0.0870549   0.025
0.156961   0.0870549   0.025
0.176443   0.0870549   0.025
0.196707   0.0870549   0.025
0.217734   0.0870549   0.025
0.239496   0.0870549   0.025
0.261959   0.0870549   0.025
0.285082   0.0870549   0.025
0.308818   0.0870549   0.025
0.333113   0.0870549   0.025
0.357906   0.0870549   0.025
0.383132   0.0870549   0.025
0.408719   0.0870549   0.025
0.434592   0.0870549   0.025
0.460672   0.0870549   0.025
0.486877   0.0870549   0.025
0.513123   0.0870549   0.025
0.539328   0.0870549   0.025
0.565408   0.0870549   0.025
0.591281   0.0870549   0.025
0.616868   0.0870549   0.025
0.642094   0.0870549   0.025
0.666887   0.0870549   0.025
0.691182   0.0870549   0.025
0.714918   0.0870549   0.025
0.738041   0.0870549   0.025
0.760504   0.0870549   0.025
0.782266   0.0870549   0.025
[...]
POINT_DATA   50000
SCALARS Presion double
LOOKUP_TABLE   Presion

0 0 0 0 0 0 0 0 0 0 0 0 0 0 0 0 0 0 0 0 0 0 0 0 0 0 0 0 0 0 0 0 0 0 0 0 0 0 0 0 0 0 0 0 0 0 0 0 0 0 0.00166249 0.00180995 0.00198795 0.0021167 0.00218169 0.00218407 0.00212843 0.00201989 0.00186333 0.00166302 0.00142235 0.00114305 0.000683263 0.000403974 0.000154699 -6.24922e-05 -0.000242478 -0.00037685 -0.000455799 -0.000470515 -0.000415624 -0.000291208 -0.000103779 0.000134041 0.000385014 0.000634951 0.000850113 0.00100353 0.0010737 0.00104677 0.000918066 0.000692802 0.000385723 1.99591e-05 -0.000374857 -0.000763947 -0.0010127 -0.00137489 -0.00171202 -0.00200657 -0.00224808 -0.00243085 -0.00255198 -0.00261003 -0.00260424 -0.0025341 -0.00239968 -0.00220449 -0.00196898 -0.00178579 0.00218229 0.00217117 0.00222118 0.0022721 0.00229416 0.0022751 0.0022112 0.00210274 0.00195193 0.00176201 0.00153732 0.00128189 0.00076109 0.000508453 0.000273106 6.22233e-05 -0.000116792 -0.000254875 -0.000342274 -0.000370428 -0.000334094 -0.000233193 -7.38041e-05 0.000130359 0.000353429 0.000572037 0.000758143 0.000886217 0.000935955 0.000894331 0.000757133 0.000529551 0.000225698 -0.000132921 -0.000520055 -0.000905557 -0.00108244 -0.00144168 -0.00176792 -0.00204974 -0.00227989 -0.00245464 -0.00257272 -0.00263459 -0.00264236 -0.0026003 -0.00251687 -0.00240942 -0.00231413 -0.00230055 0.00253458 0.00248463 0.00247005 0.00246468 0.00244699 0.00240333 0.00232654 0.00221383 0.00206526 0.001883 0.00167149 0.00143401 0.000843549 0.000613378 0.000390431 0.000183926 2.76686e-06 -0.000143325 -0.000244366 -0.000291602 -0.000279352 -0.000206749 -7.89621e-05 8.91089e-05 0.000288931 0.000482196 0.000646769 0.000758037 0.000795786 0.000746556 0.000605449 0.000376893 7.41237e-05 -0.000282659 -0.000669449 -0.00105758 -0.00115861 -0.00152001 -0.00184093 -0.00211469 -0.00233747 -0.00250792 -0.00262665 -0.00269609 -0.00272062 -0.00270734 -0.00266756 -0.00261904 -0.00258771 -0.00260457 0.00282777 0.00276807 0.00272159 0.00267955 0.00263026 0.00256353 0.00247229 0.00235263 0.00220333 0.00202564 0.00182357 0.00159846 0.000933064 0.000719174 0.000504389 0.000298093 0.000109787 -5.03444e-05 -0.000171892 -0.000245442 -0.000264223 -0.000225816 -0.000133703 -3.24957e-06 0.000175255 0.000349288 0.000500113 0.000603709 0.00063898 0.000590808 0.000452429 0.000226605 -7.47574e-05 -0.000432618 -0.000824256 -0.00122041 -0.00124558 -0.00161318 -0.00193323 -0.00220313 -0.00242235 -0.00259193 -0.00271432 -0.00279342 -0.00283479 -0.00284608 -0.0028375 -0.00282194 -0.00281361 -0.00282365 0.00311137 0.00304335 0.00297701 0.00290997 0.00283647 0.00274991 0.0026446 0.00251663 0.00236419 0.00218776 0.00199064 0.00177171 0.00102901 0.000823603 0.000610113 0.000397184 0.000194209 1.1586e-05 -0.000139679 -0.000249026 -0.000307854 -0.00031129 -0.000260087 -0.000168924 -1.16284e-05 0.000148584 0.000293399 0.000399152 0.000442978 0.00040689 0.000280966 6.5148e-05 -0.000230765 -0.000589078 -0.000987766 -0.00139548 -0.0013483 -0.00172478 -0.00204705 -0.00231642 -0.00253544 -0.00270724 -0.00283563 -0.00292533 -0.00298207 -0.00301258 -0.00302458 -0.0030261 -0.00302416 -0.00302238 0.00340511 0.00332338 0.00323937 0.00315245 0.00305952 0.00295618 0.00283789 0.00270099 0.00254328 0.0023645 0.00216709 0.00194709 0.00112722 0.000920725 0.000698926 0.000469417 0.000241053 2.42855e-05 -0.000169092 -0.000326836 -0.000437703 -0.000493351 -0.000490564 -0.000441977 -0.000305782 -0.000155857 -9.84152e-06 0.000108658 0.000174154 0.000164539 6.52223e-05 -0.000128186 -0.000409239 -0.000762267 -0.00116585 -0.00158558 -0.00147317 -0.00185887 -0.00218445 -0.00245545 -0.00267704 -0.00285379 -0.00299024 -0.00309123 -0.0031619 -0.00320764 -0.00323374 -0.00324502 -0.00324501 -0.00323516 0.00371309 0.00361149 0.00350815 0.00340265 0.00329267 0.00317458 0.00304425 0.00289787 0.00273264 0.0025474 0.00234343 0.00211376 0.00121889 0.000999605 0.000756891 0.000497272 0.000228891 -3.77651e-05 -0.000289835 -0.000512793 -0.000691887 -0.000814203 -0.000871213 -0.000872051 -0.000754305 -0.000614541 -0.000461388 -0.000318879 -0.00021597 -0.000180248 -0.00023276 -0.000384234 -0.000633442 -0.000968092 -0.00136794 -0.00179516 -0.00162914 -0.00202035 -0.00234749 -0.00262068 -0.00284692 -0.00303124 -0.00317802 -0.0032915 -0.00337588 -0.00343514 -0.00347286 -0.00349201 -0.00349475 -0.00348225 0.00402954 0.00390261 0.0037772 0.00365261 0.00352631 0.00339443 0.00325235 0.00309547 0.00291991 0.00272319 0.00250504 0.00225538 0.00128912 0.00104278 0.000763163 0.000455789 0.000128099 -0.000209244 -0.000541924 -0.000852468 -0.0011217 -0.00133099 -0.00146514 -0.00152825 -0.00142104 -0.00129656 -0.00113273 -0.000954703 -0.000795709 -0.000690253 -0.000667956 -0.000748463 -0.000938414 -0.00123113 -0.00160898 -0.00203123 -0.00182945 -0.00221601 -0.00253879 -0.00281257 -0.00304475 -0.00323931 -0.00339929 -0.0035276 -0.00362714 -0.00370063 -0.00375048 -0.00377876 -0.00378718 -0.00377717 0.00434051 0.00418386 0.00403372 0.0038889 0.00374614 0.00360051 0.00344613 0.00327686 0.00308712 0.00287257 0.00263091 0.00234886 0.00131525 0.00102461 0.000688292 0.000310841 -0.000100888 -0.000535782 -0.000977574 -0.00140512 -0.00179386 -0.00211834 -0.00235535 -0.00250229 -0.00239067 -0.00229382 -0.00211974 -0.00189542 -0.001659 -0.00145328 -0.00131882 -0.00128731 -0.00137678 -0.00158951 -0.00191305 -0.00230562 -0.00209466 -0.00245642 -0.00276294 -0.00303265 -0.00327089 -0.0034784 -0.00365524 -0.00380206 -0.00392 -0.00401052 -0.00407517 -0.00411557 -0.00413339 -0.00413039 0.00462414 0.0044345 0.00425754 0.00409141 0.00393162 0.00377158 0.00360339 0.00341869 0.00320953 0.0029691 0.00269248 0.00236315 0.00126536 0.000909795 0.000492736 1.76683e-05 -0.000508988 -0.00107531 -0.0016625 -0.00224496 -0.00279178 -0.0032695 -0.00364575 -0.0039092 -0.0037721 -0.00372417 -0.00354618 -0.00326728 -0.00293064 -0.0025885 -0.00229454 -0.00209601 -0.00202666 -0.00210228 -0.0023196 -0.00263976 -0.00245753 -0.00275956 -0.00302929 -0.00328572 -0.00352809 -0.00375074 -0.00394866 -0.00411884 -0.00426 -0.00437205 -0.00445572 -0.00451229 -0.00454349 -0.00455145 0.00485025 0.00462561 0.00442057 0.00423237 0.00405485 0.00387913 0.00369466 0.00349017 0.00325468 0.00297826 0.00265278 0.0022585 0.00109714 0.000652396 0.000125983 -0.000479853 -0.001159 -0.0018983 -0.00267581 -0.00346062 -0.0042144 -0.00489455 -0.00545841 -0.00588335 -0.00569903 -0.00573108 -0.00556339 -0.00522655 -0.00476817 -0.00425013 -0.00374088 -0.0033064 -0.0030009 -0.00285931 -0.0028932 -0.00307357 -0.00297041 -0.00315689 -0.00335693 -0.00358357 -0.00382412 -0.00406233 -0.00428522 -0.00448424 -0.00465453 -0.00479388 -0.00490189 -0.00497943 -0.00502824 -0.00505075 0.00498026 0.00472003 0.00448665 0.00427613 0.00408012 0.00388691 0.00368265 0.00345255 0.00318197 0.00285726 0.0024664 0.00198648 0.00075771 0.00019585 -0.000473137 -0.00124854 -0.00212444 -0.00308603 -0.00410744 -0.00515148 -0.00617125 -0.00711368 -0.00792469 -0.00856714 -0.0083244 -0.0084762 -0.00834204 -0.00795176 -0.00735567 -0.00662405 -0.00584022 -0.00509089 -0.00445489 -0.00399239 -0.00373682 -0.00368005 -0.00371483 -0.00370214 -0.00378193 -0.00395049 -0.00417574 -0.00442559 -0.00467531 -0.00490814 -0.00511386 -0.00528704 -0.00542555 -0.00552949 -0.00560046 -0.0056411 0.00496776 0.00467298 0.00441211 0.00417954 0.00396428 0.0037512 0.0035226 0.00325959 0.00294331 0.00255578 0.00208048 0.00149127 0.000184946 -0.000525316 -0.00137427 -0.00236309 -0.00348591 -0.00472569 -0.00605179 -0.0074195 -0.00877188 -0.0100439 -0.0111687 -0.0120908 -0.0118045 -0.0121207 -0.0120518 -0.011623 -0.0108842 -0.00991116 -0.00879959 -0.00765649 -0.00658749 -0.00568313 -0.00500644 -0.00458537 -0.00481063 -0.00448154 -0.00436595 -0.00442969 -0.00461322 -0.00486253 -0.00513623 -0.00540559 -0.00565234 -0.00586604 -0.00604172 -0.00617812 -0.00627637 -0.00633916 0.00476017 0.0044337 0.0041474 0.00389365 0.00365834 0.00342247 0.00316398 0.00285939 0.00248512 0.00201833 0.00143735 0.00071268 -0.000689145 -0.00158151 -0.00265078 -0.0039003 -0.00532395 -0.00690169 -0.00859687 -0.0103557 -0.0121093 -0.0137788 -0.0152832 -0.0165448 -0.0162698 -0.0167936 -0.0168267 -0.0163858 -0.015516 -0.0142931 -0.0128206 -0.0112215 -0.00962669 -0.00815964 -0.00691957 -0.005989 -0.00641827 -0.00562089 -0.00520335 -0.00508914 -0.00518466 -0.00540773 -0.00569421 -0.00599821 -0.00628944 -0.00654971 -0.00676945 -0.00694499 -0.00707646 -0.00716637 0.00430188 0.00394854 0.00364012 0.00336666 0.00311053 0.00284847 0.00255369 0.00219778 0.00175202 0.0011882 0.000479028 -0.000408802 -0.00193242 -0.00304132 -0.00437205 -0.00593009 -0.00770844 -0.00968288 -0.011809 -0.0140219 -0.0162386 -0.0183644 -0.0203022 -0.0219493 -0.0217853 -0.0225495 -0.022721 -0.0223039 -0.021334 -0.0198816 -0.0180496 -0.0159697 -0.013792 -0.0116704 -0.00974405 -0.00816837 -0.00872447 -0.00728218 -0.00642232 -0.00602434 -0.00595898 -0.00611075 -0.00638605 -0.00671518 -0.00705037 -0.0073616 -0.00763204 -0.00785398 -0.00802564 -0.00814896 0.00353886 0.00316547 0.00283952 0.00254843 0.00227081 0.0019789 0.00164099 0.00122346 0.000692217 1.33635e-05 -0.000846456 -0.00192488 -0.003604 -0.00496216 -0.00659299 -0.00850364 -0.0106851 -0.0131072 -0.0157155 -0.0184314 -0.0211556 -0.0237757 -0.0261769 -0.0282315 -0.028309 -0.0293288 -0.0296671 -0.0293141 -0.028293 -0.0266625 -0.0245176 -0.0219879 -0.0192321 -0.0164272 -0.0137507 -0.0114435 -0.0119052 -0.00964341 -0.00817622 -0.00735645 -0.0070268 -0.00703767 -0.00726033 -0.00759394 -0.00796621 -0.00832979 -0.00865665 -0.00893259 -0.00915251 -0.0093171 0.0024246 0.00203985 0.00170218 0.00139622 0.00109673 0.000771411 0.000383592 -0.000105558 -0.000735636 -0.00154635 -0.00257727 -0.003871 -0.00574386 -0.00737914 -0.00934213 -0.0116405 -0.0142614 -0.0171665 -0.0202887 -0.023533 -0.0267817 -0.0299033 -0.0327655 -0.0352185 -0.035667 -0.036936 -0.0374556 -0.0372036 -0.0361898 -0.0344589 -0.032091 -0.0292036 -0.0259518 -0.0225228 -0.0191253 -0.0160845 -0.0160733 -0.0128628 -0.0106244 -0.0092243 -0.00849844 -0.00827136 -0.00837809 -0.00868036 -0.00907362 -0.00948606 -0.00987313 -0.0102105 -0.0104876 -0.0107029 0.000926729 0.000540879 0.000198407 -0.000118926 -0.000440092 -0.000801778 -0.00124542 -0.0018149 -0.00255516 -0.00351159 -0.00472981 -0.00625784 -0.00836216 -0.0102942 -0.0126104 -0.0153171 -0.0183956 -0.0217964 -0.0254372 -0.0292045 -0.0329609 -0.0365562 -0.0398419 -0.0426535 -0.0435626 -0.0450546 -0.0457525 -0.0456268 -0.0446769 -0.042934 -0.0404608 -0.037356 -0.033759 -0.0298534 -0.025864 -0.022181 -0.0212356 -0.0170381 -0.0139047 -0.0117688 -0.0104968 -0.00990904 -0.00981214 -0.0100284 -0.010414 -0.0108645 -0.0113121 -0.0117173 -0.012061 -0.0123374 -0.000966617 -0.00134224 -0.00168173 -0.00200611 -0.00234784 -0.00274763 -0.00325128 -0.00390732 -0.00476561 -0.00587678 -0.00729192 -0.00906453 -0.011431 -0.0136682 -0.0163438 -0.0194608 -0.0229921 -0.0268746 -0.0310085 -0.0352606 -0.0394742 -0.0434826 -0.0471249 -0.0502307 -0.0516231 -0.0532978 -0.0541549 -0.054164 -0.0533202 -0.0516454 -0.0491868 -0.0460221 -0.0422678 -0.0380896 -0.0337102 -0.0295443 -0.0272791 -0.0221742 -0.0181002 -0.0151084 -0.0131424 -0.0120545 -0.0116433 -0.0116978 -0.0120314 -0.0124994 -0.0130023 -0.0134793 -0.0138984 -0.0142472 -0.00324196 -0.00359561 -0.00392376 -0.00425001 -0.00460992 -0.0050477 -0.00561292 -0.00635812 -0.00733742 -0.00860589 -0.0102191 -0.0122355 -0.0148809 -0.0174181 -0.0204422 -0.0239509 -0.027906 -0.0322294 -0.0368024 -0.0414728 -0.0460663 -0.0504038 -0.0543172 -0.0576396 -0.0594696 -0.0612807 -0.0622661 -0.0624011 -0.0616838 -0.0601326 -0.0577845 -0.054699 -0.0509675 -0.046728 -0.0421806 -0.0377152 -0.0339884 -0.0281658 -0.0232067 -0.0193065 -0.0165289 -0.0148023 -0.0139512 -0.0137486 -0.0139685 -0.0144209 -0.0149665 -0.0155154 -0.0160172 -0.0164494 -0.00585823 -0.00617852 -0.00648678 -0.0068089 -0.00718305 -0.00765631 -0.00828131 -0.00911379 -0.0102112 -0.011632 -0.0134349 -0.015682 -0.0186035 -0.0214213 -0.0247661 -0.0286277 -0.0329562 -0.0376572 -0.0425942 -0.0475974 -0.0524788 -0.0570514 -0.0611458 -0.064606 -0.0667821 -0.0686837 -0.0697608 -0.0699999 -0.0694069 -0.0680033 -0.065822 -0.0629099 -0.059336 -0.0552065 -0.0506835 -0.0460878 -0.0410747 -0.0347962 -0.0291074 -0.0243372 -0.0206912 -0.0182142 -0.0167982 -0.0162305 -0.0162592 -0.0166495 -0.017216 -0.0178314 -0.0184203 -0.018946 -0.00874801 -0.00902471 -0.00930476 -0.00961605 -0.00999885 -0.0105024 -0.0111816 -0.0120945 -0.0133007 -0.014861 -0.0168357 -0.0192886 -0.0224606 -0.0255266 -0.0291488 -0.0333088 -0.0379441 -0.0429452 -0.0481596 -0.0534033 -0.058479 -0.0631962 -0.0673894 -0.0709174 -0.0733354 -0.0752868 -0.0764201 -0.0767346 -0.0762474 -0.0749866 -0.0729867 -0.0702886 -0.0669449 -0.0630317 -0.0586665 -0.0540772 -0.0482071 -0.0417543 -0.0355669 -0.0300612 -0.0255743 -0.0222899 -0.0202075 -0.0191677 -0.018918 -0.0191877 -0.0197432 -0.0204131 -0.0210896 -0.0217166 -0.0118224 -0.0120471 -0.0122914 -0.0125847 -0.012969 -0.0134949 -0.0142188 -0.0152002 -0.0164999 -0.0181794 -0.0202993 -0.0229231 -0.0262977 -0.0295683 -0.0334136 -0.0378066 -0.0426736 -0.0478921 -0.0532966 -0.0586931 -0.0638791 -0.0686646 -0.0728908 -0.0764323 -0.0790018 -0.0809706 -0.0821301 -0.0824913 -0.0820827 -0.0809407 -0.0791049 -0.0766159 -0.073517 -0.0698612 -0.0657243 -0.061243 -0.0550448 -0.048672 -0.0422524 -0.0362243 -0.0310152 -0.0269427 -0.02414 -0.0225405 -0.021926 -0.0220095 -0.0225137 -0.0232191 -0.023979 -0.0247121 -0.0149788 -0.0151457 -0.0153478 -0.015616 -0.0159932 -0.016531 -0.0172867 -0.0183201 -0.0196924 -0.0214646 -0.0236964 -0.0264486 -0.0299584 -0.0333824 -0.0373894 -0.0419456 -0.0469678 -0.0523238 -0.0578391 -0.0633136 -0.0685429 -0.0733403 -0.0775541 -0.0810732 -0.0837313 -0.0856947 -0.0868583 -0.0872423 -0.086884 -0.0858282 -0.0841211 -0.0818071 -0.0789271 -0.0755203 -0.0716317 -0.0673264 -0.0612743 -0.0551764 -0.0487807 -0.0424843 -0.0367476 -0.0319888 -0.0284771 -0.026269 -0.0252184 -0.0250506 -0.0254582 -0.0261743 -0.0270084 -0.0278488 -0.0181109 -0.0182168 -0.0183721 -0.0186083 -0.0189691 -0.0195065 -0.0202779 -0.021343 -0.0227625 -0.0245961 -0.0269014 -0.0297351 -0.0332985 -0.03682 -0.0409251 -0.045575 -0.0506804 -0.0561028 -0.0616628 -0.0671576 -0.0723833 -0.0771569 -0.0813332 -0.0848118 -0.0875238 -0.0894684 -0.0906228 -0.0910122 -0.0906801 -0.0896777 -0.0880585 -0.085873 -0.0831649 -0.0799695 -0.0763147 -0.0722224 -0.0666438 -0.060942 -0.0547773 -0.0484627 -0.0424333 -0.0371577 -0.0330181 -0.0302043 -0.0286748 -0.0282012 -0.0284668 -0.029165 -0.0300601 -0.0310053 -0.0211182 -0.0211631 -0.0212687 -0.0214671 -0.0218019 -0.0223252 -0.023094 -0.0241676 -0.0256054 -0.0274655 -0.029803 -0.032669 -0.0361959 -0.0397572 -0.0438979 -0.0485763 -0.0537008 -0.0591304 -0.0646841 -0.0701592 -0.0753534 -0.0800867 -0.084218 -0.0876532 -0.0904059 -0.0923271 -0.0934668 -0.0938513 -0.0935269 -0.0925501 -0.0909806 -0.0888762 -0.0862875 -0.0832531 -0.0797975 -0.075926 -0.0709839 -0.0657271 -0.0599291 -0.0538015 -0.0477118 -0.0421251 -0.0374948 -0.0341325 -0.0321188 -0.0313034 -0.0313878 -0.0320391 -0.0329791 -0.0340233 -0.0239153 -0.0239018 -0.023957 -0.0241129 -0.0244127 -0.0249077 -0.0256543 -0.0267109 -0.0281358 -0.0299851 -0.0323115 -0.0351605 -0.0385567 -0.0421011 -0.0462178 -0.050866 -0.0559548 -0.0613444 -0.0668554 -0.0722868 -0.0774378 -0.0821296 -0.0862221 -0.0896229 -0.0924161 -0.0943168 -0.0954426 -0.0958178 -0.0954892 -0.0945164 -0.0929648 -0.0908998 -0.0883807 -0.085455 -0.0821534 -0.0784849 -0.0742098 -0.0693858 -0.0640139 -0.0582094 -0.0522507 -0.0465562 -0.0416021 -0.0377911 -0.0353258 -0.0341566 -0.034031 -0.0346093 -0.0355773 -0.036713 -0.0264374 -0.0263708 -0.0263772 -0.0264876 -0.0267441 -0.0271968 -0.0279009 -0.0289138 -0.0302927 -0.0320923 -0.0343634 -0.0371463 -0.0403182 -0.0437904 -0.0478282 -0.0523941 -0.0574018 -0.0627155 -0.0681598 -0.073536 -0.0786442 -0.0833047 -0.0873747 -0.0907587 -0.0935983 -0.0954872 -0.0966048 -0.0969712 -0.0966318 -0.0956478 -0.0940895 -0.0920296 -0.0895368 -0.0866701 -0.0834723 -0.0799688 -0.0763079 -0.0718595 -0.0669061 -0.0614848 -0.0557833 -0.0501475 -0.0450338 -0.0408957 -0.0380402 -0.0365282 -0.036177 -0.0366609 -0.0376413 -0.0388604 -0.028644 -0.0285318 -0.0284929 -0.0285567 -0.0287632 -0.0291603 -0.0298016 -0.0307433 -0.0320419 -0.0337515 -0.0359222 -0.0385908 -0.0414475 -0.0447947 -0.0487032 -0.0531417 -0.0580311 -0.0632424 -0.0686054 -0.0739243 -0.0789989 -0.0836461 -0.0877166 -0.0911072 -0.0939999 -0.0958907 -0.0970098 -0.0973719 -0.0970196 -0.0960148 -0.0944313 -0.0923489 -0.0898456 -0.0869921 -0.083846 -0.0804549 -0.0773175 -0.0731581 -0.0685639 -0.0635167 -0.0581256 -0.0526557 -0.0475144 -0.0431672 -0.0399965 -0.0381689 -0.0375878 -0.0379619 -0.0389412 -0.0402369 -0.0305187 -0.0303701 -0.0302913 -0.0303094 -0.0304608 -0.0307903 -0.031349 -0.0321918 -0.0333746 -0.0349526 -0.0369771 -0.0394835 -0.0419387 -0.0451109 -0.0488443 -0.0531166 -0.0578579 -0.0629478 -0.0682224 -0.0734885 -0.0785442 -0.0832005 -0.0872989 -0.0907239 -0.0936737 -0.0955841 -0.0967178 -0.0970836 -0.0967203 -0.0956894 -0.0940677 -0.0919408 -0.0893954 -0.0865132 -0.0833657 -0.080024 -0.0773126 -0.0733386 -0.0690089 -0.0642713 -0.0591748 -0.0539097 -0.0488205 -0.0443544 -0.0409377 -0.0388274 -0.0380186 -0.0382718 -0.0392394 -0.0406073 -0.0320671 -0.0318924 -0.031781 -0.031756 -0.0318491 -0.0321004 -0.0325574 -0.0332731 -0.034304 -0.0357076 -0.037539 -0.0398356 -0.0418086 -0.0447583 -0.0482758 -0.0523491 -0.0569192 -0.0618755 -0.0670602 -0.0722824 -0.0773373 -0.082028 -0.0861839 -0.0896738 -0.0926795 -0.0946307 -0.0957954 -0.0961764 -0.095808 -0.09475 -0.0930815 -0.0908928 -0.0882779 -0.0853274 -0.082125 -0.0787628 -0.0763892 -0.0724883 -0.0683056 -0.0637722 -0.0588963 -0.0538076 -0.0487874 -0.044247 -0.0406296 -0.0382613 -0.0372264 -0.0373486 -0.0382956 -0.0397342 -0.0333124 -0.0331228 -0.0329873 -0.0329235 -0.0329568 -0.0331205 -0.0334572 -0.0340176 -0.0348594 -0.0360443 -0.0376348 -0.0396743 -0.0410914 -0.0437746 -0.0470404 -0.0508884 -0.0552711 -0.0600875 -0.065186 -0.0703769 -0.0754512 -0.0802024 -0.0844463 -0.0880335 -0.0910865 -0.0931026 -0.0943184 -0.0947298 -0.094366 -0.0932846 -0.0915651 -0.0893014 -0.0865928 -0.0835367 -0.0802254 -0.0767672 -0.0746578 -0.0707125 -0.0665445 -0.0620804 -0.0573047 -0.0523033 -0.0473041 -0.0426775 -0.0388652 -0.0362424 -0.0349733 -0.0349506 -0.0358678 -0.0373785 -0.0342907 -0.0340984 -0.0339485 -0.0338517 -0.0338246 -0.0338922 -0.03409 -0.034466 -0.0350799 -0.0360009 -0.037302 -0.0390378 -0.0398339 -0.0422109 -0.0451953 -0.0487991 -0.0529856 -0.0576626 -0.0626836 -0.0678589 -0.0729742 -0.0778125 -0.0821745 -0.085892 -0.088974 -0.0910819 -0.0923719 -0.0928327 -0.0924878 -0.0913913 -0.0896217 -0.0872742 -0.0844512 -0.0812539 -0.0777793 -0.0741457 -0.0722372 -0.068126 -0.0638295 -0.0592775 -0.0544443 -0.0493891 -0.0443008 -0.0395143 -0.0354629 -0.0325556 -0.0310251 -0.0308338 -0.0317086 -0.0332949 -0.0350464 -0.0348647 -0.0347112 -0.034588 -0.0345006 -0.0344627 -0.0345017 -0.0346624 -0.0350082 -0.0356187 -0.0365825 -0.0379702 -0.0380908 -0.0401278 -0.0428091 -0.0461583 -0.0501484 -0.0546939 -0.0596514 -0.0648301 -0.0700094 -0.0749611 -0.0794704 -0.0833507 -0.0864321 -0.0886604 -0.0900506 -0.0905837 -0.0902764 -0.0891778 -0.0873639 -0.0849285 -0.0819742 -0.0786027 -0.0749108 -0.0710187 -0.0692511 -0.0648475 -0.0602689 -0.0554523 -0.0503722 -0.0450768 -0.0397319 -0.0346494 -0.0302572 -0.0269918 -0.0251449 -0.0247454 -0.0255585 -0.0272241 -0.0356285 -0.0354723 -0.0353275 -0.0351849 -0.0350362 -0.0348814 -0.0347383 -0.0346493 -0.0346842 -0.0349372 -0.0355176 -0.0365172 -0.0359217 -0.0375931 -0.0399592 -0.0430537 -0.0468566 -0.0512863 -0.0562004 -0.061405 -0.0666725 -0.0717633 -0.0764473 -0.0805212 -0.0835612 -0.0859385 -0.0874568 -0.0880878 -0.0878405 -0.0867575 -0.0849096 -0.082387 -0.0792887 -0.0757127 -0.0717508 -0.0675152 -0.0658224 -0.060994 -0.0559681 -0.0506911 -0.0451455 -0.0393814 -0.033559 -0.0279825 -0.0230863 -0.0193379 -0.0170834 -0.016414 -0.017135 -0.0188824 -0.036088 -0.0359753 -0.0358533 -0.0356981 -0.035