# vtk DataFile Version 2.0
Velocidades
ASCII

DATASET STRUCTURED_GRID
DIMENSIONS   50   50   20

POINTS   50000   double
0.00568455   0.00568455   0.025
0.0174023   0.00568455   0.025
0.0298294   0.00568455   0.025
0.0429888   0.00568455   0.025
0.0569012   0.00568455   0.025
0.0715849   0.00568455   0.025
0.0870549   0.00568455   0.025
0.103323   0.00568455   0.025
0.120395   0.00568455   0.025
0.138275   0.00568455   0.025
0.156961   0.00568455   0.025
0.176443   0.00568455   0.025
0.196707   0.00568455   0.025
0.217734   0.00568455   0.025
0.239496   0.00568455   0.025
0.261959   0.00568455   0.025
0.285082   0.00568455   0.025
0.308818   0.00568455   0.025
0.333113   0.00568455   0.025
0.357906   0.00568455   0.025
0.383132   0.00568455   0.025
0.408719   0.00568455   0.025
0.434592   0.00568455   0.025
0.460672   0.00568455   0.025
0.486877   0.00568455   0.025
0.513123   0.00568455   0.025
0.539328   0.00568455   0.025
0.565408   0.00568455   0.025
0.591281   0.00568455   0.025
0.616868   0.00568455   0.025
0.642094   0.00568455   0.025
0.666887   0.00568455   0.025
0.691182   0.00568455   0.025
0.714918   0.00568455   0.025
0.738041   0.00568455   0.025
0.760504   0.00568455   0.025
0.782266   0.00568455   0.025
0.803293   0.00568455   0.025
0.823557   0.00568455   0.025
0.843039   0.00568455   0.025
0.861725   0.00568455   0.025
0.879605   0.00568455   0.025
0.896677   0.00568455   0.025
0.912945   0.00568455   0.025
0.928415   0.00568455   0.025
0.943099   0.00568455   0.025
0.957011   0.00568455   0.025
0.970171   0.00568455   0.025
0.982598   0.00568455   0.025
0.994315   0.00568455   0.025
0.00568455   0.0174023   0.025
0.0174023   0.0174023   0.025
0.0298294   0.0174023   0.025
0.0429888   0.0174023   0.025
0.0569012   0.0174023   0.025
0.0715849   0.0174023   0.025
0.0870549   0.0174023   0.025
0.103323   0.0174023   0.025
0.120395   0.0174023   0.025
0.138275   0.0174023   0.025
0.156961   0.0174023   0.025
0.176443   0.0174023   0.025
0.196707   0.0174023   0.025
0.217734   0.0174023   0.025
0.239496   0.0174023   0.025
0.261959   0.0174023   0.025
0.285082   0.0174023   0.025
0.308818   0.0174023   0.025
0.333113   0.0174023   0.025
0.357906   0.0174023   0.025
0.383132   0.0174023   0.025
0.408719   0.0174023   0.025
0.434592   0.0174023   0.025
0.460672   0.0174023   0.025
0.486877   0.0174023   0.025
0.513123   0.0174023   0.025
0.539328   0.0174023   0.025
0.565408   0.0174023   0.025
0.591281   0.0174023   0.025
0.616868   0.0174023   0.025
0.642094   0.0174023   0.025
0.666887   0.0174023   0.025
0.691182   0.0174023   0.025
0.714918   0.0174023   0.025
0.738041   0.0174023   0.025
0.760504   0.0174023   0.025
0.782266   0.0174023   0.025
0.803293   0.0174023   0.025
0.823557   0.0174023   0.025
0.843039   0.0174023   0.025
0.861725   0.0174023   0.025
0.879605   0.0174023   0.025
0.896677   0.0174023   0.025
0.912945   0.0174023   0.025
0.928415   0.0174023   0.025
0.943099   0.0174023   0.025
0.957011   0.0174023   0.025
0.970171   0.0174023   0.025
0.982598   0.0174023   0.025
0.994315   0.0174023   0.025
0.00568455   0.0298294   0.025
0.0174023   0.0298294   0.025
0.0298294   0.0298294   0.025
0.0429888   0.0298294   0.025
0.0569012   0.0298294   0.025
0.0715849   0.0298294   0.025
0.0870549   0.0298294   0.025
0.103323   0.0298294   0.025
0.120395   0.0298294   0.025
0.138275   0.0298294   0.025
0.156961   0.0298294   0.025
0.176443   0.0298294   0.025
0.196707   0.0298294   0.025
0.217734   0.0298294   0.025
0.239496   0.0298294   0.025
0.261959   0.0298294   0.025
0.285082   0.0298294   0.025
0.308818   0.0298294   0.025
0.333113   0.0298294   0.025
0.357906   0.0298294   0.025
0.383132   0.0298294   0.025
0.408719   0.0298294   0.025
0.434592   0.0298294   0.025
0.460672   0.0298294   0.025
0.486877   0.0298294   0.025
0.513123   0.0298294   0.025
0.539328   0.0298294   0.025
0.565408   0.0298294   0.025
0.591281   0.0298294   0.025
0.616868   0.0298294   0.025
0.642094   0.0298294   0.025
0.666887   0.0298294   0.025
0.691182   0.0298294   0.025
0.714918   0.0298294   0.025
0.738041   0.0298294   0.025
0.760504   0.0298294   0.025
0.782266   0.0298294   0.025
0.803293   0.0298294   0.025
0.823557   0.0298294   0.025
0.843039   0.0298294   0.025
0.861725   0.0298294   0.025
0.879605   0.0298294   0.025
0.896677   0.0298294   0.025
0.912945   0.0298294   0.025
0.928415   0.0298294   0.025
0.943099   0.0298294   0.025
0.957011   0.0298294   0.025
0.970171   0.0298294   0.025
0.982598   0.0298294   0.025
0.994315   0.0298294   0.025
0.00568455   0.0429888   0.025
0.0174023   0.0429888   0.025
0.0298294   0.0429888   0.025
0.0429888   0.0429888   0.025
0.0569012   0.0429888   0.025
0.0715849   0.0429888   0.025
0.0870549   0.0429888   0.025
0.103323   0.0429888   0.025
0.120395   0.0429888   0.025
0.138275   0.0429888   0.025
0.156961   0.0429888   0.025
0.176443   0.0429888   0.025
0.196707   0.0429888   0.025
0.217734   0.0429888   0.025
0.239496   0.0429888   0.025
0.261959   0.0429888   0.025
0.285082   0.0429888   0.025
0.308818   0.0429888   0.025
0.333113   0.0429888   0.025
0.357906   0.0429888   0.025
0.383132   0.0429888   0.025
0.408719   0.0429888   0.025
0.434592   0.0429888   0.025
0.460672   0.0429888   0.025
0.486877   0.0429888   0.025
0.513123   0.0429888   0.025
0.539328   0.0429888   0.025
0.565408   0.0429888   0.025
0.591281   0.0429888   0.025
0.616868   0.0429888   0.025
0.642094   0.0429888   0.025
0.666887   0.0429888   0.025
0.691182   0.0429888   0.025
0.714918   0.0429888   0.025
0.738041   0.0429888   0.025
0.760504   0.0429888   0.025
0.782266   0.0429888   0.025
0.803293   0.0429888   0.025
0.823557   0.0429888   0.025
0.843039   0.0429888   0.025
0.861725   0.0429888   0.025
0.879605   0.0429888   0.025
0.896677   0.0429888   0.025
0.912945   0.0429888   0.025
0.928415   0.0429888   0.025
0.943099   0.0429888   0.025
0.957011   0.0429888   0.025
0.970171   0.0429888   0.025
0.982598   0.0429888   0.025
0.994315   0.0429888   0.025
0.00568455   0.0569012   0.025
0.0174023   0.0569012   0.025
0.0298294   0.0569012   0.025
0.0429888   0.0569012   0.025
0.0569012   0.0569012   0.025
0.0715849   0.0569012   0.025
0.0870549   0.0569012   0.025
0.103323   0.0569012   0.025
0.120395   0.0569012   0.025
0.138275   0.0569012   0.025
0.156961   0.0569012   0.025
0.176443   0.0569012   0.025
0.196707   0.0569012   0.025
0.217734   0.0569012   0.025
0.239496   0.0569012   0.025
0.261959   0.0569012   0.025
0.285082   0.0569012   0.025
0.308818   0.0569012   0.025
0.333113   0.0569012   0.025
0.357906   0.0569012   0.025
0.383132   0.0569012   0.025
0.408719   0.0569012   0.025
0.434592   0.0569012   0.025
0.460672   0.0569012   0.025
0.486877   0.0569012   0.025
0.513123   0.0569012   0.025
0.539328   0.0569012   0.025
0.565408   0.0569012   0.025
0.591281   0.0569012   0.025
0.616868   0.0569012   0.025
0.642094   0.0569012   0.025
0.666887   0.0569012   0.025
0.691182   0.0569012   0.025
0.714918   0.0569012   0.025
0.738041   0.0569012   0.025
0.760504   0.0569012   0.025
0.782266   0.0569012   0.025
0.803293   0.0569012   0.025
0.823557   0.0569012   0.025
0.843039   0.0569012   0.025
0.861725   0.0569012   0.025
0.879605   0.0569012   0.025
0.896677   0.0569012   0.025
0.912945   0.0569012   0.025
0.928415   0.0569012   0.025
0.943099   0.0569012   0.025
0.957011   0.0569012   0.025
0.970171   0.0569012   0.025
0.982598   0.0569012   0.025
0.994315   0.0569012   0.025
0.00568455   0.0715849   0.025
0.0174023   0.0715849   0.025
0.0298294   0.0715849   0.025
0.0429888   0.0715849   0.025
0.0569012   0.0715849   0.025
0.0715849   0.0715849   0.025
0.0870549   0.0715849   0.025
0.103323   0.0715849   0.025
0.120395   0.0715849   0.025
0.138275   0.0715849   0.025
0.156961   0.0715849   0.025
0.176443   0.0715849   0.025
0.196707   0.0715849   0.025
0.217734   0.0715849   0.025
0.239496   0.0715849   0.025
0.261959   0.0715849   0.025
0.285082   0.0715849   0.025
0.308818   0.0715849   0.025
0.333113   0.0715849   0.025
0.357906   0.0715849   0.025
0.383132   0.0715849   0.025
0.408719   0.0715849   0.025
0.434592   0.0715849   0.025
0.460672   0.0715849   0.025
0.486877   0.0715849   0.025
0.513123   0.0715849   0.025
0.539328   0.0715849   0.025
0.565408   0.0715849   0.025
0.591281   0.0715849   0.025
0.616868   0.0715849   0.025
0.642094   0.0715849   0.025
0.666887   0.0715849   0.025
0.691182   0.0715849   0.025
0.714918   0.0715849   0.025
0.738041   0.0715849   0.025
0.760504   0.0715849   0.025
0.782266   0.0715849   0.025
0.803293   0.0715849   0.025
0.823557   0.0715849   0.025
0.843039   0.0715849   0.025
0.861725   0.0715849   0.025
0.879605   0.0715849   0.025
0.896677   0.0715849   0.025
0.912945   0.0715849   0.025
0.928415   0.0715849   0.025
0.943099   0.0715849   0.025
0.957011   0.0715849   0.025
0.970171   0.0715849   0.025
0.982598   0.0715849   0.025
0.994315   0.0715849   0.025
0.00568455   0.0870549   0.025
0.0174023   0.0870549   0.025
0.0298294   0.0870549   0.025
0.0429888   0.0870549   0.025
0.0569012   0.0870549   0.025
0.0715849   0.0870549   0.025
0.0870549   0.0870549   0.025
0.103323   0.0870549   0.025
0.120395   0.0870549   0.025
0.138275   0.0870549   0.025
0.156961   0.0870549   0.025
0.176443   0.0870549   0.025
0.196707   0.0870549   0.025
0.217734   0.0870549   0.025
0.239496   0.0870549   0.025
0.261959   0.0870549   0.025
0.285082   0.0870549   0.025
0.308818   0.0870549   0.025
0.333113   0.0870549   0.025
0.357906   0.0870549   0.025
0.383132   0.0870549   0.025
0.408719   0.0870549   0.025
0.434592   0.0870549   0.025
0.460672   0.0870549   0.025
0.486877   0.0870549   0.025
0.513123   0.0870549   0.025
0.539328   0.0870549   0.025
0.565408   0.0870549   0.025
0.591281   0.0870549   0.025
0.616868   0.0870549   0.025
0.642094   0.0870549   0.025
0.666887   0.0870549   0.025
0.691182   0.0870549   0.025
0.714918   0.0870549   0.025
0.738041   0.0870549   0.025
0.760504   0.0870549   0.025
0.782266   0.0870549   0.025
[...]
POINT_DATA   50000
VECTORS Velocidades double

-7.68212e-05 -0.00168833 0
-0.00020785 -0.00331614 0
-0.000285407 -0.00423269 0
-0.000313851 -0.0047477 0
-0.000320941 -0.00498668 0
-0.000333915 -0.00501303 0
-0.00037351 -0.00486573 0
-0.000454297 -0.00457245 0
-0.000586105 -0.00415431 0
-0.000775547 -0.00362659 0
-0.00102806 -0.00299571 0
-0.00115382 -0.00224564 0
-0.00133363 -0.00127778 0
-0.00177574 -0.000549702 0
-0.00229315 5.7507e-05 0
-0.00285841 0.000570625 0
-0.00346215 0.000986541 0
-0.00409527 0.00128831 0
-0.00474467 0.00145346 0
-0.00539139 0.00146054 0
-0.00601005 0.00129499 0
-0.00656938 0.000954161 0
-0.007035 0.000450814 0
-0.00736108 -0.000184442 0
-0.00750579 -0.000891293 0
-0.00744108 -0.00160267 0
-0.00714948 -0.00223916 0
-0.00663471 -0.00272632 0
-0.00592075 -0.00300032 0
-0.00505233 -0.00301667 0
-0.00409082 -0.00275746 0
-0.00310614 -0.00223494 0
-0.00216662 -0.0014907 0
-0.00132904 -0.000591326 0
-0.00063011 0.000376511 0
-0.000238381 0.00130427 0
2.29591e-06 0.00203249 0
0.000272658 0.00287521 0
0.00043783 0.00367473 0
0.000504001 0.00437211 0
0.00049094 0.00494151 0
0.000418451 0.00537109 0
0.000304777 0.00565476 0
0.000167087 0.00578776 0
2.25402e-05 0.00576334 0
-0.000110269 0.00556884 0
-0.000209517 0.00517869 0
-0.000249207 0.00453845 0
-0.000204902 0.00352147 0
-7.95753e-05 0.0017913 0
-0.000257023 -0.00310388 0
-0.000677084 -0.00646924 0
-0.0008943 -0.00841425 0
-0.000950419 -0.00949367 0
-0.000950454 -0.00997496 0
-0.000977465 -0.0100029 0
-0.00109054 -0.00966745 0
-0.00133112 -0.00903168 0
-0.00172792 -0.00814265 0
-0.00230123 -0.00703346 0
-0.00306898 -0.00571653 0
-0.00340511 -0.00415521 0
-0.00396861 -0.00216865 0
-0.00539661 -0.000667648 0
-0.00700837 0.000576451 0
-0.00876759 0.00162449 0
-0.0106491 0.00247147 0
-0.0126224 0.00308131 0
-0.0146419 0.00340535 0
-0.0166426 0.00339656 0
-0.0185391 0.00302202 0
-0.0202294 0.0022738 0
-0.0216027 0.00117708 0
-0.0225299 -0.000204573 0
-0.0228919 -0.00176958 0
-0.0226099 -0.003348 0
-0.0216507 -0.00477755 0
-0.0200397 -0.00589924 0
-0.0178556 -0.00657324 0
-0.0152314 -0.00669886 0
-0.0123428 -0.0062315 0
-0.00938779 -0.0051915 0
-0.00656082 -0.00366341 0
-0.00402721 -0.00178767 0
-0.00189967 0.000249211 0
-0.000742735 0.00220981 0
-1.58295e-06 0.00376257 0
0.000881584 0.00554779 0
0.00140388 0.00724294 0
0.00161404 0.00872231 0
0.00157385 0.00993242 0
0.00134377 0.0108493 0
0.000980261 0.0114603 0
0.000537178 0.0117541 0
6.85031e-05 0.0117139 0
-0.000367773 0.0113085 0
-0.000703891 0.0104766 0
-0.000854768 0.00909309 0
-0.000720532 0.00689155 0
-0.000284571 0.00328057 0
-0.000185366 -0.00262259 0
-0.000588873 -0.00607502 0
-0.000961084 -0.00820906 0
-0.00122033 -0.00939255 0
-0.00142787 -0.00988499 0
-0.00167581 -0.00985627 0
-0.00204786 -0.00942091 0
-0.00261065 -0.00866045 0
-0.00341466 -0.00763446 0
-0.00449831 -0.00638296 0
-0.00589389 -0.00491928 0
-0.00652599 -0.0032028 0
-0.00749843 -0.00108824 0
-0.00989859 0.00052903 0
-0.0125962 0.00185721 0
-0.0155464 0.0029673 0
-0.0187026 0.0038554 0
-0.0220046 0.00447928 0
-0.0253671 0.00478054 0
-0.0286741 0.00470136 0
-0.0317785 0.00419911 0
-0.0345084 0.00325937 0
-0.0366799 0.00190647 0
-0.0381223 0.000208403 0
-0.038639 -0.00175798 0
-0.0380936 -0.00375499 0
-0.0364735 -0.00560349 0
-0.0338261 -0.00711805 0
-0.0302787 -0.0081279 0
-0.0260376 -0.00850294 0
-0.0213703 -0.00817625 0
-0.0165772 -0.00715724 0
-0.0119553 -0.00553343 0
-0.00776109 -0.00346285 0
-0.00417681 -0.00116441 0
-0.00220474 0.00107808 0
-0.000920473 0.00290173 0
0.000638232 0.00495873 0
0.00161276 0.00691096 0
0.002087 0.00861745 0
0.00215641 0.0100199 0
0.00191675 0.0110921 0
0.00146128 0.0118183 0
0.000881947 0.0121818 0
0.000271874 0.0121564 0
-0.000271886 0.0116967 0
-0.000647906 0.0107217 0
-0.000760605 0.0090888 0
-0.000565228 0.00655481 0
-0.000195163 0.00275903 0
-0.000117077 -0.00227476 0
-0.00045016 -0.00560162 0
-0.000900507 -0.00780703 0
-0.00137272 -0.00905528 0
-0.00187705 -0.00954117 0
-0.00247825 -0.00943229 0
-0.0032564 -0.00886023 0
-0.00428724 -0.00792561 0
-0.00563523 -0.00670337 0
-0.00735295 -0.00524382 0
-0.0094825 -0.0035658 0
-0.0104758 -0.00163587 0
-0.0118917 0.000650273 0
-0.0152899 0.00243404 0
-0.0190865 0.00389577 0
-0.0232343 0.00510526 0
-0.027665 0.00605479 0
-0.0322842 0.00669186 0
-0.0369621 0.00694371 0
-0.0415284 0.00673713 0
-0.0457742 0.0060162 0
-0.0494611 0.00475832 0
-0.052338 0.00298731 0
-0.0542298 0.000777915 0
-0.0548605 -0.00178857 0
-0.0540321 -0.00441719 0
-0.0517821 -0.0068947 0
-0.0481763 -0.00899761 0
-0.0433806 -0.0105121 0
-0.0376573 -0.0112674 0
-0.031345 -0.0111654 0
-0.0248246 -0.0101992 0
-0.0184768 -0.0084583 0
-0.0126382 -0.00612274 0
-0.00756085 -0.00345267 0
-0.00474159 -0.000786156 0
-0.00286907 0.00147308 0
-0.000538585 0.00394717 0
0.0010041 0.00628484 0
0.00187689 0.00833303 0
0.00220345 0.0100265 0
0.00210906 0.0113335 0
0.00171916 0.0122311 0
0.00115892 0.0126929 0
0.000552386 0.0126805 0
1.93977e-05 0.012135 0
-0.000334154 0.0109676 0
-0.000439724 0.00905306 0
-0.000310647 0.00624089 0
-9.79991e-05 0.00242288 0
-8.39217e-05 -0.00202991 0
-0.000381372 -0.00510645 0
-0.000898793 -0.00721938 0
-0.00158046 -0.00841833 0
-0.00242 -0.00882717 0
-0.00345497 -0.00858824 0
-0.00474748 -0.00783409 0
-0.00636715 -0.00667667 0
-0.00838064 -0.0052041 0
-0.0108462 -0.0034782 0
-0.013809 -0.00152857 0
-0.0152177 0.000660412 0
-0.0171136 0.00314717 0
-0.0215565 0.00514049 0
-0.0264825 0.0067825 0
-0.0318446 0.00812709 0
-0.0375542 0.00915403 0
-0.0434809 0.00979488 0
-0.0494483 0.00995795 0
-0.0552316 0.00955107 0
-0.0605624 0.00850288 0
-0.0651418 0.00678247 0
-0.0686621 0.0044154 0
-0.0709615 0.0014902 0
-0.0716911 -0.0018791 0
-0.0705996 -0.00534814 0
-0.067786 -0.00866164 0
-0.0633259 -0.0115484 0
-0.0574094 -0.0137412 0
-0.0503371 -0.015019 0
-0.0424987 -0.0152438 0
-0.0343376 -0.0143855 0
-0.0263054 -0.012532 0
-0.0188132 -0.00988547 0
-0.0121875 -0.00675036 0
-0.00848883 -0.00352146 0
-0.00597625 -0.000649967 0
-0.00275014 0.00238748 0
-0.000499327 0.0052366 0
0.00092466 0.00773955 0
0.0016675 0.00982367 0
0.00187709 0.0114474 0
0.00170379 0.0125768 0
0.00129733 0.0131737 0
0.000801082 0.0131894 0
0.000342825 0.0125611 0
2.00508e-05 0.011212 0
-0.000120801 0.00906358 0
-0.000105405 0.00606676 0
-3.34699e-05 0.00226417 0
-7.80708e-05 -0.00182089 0
-0.00039161 -0.00455936 0
-0.00101276 -0.00642508 0
-0.0019285 -0.00742876 0
-0.00313848 -0.00764841 0
-0.00466579 -0.00719729 0
-0.00655412 -0.00619718 0
-0.00885929 -0.00476135 0
-0.0116406 -0.00298517 0
-0.0149533 -0.000940682 0
-0.0188391 0.00132834 0
-0.0207091 0.00381237 0
-0.0231203 0.00651978 0
-0.0286636 0.00875768 0
-0.0347598 0.0106198 0
-0.041361 0.0121291 0
-0.0483584 0.0132417 0
-0.0555863 0.0138665 0
-0.0628223 0.0138883 0
-0.0697897 0.0131936 0
-0.0761665 0.011695 0
-0.0816031 0.00935519 0
-0.0857472 0.00620563 0
-0.0884398 0.00235753 0
-0.0892823 -0.00202338 0
-0.087999 -0.00653529 0
-0.0847327 -0.0108897 0
-0.0795554 -0.0147603 0
-0.0726638 -0.0178171 0
-0.064378 -0.0197796 0
-0.0551206 -0.0204601 0
-0.0453829 -0.0197963 0
-0.0356788 -0.0178669 0
-0.0264935 -0.0148914 0
-0.0182355 -0.011216 0
-0.0136133 -0.00729227 0
-0.0103962 -0.00362642 0
-0.0061213 0.000118926 0
-0.00299426 0.00360367 0
-0.000844186 0.00667572 0
0.000487906 0.00925527 0
0.00116429 0.0112873 0
0.00135226 0.0127233 0
0.00121789 0.0135136 0
0.000915799 0.0136043 0
0.000576802 0.0129393 0
0.00029445 0.011468 0
0.000113888 0.00916303 0
3.00079e-05 0.00604791 0
4.30909e-06 0.0022278 0
-9.04086e-05 -0.00159121 0
-0.000466939 -0.00388898 0
-0.00124603 -0.00535879 0
-0.00244365 -0.00601201 0
-0.00407073 -0.0059075 0
-0.00614506 -0.00513739 0
-0.00869626 -0.00380898 0
-0.0117648 -0.00202919 0
-0.0153976 0.000105932 0
-0.0196401 0.00251733 0
-0.0245258 0.00514604 0
-0.0268949 0.00795353 0
-0.0298534 0.010896 0
-0.0365539 0.0134065 0
-0.043865 0.0155199 0
-0.0517341 0.0172141 0
-0.0600319 0.0184107 0
-0.0685587 0.018988 0
-0.0770498 0.018804 0
-0.085183 0.0177224 0
-0.0925921 0.0156414 0
-0.0988882 0.0125206 0
-0.103688 0.00840245 0
-0.106787 0.00342785 0
-0.107787 -0.00217911 0
-0.106444 -0.00792887 0
-0.102887 -0.0135303 0
-0.0971683 -0.0185952 0
-0.0894716 -0.0227224 0
-0.080117 -0.0255618 0
-0.0695432 -0.0268651 0
-0.0582766 -0.0265246 0
-0.0468879 -0.0245972 0
-0.0359391 -0.021309 0
-0.0259304 -0.0170411 0
-0.0203219 -0.0122995 0
-0.0163175 -0.00765428 0
-0.0108047 -0.00306253 0
-0.00659883 0.00118053 0
-0.00351987 0.00494175 0
-0.00140738 0.00813398 0
-9.34601e-05 0.0106842 0
0.000599571 0.012526 0
0.00084936 0.0135987 0
0.000820013 0.0138477 0
0.000649027 0.0132299 0
0.000437515 0.0117235 0
0.000246889 0.00934199 0
0.000105234 0.0061493 0
2.4226e-05 0.00226733 0
-0.000115206 -0.00129613 0
-0.000593127 -0.00301169 0
-0.00158543 -0.00392646 0
-0.00312242 -0.0040679 0
-0.00522216 -0.00349312 0
-0.00789943 -0.0022828 0
-0.0111729 -0.000530675 0
-0.0150687 0.00166694 0
-0.0196192 0.0042189 0
-0.0248573 0.00704307 0
-0.0308048 0.0100663 0
-0.0337021 0.01322 0
-0.0372346 0.0164088 0
-0.0451438 0.0192145 0
-0.0537121 0.0216011 0
-0.0628774 0.0234896 0
-0.0724891 0.0247567 0
-0.0823166 0.0252444 0
-0.0920593 0.0247806 0
-0.101358 0.0232072 0
-0.109815 0.0204107 0
-0.117015 0.0163517 0
-0.122553 0.0110882 0
-0.126099 0.00479287 0
-0.127332 -0.0022566 0
-0.126122 -0.00943221 0
-0.122491 -0.0164925 0
-0.116448 -0.0229793 0
-0.108147 -0.0284126 0
-0.0978879 -0.0323624 0
-0.0861089 -0.0345053 0
-0.0733588 -0.0346713 0
-0.0602596 -0.0328772 0
-0.0474529 -0.0293384 0
-0.0355409 -0.024458 0
-0.0288643 -0.0187913 0
-0.0239683 -0.012981 0
-0.0169833 -0.0074157 0
-0.0114525 -0.00229201 0
-0.00720664 0.00229067 0
-0.00409826 0.00623442 0
-0.00196181 0.00944086 0
-0.000612899 0.011821 0
0.000137477 0.0133013 0
0.000466433 0.0138279 0
0.00052602 0.0133712 0
0.000436049 0.0119332 0
0.000284194 0.00955461 0
0.000133137 0.00631891 0
3.22031e-05 0.00234835 0
-0.000149087 -0.000898046 0
-0.000759151 -0.00184297 0
-0.00201413 -0.00202066 0
-0.00394726 -0.00147879 0
-0.00657651 -0.000280781 0
-0.00991125 0.00149797 0
-0.0139596 0.0037757 0
-0.0187341 0.00646934 0
-0.0242525 0.00949711 0
-0.0305343 0.0127778 0
-0.0375887 0.0162262 0
-0.0410336 0.0197452 0
-0.0451595 0.0231908 0
-0.0543188 0.0263095 0
-0.0641783 0.0289824 0
-0.0746624 0.0310634 0
-0.085599 0.0323769 0
-0.0967314 0.032724 0
-0.107731 0.031902 0
-0.118214 0.0297328 0
-0.127763 0.0260951 0
-0.135947 0.0209545 0
-0.142352 0.0143863 0
-0.146401 0.00659147 0
-0.147967 -0.00211153 0
-0.14714 -0.0108963 0
-0.143697 -0.0196373 0
-0.137588 -0.027796 0
-0.128921 -0.0348065 0
-0.117957 -0.0401489 0
-0.105114 -0.0434087 0
-0.0909476 -0.0443325 0
-0.076122 -0.0428718 0
-0.0613572 -0.0392069 0
-0.0473667 -0.0337423 0
-0.0395286 -0.0270719 0
-0.0336142 -0.0199161 0
-0.0248675 -0.0132685 0
-0.017713 -0.00713953 0
-0.0120197 -0.001582 0
-0.00766892 0.00328467 0
-0.00450384 0.00732411 0
-0.00233354 0.0104159 0
-0.000953928 0.0124695 0
-0.000168137 0.0134286 0
0.000199196 0.0132736 0
0.00029511 0.0120232 0
0.000238375 0.00973484 0
0.000124389 0.00650168 0
3.18774e-05 0.00244457 0
-0.000189838 -0.000363573 0
-0.000956242 -0.000301654 0
-0.00251486 0.00046861 0
-0.0048935 0.00187966 0
-0.00810291 0.00385996 0
-0.0121427 0.00633789 0
-0.0170087 0.00924424 0
-0.0226996 0.0125121 0
-0.0292194 0.0160732 0
-0.0365742 0.0198512 0
-0.0447614 0.0237525 0
-0.0487632 0.0276536 0
-0.0534932 0.0313675 0
-0.063928 0.0348133 0
-0.0750985 0.0377771 0
-0.0869122 0.0400386 0
-0.0991772 0.0413655 0
-0.111616 0.0415163 0
-0.123883 0.0402586 0
-0.135579 0.0373978 0
-0.14628 0.0328086 0
-0.155551 0.0264642 0
-0.162974 0.0184557 0
-0.167586 0.00900463 0
-0.169597 -0.00154554 0
-0.169441 -0.0121215 0
-0.166481 -0.0227766 0
-0.160602 -0.0328783 0
-0.15185 -0.0417726 0
-0.140432 -0.0488409 0
-0.126724 -0.053562 0
-0.111266 -0.0555746 0
-0.0947457 -0.0547345 0
-0.0779514 -0.051153 0
-0.0617102 -0.0452058 0
-0.0526235 -0.0375038 0
-0.0455459 -0.0288434 0
-0.0346869 -0.0210327 0
-0.0255511 -0.0137665 0
-0.0180819 -0.00704855 0
-0.0122065 -0.00104292 0
-0.00777999 0.00405558 0
-0.00460223 0.00808169 0
-0.0024477 0.0109194 0
-0.00109165 0.0125043 0
-0.000327124 0.0128212 0
2.66333e-05 0.0118992 0
0.000122414 0.00980665 0
8.71994e-05 0.00664403 0
2.56049e-05 0.00253475 0
-0.000235662 0.000337353 0
-0.0011764 0.00168727 0
-0.00306946 0.00364591 0
-0.00593116 0.0061277 0
-0.00975896 0.00905514 0
-0.0145381 0.012363 0
-0.0202497 0.0159983 0
-0.0268779 0.0199148 0
-0.034413 0.0240628 0
-0.0428491 0.0283755 0
-0.0521735 0.032754 0
-0.0567306 0.0370533 0
-0.0620644 0.0410492 0
-0.0737787 0.0448325 0
-0.0862587 0.0480841 0
-0.0993938 0.0505058 0
-0.112975 0.051807 0
-0.126711 0.0517049 0
-0.140246 0.0499403 0
-0.153179 0.0463057 0
-0.165088 0.0406751 0
-0.175542 0.0330297 0
-0.184123 0.0234733 0
-0.189342 0.0122384 0
-0.191905 -0.000319302 0
-0.192711 -0.0128703 0
-0.190539 -0.0256784 0
-0.18521 -0.0380059 0
-0.176704 -0.049115 0
-0.165154 -0.0582854 0
-0.15087 -0.0648763 0
-0.134345 -0.0683952 0
-0.116259 -0.0685669 0
-0.0974439 -0.0653914 0
-0.0788285 -0.0591715 0
-0.0684435 -0.0504989 0
-0.0600526 -0.0402293 0
-0.0466719 -0.0312138 0
-0.0351413 -0.0226639 0
-0.0255229 -0.0145559 0
-0.0178041 -0.0071391 0
-0.0118538 -0.000696055 0
-0.00745794 0.00454447 0
-0.00436263 0.00842923 0
-0.00230719 0.010878 0
-0.0010455 0.0118737 0
-0.000357386 0.0114515 0
-5.28781e-05 0.00968888 0
2.76246e-05 0.00669486 0
1.49829e-05 0.00260108 0
-0.000284758 0.00123085 0
-0.00141119 0.00418906 0
-0.00365767 0.00760274 0
-0.00702455 0.0113709 0
-0.0114915 0.0154148 0
-0.0170255 0.0196815 0
-0.0235906 0.024141 0
-0.0311552 0.0287745 0
-0.0396968 0.033557 0
-0.0491982 0.0384366 0
-0.059639 0.0433139 0
-0.0647377 0.0480267 0
-0.070662 0.0523213 0
-0.0836314 0.0564481 0
-0.0973903 0.0599773 0
-0.11181 0.0625315 0
-0.126668 0.0637645 0
-0.141664 0.063355 0
-0.156442 0.0610209 0
-0.170606 0.0565453 0
-0.18374 0.0498037 0
-0.195424 0.0407851 0
-0.205247 0.0296025 0
-0.211081 0.0164929 0
-0.214273 0.00181876 0
-0.216295 -0.0128912 0
-0.215192 -0.0280797 0
-0.21074 -0.0429058 0
-0.202853 -0.0565617 0
-0.191575 -0.0682305 0
-0.17712 -0.0771479 0
-0.159898 -0.0826714 0
-0.140533 -0.0843606 0
-0.119855 -0.0820544 0
-0.098858 -0.0759249 0
-0.0872086 -0.0664877 0
-0.0773734 -0.0546168 0
-0.0610258 -0.044405 0
-0.0466532 -0.0344031 0
-0.0344817 -0.0246244 0
-0.0245705 -0.0154613 0
-0.0168038 -0.00732159 0
-0.0109516 -0.000521201 0
-0.00672622 0.0047341 0
-0.00382442 0.00833822 0
-0.00195416 0.0102664 0
-0.00085012 0.0105569 0
-0.000280787 0.00929601 0
-5.05404e-05 0.00660459 0
1.00737e-06 0.002628 0
-0.000335077 0.00233737 0
-0.00165096 0.00725422 0
-0.00425587 0.0124093 0
-0.00813136 0.0176895 0
-0.0132363 0.0230209 0
-0.0195169 0.0283715 0
-0.0269181 0.0337434 0
-0.0353925 0.0391543 0
-0.0449043 0.0446119 0
-0.0554272 0.0500852 0
-0.0669341 0.0554793 0
-0.0725471 0.0606202 0
-0.0790328 0.065232 0
-0.0931964 0.0697028 0
-0.108165 0.073491 0
-0.123792 0.0761437 0
-0.139845 0.0772628 0
-0.156019 0.0764929 0
-0.171962 0.0735332 0
-0.187286 0.0681605 0
-0.201585 0.0602536 0
-0.214456 0.0498097 0
-0.225504 0.036951 0
-0.231902 0.0219194 0
-0.235747 0.00508751 0
-0.239145 -0.0119548 0
-0.23933 -0.0297114 0
-0.23606 -0.047265 0
-0.229188 -0.0637615 0
-0.218661 -0.078306 0
-0.204572 -0.0900193 0
-0.187199 -0.0981028 0
-0.167051 -0.101923 0
-0.144889 -0.101109 0
-0.121707 -0.0956324 0
-0.108969 -0.0858543 0
-0.0976191 -0.0725917 0
-0.0778823 -0.0612487 0
-0.0602378 -0.0496078 0
-0.0451103 -0.0378336 0
-0.0326413 -0.0265312 0
-0.0227387 -0.0162758 0
-0.0151615 -0.0074997 0
-0.00958874 -0.000481408 0
-0.0056711 0.00463406 0
-0.00306521 0.00780674 0
-0.00145467 0.00907525 0
-0.000560727 0.00853514 0
-0.000146277 0.00632232 0
-1.59695e-05 0.00260075 0
-0.000384201 0.00366927 0
-0.00188441 0.0109123 0
-0.0048366 0.0181053 0
-0.0092023 0.0251266 0
-0.0149183 0.0319147 0
-0.0219091 0.0384684 0
-0.0301 0.0448329 0
-0.039427 0.0510732 0
-0.0498421 0.0572383 0
-0.06131 0.0633255 0
-0.0737988 0.0692502 0
-0.079884 0.0748317 0
-0.0868829 0.0797786 0
-0.102135 0.084585 0
-0.118194 0.0886038 0
-0.134898 0.0913122 0
-0.152003 0.0922655 0
-0.169206 0.0910792 0
-0.186155 0.0874372 0
-0.20247 0.0811131 0
-0.217763 0.071992 0
-0.231649 0.0600833 0
-0.243763 0.0455245 0
-0.250605 0.0285707 0
-0.255051 0.00961647 0
-0.259848 -0.00989734 0
-0.261434 -0.030333 0
-0.259587 -0.0507568 0
-0.254111 -0.0703001 0
-0.244857 -0.0880233 0
-0.231777 -0.10296 0
-0.214976 -0.114166 0
-0.194781 -0.120807 0
-0.171797 -0.12226 0
-0.146923 -0.118228 0
-0.133472 -0.108823 0
-0.120658 -0.0946931 0
-0.097243 -0.0823462 0
-0.0760016 -0.0688907 0
-0.057568 -0.0547892 0
-0.042184 -0.0409227 0
-0.0298069 -0.0280782 0
-0.0202049 -0.0168416 0
-0.0130343 -0.00759262 0
-0.00790222 -0.000534803 0
-0.00441109 0.00426537 0
-0.00218793 0.00684184 0
-0.000900053 0.00729925 0
-0.000261942 0.00579096 0
-3.63419e-05 0.00250334 0
-0.000429336 0.0052279 0
-0.0020986 0.0151649 0
-0.00536859 0.0246903 0
-0.0101816 0.0336773 0
-0.0164533 0.0420849 0
-0.0240868 0.0499529 0
-0.0329881 0.0573815 0
-0.0430774 0.0644938 0
-0.0542942 0.0713905 0
-0.0665948 0.0781043 0
-0.0799426 0.0845671 0
-0.0864416 0.0905967 0
-0.0938839 0.0958917 0
-0.110064 0.101013 0
-0.127036 0.105219 0
-0.144619 0.107927 0
-0.162562 0.108651 0
-0.180554 0.10698 0
-0.198248 0.102587 0
-0.215272 0.0952466 0
-0.231252 0.0848569 0
-0.245833 0.0714487 0
-0.258697 0.055187 0
-0.265793 0.0363567 0
-0.270702 0.0153892 0
-0.276744 -0.00666526 0
-0.279702 -0.0297775 0
-0.279409 -0.0530852 0
-0.275638 -0.0757409 0
-0.268159 -0.0968091 0
-0.256777 -0.115281 0
-0.241397 -0.130105 0
-0.222107 -0.140261 0
-0.199264 -0.144859 0
-0.173556 -0.143279 0
-0.159998 -0.135297 0
-0.145964 -0.121243 0
-0.118885 -0.108104 0
-0.0939473 -0.0927532 0
-0.0719828 -0.0760648 0
-0.0533755 -0.0592337 0
-0.0381863 -0.0433047 0
-0.0262351 -0.0290667 0
-0.017182 -0.0170438 0
-0.0106022 -0.00752947 0
-0.00604667 -0.000636003 0
-0.0030819 0.00365613 0
-0.00131472 0.00545765 0
-0.000403495 0.00494027 0
-6.129e-05 0.00231567 0
-0.000467399 0.0070008 0
-0.00227938 0.0199792 0
-0.00581795 0.0321146 0
-0.0110093 0.0432787 0
-0.0177507 0.0534571 0
-0.0259265 0.0627406 0
-0.0354251 0.0712952 0
-0.046151 0.0793133 0
-0.0580316 0.0869564 0
-0.0710143 0.0943006 0
-0.0850569 0.1013 0
-0.0918938 0.107776 0
-0.0996857 0.113421 0
-0.116575 0.118818 0
-0.134216 0.123151 0
-0.152408 0.125782 0
-0.170888 0.12619 0
-0.189338 0.123943 0
-0.20741 0.118707 0
-0.224739 0.110265 0
-0.240972 0.0985382 0
-0.255795 0.0835942 0
-0.268951 0.0656436 0
-0.276057 0.0450206 0
-0.281209 0.0222055 0
-0.288163 -0.00234756 0
-0.292307 -0.0279961 0
-0.293546 -0.0540401 0
-0.291655 -0.0796916 0
-0.286346 -0.104076 0
-0.277296 -0.126205 0
-0.264206 -0.144981 0
-0.246893 -0.159245 0
-0.225397 -0.167866 0
-0.200084 -0.169881 0
-0.187219 -0.164665 0
-0.17247 -0.152085 0
-0.142238 -0.13853 0
-0.113865 -0.121445 0
-0.0883638 -0.102109 0
-0.0663394 -0.0820288 0
-0.0480429 -0.0625568 0
-0.0334162 -0.0447528 0
-0.0221706 -0.0293495 0
-0.0138768 -0.01678 0
-0.00804459 -0.00723578 0
-0.00418117 -0.00073016 0
-0.00182799 0.00284545 0
-0.000579969 0.00367945 0
-9.26653e-05 0.00201055 0
-0.000495217 0.00895941 0
-0.00241224 0.0252825 0
-0.0061501 0.0402729 0
-0.0116244 0.0538018 0
-0.0187191 0.0658862 0
-0.0273041 0.0766747 0
-0.0372524 0.0864077 0
-0.0484545 0.0953561 0
-0.0608249 0.103751 0
-0.0743008 0.111718 0
-0.0888322 0.119241 0
-0.0959135 0.126147 0
-0.103937 0.132127 0
-0.121258 0.137736 0
-0.139259 0.142109 0
-0.157719 0.144561 0
-0.176359 0.144538 0
-0.194852 0.141593 0
-0.212846 0.135392 0
-0.229988 0.125738 0
-0.245954 0.112589 0
-0.260477 0.0960703 0
-0.273376 0.0764573 0
-0.280221 0.0541508 0
-0.285347 0.0296847 0
-0.29274 0.00281712 0
-0.297738 -0.0250865 0
-0.300323 -0.05355 0
-0.300301 -0.0818816 0
-0.297366 -0.109326 0
-0.291105 -0.134983 0
-0.281046 -0.157792 0
-0.266744 -0.176534 0
-0.247897 -0.189901 0
-0.224469 -0.196625 0
-0.213178 -0.195664 0