# vtk DataFile Version 2.0
Presion
ASCII

DATASET STRUCTURED_GRID
DIMENSIONS   50   50   20

POINTS   50000   double
0.00568455   0.00568455   0.025
0.0174023   0.00568455   0.025
0.0298294   0.00568455   0.025
0.0429888   0.00568455   0.025
0.0569012   0.00568455   0.025
0.0715849   0.00568455   0.025
0.0870549   0.00568455   0.025
0.103323   0.00568455   0.025
0.120395   0.00568455   0.025
0.138275   0.00568455   0.025
0.156961   0.00568455   0.025
0.176443   0.00568455   0.025
0.196707   0.00568455   0.025
0.217734   0.00568455   0.025
0.239496   0.00568455   0.025
0.261959   0.00568455   0.025
0.285082   0.00568455   0.025
0.308818   0.00568455   0.025
0.333113   0.00568455   0.025
0.357906   0.00568455   0.025
0.383132   0.00568455   0.025
0.408719   0.00568455   0.025
0.434592   0.00568455   0.025
0.460672   0.00568455   0.025
0.486877   0.00568455   0.025
0.513123   0.00568455   0.025
0.539328   0.00568455   0.025
0.565408   0.00568455   0.025
0.591281   0.00568455   0.025
0.616868   0.00568455   0.025
0.642094   0.00568455   0.025
0.666887   0.00568455   0.025
0.691182   0.00568455   0.025
0.714918   0.00568455   0.025
0.738041   0.00568455   0.025
0.760504   0.00568455   0.025
0.782266   0.00568455   0.025
0.803293   0.00568455   0.025
0.823557   0.00568455   0.025
0.843039   0.00568455   0.025
0.861725   0.00568455   0.025
0.879605   0.00568455   0.025
0.896677   0.00568455   0.025
0.912945   0.00568455   0.025
0.928415   0.00568455   0.025
0.943099   0.00568455   0.025
0.957011   0.00568455   0.025
0.970171   0.00568455   0.025
0.982598   0.00568455   0.025
0.994315   0.00568455   0.025
0.00568455   0.0174023   0.025
0.0174023   0.0174023   0.025
0.0298294   0.0174023   0.025
0.0429888   0.0174023   0.025
0.0569012   0.0174023   0.025
0.0715849   0.0174023   0.025
0.0870549   0.0174023   0.025
0.103323   0.0174023   0.025
0.120395   0.0174023   0.025
0.138275   0.0174023   0.025
0.156961   0.0174023   0.025
0.176443   0.0174023   0.025
0.196707   0.0174023   0.025
0.217734   0.0174023   0.025
0.239496   0.0174023   0.025
0.261959   0.0174023   0.025
0.285082   0.0174023   0.025
0.308818   0.0174023   0.025
0.333113   0.0174023   0.025
0.357906   0.0174023   0.025
0.383132   0.0174023   0.025
0.408719   0.0174023   0.025
0.434592   0.0174023   0.025
0.460672   0.0174023   0.025
0.486877   0.0174023   0.025
0.513123   0.0174023   0.025
0.539328   0.0174023   0.025
0.565408   0.0174023   0.025
0.591281   0.0174023   0.025
0.616868   0.0174023   0.025
0.642094   0.0174023   0.025
0.666887   0.0174023   0.025
0.691182   0.0174023   0.025
0.714918   0.0174023   0.025
0.738041   0.0174023   0.025
0.760504   0.0174023   0.025
0.782266   0.0174023   0.025
0.803293   0.0174023   0.025
0.823557   0.0174023   0.025
0.843039   0.0174023   0.025
0.861725   0.0174023   0.025
0.879605   0.0174023   0.025
0.896677   0.0174023   0.025
0.912945   0.0174023   0.025
0.928415   0.0174023   0.025
0.943099   0.0174023   0.025
0.957011   0.0174023   0.025
0.970171   0.0174023   0.025
0.982598   0.0174023   0.025
0.994315   0.0174023   0.025
0.00568455   0.0298294   0.025
0.0174023   0.0298294   0.025
0.0298294   0.0298294   0.025
0.0429888   0.0298294   0.025
0.0569012   0.0298294   0.025
0.0715849   0.0298294   0.025
0.0870549   0.0298294   0.025
0.103323   0.0298294   0.025
0.120395   0.0298294   0.025
0.138275   0.0298294   0.025
0.156961   0.0298294   0.025
0.176443   0.0298294   0.025
0.196707   0.0298294   0.025
0.217734   0.0298294   0.025
0.239496   0.0298294   0.025
0.261959   0.0298294   0.025
0.285082   0.0298294   0.025
0.308818   0.0298294   0.025
0.333113   0.0298294   0.025
0.357906   0.0298294   0.025
0.383132   0.0298294   0.025
0.408719   0.0298294   0.025
0.434592   0.0298294   0.025
0.460672   0.0298294   0.025
0.486877   0.0298294   0.025
0.513123   0.0298294   0.025
0.539328   0.0298294   0.025
0.565408   0.0298294   0.025
0.591281   0.0298294   0.025
0.616868   0.0298294   0.025
0.642094   0.0298294   0.025
0.666887   0.0298294   0.025
0.691182   0.0298294   0.025
0.714918   0.0298294   0.025
0.738041   0.0298294   0.025
0.760504   0.0298294   0.025
0.782266   0.0298294   0.025
0.803293   0.0298294   0.025
0.823557   0.0298294   0.025
0.843039   0.0298294   0.025
0.861725   0.0298294   0.025
0.879605   0.0298294   0.025
0.896677   0.0298294   0.025
0.912945   0.0298294   0.025
0.928415   0.0298294   0.025
0.943099   0.0298294   0.025
0.957011   0.0298294   0.025
0.970171   0.0298294   0.025
0.982598   0.0298294   0.025
0.994315   0.0298294   0.025
0.00568455   0.0429888   0.025
0.0174023   0.0429888   0.025
0.0298294   0.0429888   0.025
0.0429888   0.0429888   0.025
0.0569012   0.0429888   0.025
0.0715849   0.0429888   0.025
0.0870549   0.0429888   0.025
0.103323   0.0429888   0.025
0.120395   0.0429888   0.025
0.138275   0.0429888   0.025
0.156961   0.0429888   0.025
0.176443   0.0429888   0.025
0.196707   0.0429888   0.025
0.217734   0.0429888   0.025
0.239496   0.0429888   0.025
0.261959   0.0429888   0.025
0.285082   0.0429888   0.025
0.308818   0.0429888   0.025
0.333113   0.0429888   0.025
0.357906   0.0429888   0.025
0.383132   0.0429888   0.025
0.408719   0.0429888   0.025
0.434592   0.0429888   0.025
0.460672   0.0429888   0.025
0.486877   0.0429888   0.025
0.513123   0.0429888   0.025
0.539328   0.0429888   0.025
0.565408   0.0429888   0.025
0.591281   0.0429888   0.025
0.616868   0.0429888   0.025
0.642094   0.0429888   0.025
0.666887   0.0429888   0.025
0.691182   0.0429888   0.025
0.714918   0.0429888   0.025
0.738041   0.0429888   0.025
0.760504   0.0429888   0.025
0.782266   0.0429888   0.025
0.803293   0.0429888   0.025
0.823557   0.0429888   0.025
0.843039   0.0429888   0.025
0.861725   0.0429888   0.025
0.879605   0.0429888   0.025
0.896677   0.0429888   0.025
0.912945   0.0429888   0.025
0.928415   0.0429888   0.025
0.943099   0.0429888   0.025
0.957011   0.0429888   0.025
0.970171   0.0429888   0.025
0.982598   0.0429888   0.025
0.994315   0.0429888   0.025
0.00568455   0.0569012   0.025
0.0174023   0.0569012   0.025
0.0298294   0.0569012   0.025
0.0429888   0.0569012   0.025
0.0569012   0.0569012   0.025
0.0715849   0.0569012   0.025
0.0870549   0.0569012   0.025
0.103323   0.0569012   0.025
0.120395   0.0569012   0.025
0.138275   0.0569012   0.025
0.156961   0.0569012   0.025
0.176443   0.0569012   0.025
0.196707   0.0569012   0.025
0.217734   0.0569012   0.025
0.239496   0.0569012   0.025
0.261959   0.0569012   0.025
0.285082   0.0569012   0.025
0.308818   0.0569012   0.025
0.333113   0.0569012   0.025
0.357906   0.0569012   0.025
0.383132   0.0569012   0.025
0.408719   0.0569012   0.025
0.434592   0.0569012   0.025
0.460672   0.0569012   0.025
0.486877   0.0569012   0.025
0.513123   0.0569012   0.025
0.539328   0.0569012   0.025
0.565408   0.0569012   0.025
0.591281   0.0569012   0.025
0.616868   0.0569012   0.025
0.642094   0.0569012   0.025
0.666887   0.0569012   0.025
0.691182   0.0569012   0.025
0.714918   0.0569012   0.025
0.738041   0.0569012   0.025
0.760504   0.0569012   0.025
0.782266   0.0569012   0.025
0.803293   0.0569012   0.025
0.823557   0.0569012   0.025
0.843039   0.0569012   0.025
0.861725   0.0569012   0.025
0.879605   0.0569012   0.025
0.896677   0.0569012   0.025
0.912945   0.0569012   0.025
0.928415   0.0569012   0.025
0.943099   0.0569012   0.025
0.957011   0.0569012   0.025
0.970171   0.0569012   0.025
0.982598   0.0569012   0.025
0.994315   0.0569012   0.025
0.00568455   0.0715849   0.025
0.0174023   0.0715849   0.025
0.0298294   0.0715849   0.025
0.0429888   0.0715849   0.025
0.0569012   0.0715849   0.025
0.0715849   0.0715849   0.025
0.0870549   0.0715849   0.025
0.103323   0.0715849   0.025
0.120395   0.0715849   0.025
0.138275   0.0715849   0.025
0.156961   0.0715849   0.025
0.176443   0.0715849   0.025
0.196707   0.0715849   0.025
0.217734   0.0715849   0.025
0.239496   0.0715849   0.025
0.261959   0.0715849   0.025
0.285082   0.0715849   0.025
0.308818   0.0715849   0.025
0.333113   0.0715849   0.025
0.357906   0.0715849   0.025
0.383132   0.0715849   0.025
0.408719   0.0715849   0.025
0.434592   0.0715849   0.025
0.460672   0.0715849   0.025
0.486877   0.0715849   0.025
0.513123   0.0715849   0.025
0.539328   0.0715849   0.025
0.565408   0.0715849   0.025
0.591281   0.0715849   0.025
0.616868   0.0715849   0.025
0.642094   0.0715849   0.025
0.666887   0.0715849   0.025
0.691182   0.0715849   0.025
0.714918   0.0715849   0.025
0.738041   0.0715849   0.025
0.760504   0.0715849   0.025
0.782266   0.0715849   0.025
0.803293   0.0715849   0.025
0.823557   0.0715849   0.025
0.843039   0.0715849   0.025
0.861725   0.0715849   0.025
0.879605   0.0715849   0.025
0.896677   0.0715849   0.025
0.912945   0.0715849   0.025
0.928415   0.0715849   0.025
0.943099   0.0715849   0.025
0.957011   0.0715849   0.025
0.970171   0.0715849   0.025
0.982598   0.0715849   0.025
0.994315   0.0715849   0.025
0.00568455   0.0870549   0.025
0.0174023   0.0870549   0.025
0.0298294   0.0870549   0.025
0.0429888   0.0870549   0.025
0.0569012   0.0870549   0.025
0.0715849   0.0870549   0.025
0.0870549   0.0870549   0.025
0.103323   0.0870549   0.025
0.120395   0.0870549   0.025
0.138275   0.0870549   0.025
0.156961   0.0870549   0.025
0.176443   0.0870549   0.025
0.196707   0.0870549   0.025
0.217734   0.0870549   0.025
0.239496   0.0870549   0.025
0.261959   0.0870549   0.025
0.285082   0.0870549   0.025
0.308818   0.0870549   0.025
0.333113   0.0870549   0.025
0.357906   0.0870549   0.025
0.383132   0.0870549   0.025
0.408719   0.0870549   0.025
0.434592   0.0870549   0.025
0.460672   0.0870549   0.025
0.486877   0.0870549   0.025
0.513123   0.0870549   0.025
0.539328   0.0870549   0.025
0.565408   0.0870549   0.025
0.591281   0.0870549   0.025
0.616868   0.0870549   0.025
0.642094   0.0870549   0.025
0.666887   0.0870549   0.025
0.691182   0.0870549   0.025
0.714918   0.0870549   0.025
0.738041   0.0870549   0.025
0.760504   0.0870549   0.025
0.782266   0.0870549   0.025
[...]
POINT_DATA   50000
SCALARS Presion double
LOOKUP_TABLE   Presion

0 0 0 0 0 0 0 0 0 0 0 0 0 0 0 0 0 0 0 0 0 0 0 0 0 0 0 0 0 0 0 0 0 0 0 0 0 0 0 0 0 0 0 0 0 0 0 0 0 0 -0.000322419 -0.000360224 -0.000422532 -0.000490044 -0.000556937 -0.000620327 -0.000677917 -0.000727731 -0.000768331 -0.000799147 -0.000820693 -0.000835176 -0.000942951 -0.000925719 -0.000874537 -0.000793314 -0.000685603 -0.000554267 -0.00040193 -0.000231481 -4.64863e-05 0.000148565 0.000348333 0.000546964 0.000766728 0.000940623 0.00108233 0.00118353 0.00123776 0.00124153 0.00119498 0.0011021 0.000970579 0.000811216 0.000636988 0.000462194 0.000350267 0.00017727 8.05594e-06 -0.000147635 -0.0002829 -0.000393471 -0.000477108 -0.000533067 -0.000561691 -0.000564112 -0.000542139 -0.000498711 -0.000440561 -0.000389765 -0.000381232 -0.000386123 -0.000419602 -0.000466915 -0.00051945 -0.000571982 -0.000620923 -0.000663599 -0.000698039 -0.00072291 -0.00073715 -0.000740892 -0.000887289 -0.000861419 -0.000808468 -0.000729216 -0.000625722 -0.000500217 -0.000355082 -0.000193128 -1.79261e-05 0.000165941 0.000352715 0.000534983 0.000749618 0.00090887 0.00103751 0.0011269 0.0011709 0.00116642 0.00111388 0.00101741 0.000884515 0.000725414 0.000551771 0.000376248 0.00029603 0.000123192 -4.17513e-05 -0.000191613 -0.00032093 -0.000426319 -0.000506173 -0.000560315 -0.000589722 -0.000596441 -0.00058381 -0.000557278 -0.000526264 -0.000507029 -0.000378563 -0.00038175 -0.00040456 -0.000440107 -0.000482077 -0.000525484 -0.000566491 -0.000602135 -0.000630121 -0.000648604 -0.000655671 -0.000651552 -0.000837919 -0.000804659 -0.000749511 -0.000671755 -0.000572294 -0.000452684 -0.000314928 -0.000161623 3.78313e-06 0.000176711 0.000351127 0.000518791 0.00072826 0.000875621 0.000993601 0.00107339 0.00110891 0.00109718 0.00103874 0.000937713 0.000801473 0.000639826 0.000463681 0.000285547 0.000239532 6.46213e-05 -9.89976e-05 -0.000245711 -0.000371335 -0.000473418 -0.000551069 -0.000604687 -0.000635775 -0.000646884 -0.000641736 -0.000625503 -0.00060496 -0.000587638 -0.000340586 -0.000352574 -0.000375664 -0.000407147 -0.000443273 -0.000480285 -0.000514856 -0.0005442 -0.000566022 -0.000578315 -0.000578906 -0.000568956 -0.00079525 -0.000756337 -0.00069931 -0.000622984 -0.000527533 -0.000413913 -0.000283686 -0.000139111 1.66142e-05 0.000179053 0.000342119 0.000497191 0.000700449 0.000838986 0.00094899 0.00102157 0.00105053 0.00103277 0.000968704 0.000862344 0.000720948 0.000554131 0.000372538 0.000189365 0.000179249 -3.71981e-08 -0.000165135 -0.000311354 -0.000435579 -0.00053627 -0.000613235 -0.000667389 -0.000700557 -0.000715357 -0.000715124 -0.000703772 -0.000685338 -0.000662976 -0.000282968 -0.000307073 -0.000336106 -0.00036894 -0.000403424 -0.000436981 -0.000467048 -0.000491315 -0.000507772 -0.000514581 -0.000509722 -0.000495647 -0.000761115 -0.00071833 -0.000660209 -0.000585626 -0.000494374 -0.000386934 -0.000264406 -0.000128624 1.75997e-05 0.00017014 0.000323102 0.000467776 0.000663038 0.00079594 0.000900851 0.000968822 0.000993402 0.000971131 0.000902062 0.000789949 0.000641915 0.000467561 0.000277663 8.66895e-05 0.00011389 -7.23812e-05 -0.000241741 -0.000390083 -0.000515207 -0.000616418 -0.000694175 -0.000749814 -0.000785314 -0.000803122 -0.000805973 -0.000796648 -0.000777577 -0.000750354 -0.000216444 -0.000253622 -0.000291353 -0.000328919 -0.000364942 -0.00039766 -0.000425226 -0.00044591 -0.000458167 -0.000460557 -0.000451481 -0.000434845 -0.000738571 -0.000693622 -0.000635487 -0.000563293 -0.000476684 -0.000375782 -0.000261237 -0.000134388 2.46452e-06 0.000145693 0.000289856 0.000426366 0.000611454 0.000741882 0.000844688 0.000910893 0.000933641 0.000908862 0.000835984 0.00071829 0.000562679 0.000378823 0.0001779 -2.38965e-05 4.21599e-05 -0.000154041 -0.000330461 -0.000483496 -0.000611796 -0.000715453 -0.00079552 -0.000853669 -0.000891951 -0.000912598 -0.000917854 -0.00090979 -0.000890116 -0.000860056 -0.000149916 -0.000200359 -0.00024809 -0.000292359 -0.000332099 -0.000366052 -0.000392936 -0.000411586 -0.000420998 -0.000420255 -0.000408321 -0.000390606 -0.000731907 -0.000686457 -0.0006296 -0.000560756 -0.000479538 -0.000385807 -0.000279783 -0.000162261 -3.49063e-05 9.93456e-05 0.000235793 0.000366162 0.000539019 0.000669879 0.000773536 0.000841056 0.000865038 0.000840512 0.000765939 0.000643807 0.000480581 0.00028595 7.16032e-05 -0.000144177 -3.74621e-05 -0.000246751 -0.000432966 -0.000593166 -0.000726884 -0.000834974 -0.000919014 -0.000980957 -0.0010229 -0.00104692 -0.00105496 -0.00104873 -0.0010297 -0.000999101 -9.20293e-05 -0.000155678 -0.000213983 -0.000266038 -0.000310887 -0.000347584 -0.00037529 -0.000393352 -0.000401311 -0.000398819 -0.000385452 -0.000368102 -0.000746784 -0.000702527 -0.000648458 -0.000584266 -0.000509595 -0.000424105 -0.000327622 -0.00022036 -0.000103243 2.16958e-05 0.000150813 0.0002764 0.000435909 0.00056943 0.000676607 0.000748727 0.0007777 0.000757315 0.000684598 0.000560757 0.000391398 0.000185959 -4.34505e-05 -0.00027621 -0.000127042 -0.000352466 -0.000550912 -0.00072052 -0.000861844 -0.000976468 -0.00106642 -0.00113385 -0.00118091 -0.00120957 -0.0012216 -0.00121859 -0.00120195 -0.00117303 -5.19969e-05 -0.0001287 -0.000197776 -0.000258158 -0.000308938 -0.000349405 -0.000379097 -0.000397829 -0.000405667 -0.000402823 -0.000389476 -0.000373948 -0.000790463 -0.000749233 -0.000699759 -0.000641971 -0.000575577 -0.000500101 -0.000415017 -0.000319956 -0.000215005 -0.000101083 1.95966e-05 0.000140276 0.000287504 0.000424457 0.000537036 0.00061707 0.00065565 0.000644907 0.000579806 0.000459525 0.000288077 7.40522e-05 -0.000170411 -0.000422269 -0.000229793 -0.00047359 -0.000685908 -0.000866692 -0.00101769 -0.00114114 -0.00123933 -0.00131453 -0.00136881 -0.00140409 -0.00142204 -0.00142419 -0.00141197 -0.00138684 -4.00747e-05 -0.000129636 -0.000209472 -0.000278386 -0.000335531 -0.000380425 -0.000412967 -0.000433425 -0.00044237 -0.000440554 -0.000428721 -0.000416548 -0.00087209 -0.000836006 -0.000793389 -0.000744409 -0.000688892 -0.000626314 -0.000555882 -0.000476689 -0.000387931 -0.000289206 -0.000180869 -6.81383e-05 7.18003e-05 0.000210128 0.00032828 0.0004191 0.000472796 0.000479379 0.000430924 0.000323473 0.000158243 -5.81286e-05 -0.000314309 -0.000585062 -0.000351238 -0.000613456 -0.000839582 -0.00103239 -0.0011949 -0.00132971 -0.00143905 -0.00152499 -0.00158942 -0.00163407 -0.00166051 -0.00167024 -0.00166472 -0.0016455 -6.78593e-05 -0.000170038 -0.000260487 -0.000337927 -0.000401616 -0.000451335 -0.000487371 -0.000510454 -0.000521662 -0.000522269 -0.000513546 -0.000506449 -0.00100301 -0.00097468 -0.000941887 -0.000905103 -0.000864385 -0.000819318 -0.000769015 -0.00071216 -0.000647084 -0.000571901 -0.000484656 -0.000388142 -0.000244532 -0.000111931 8.61502e-06 0.000111622 0.00018653 0.000220819 0.000202647 0.000123363 -2.04754e-05 -0.000226024 -0.000484298 -0.000768689 -0.000501395 -0.000777356 -0.00101397 -0.00121798 -0.00139338 -0.00154238 -0.0016665 -0.00176711 -0.00184556 -0.00190323 -0.0019415 -0.00196177 -0.00196552 -0.00195441 -0.000148451 -0.000262938 -0.000363743 -0.000449562 -0.000519814 -0.000574604 -0.000614654 -0.000641198 -0.000655841 -0.000660381 -0.0006566 -0.000656675 -0.0011971 -0.00117988 -0.00116095 -0.00114121 -0.00112119 -0.00110085 -0.00107954 -0.00105582 -0.00102733 -0.000990632 -0.000941055 -0.000877698 -0.000711835 -0.000600365 -0.000486602 -0.000373429 -0.000271632 -0.000196425 -0.000164676 -0.000191773 -0.000288505 -0.000458708 -0.000698323 -0.000981315 -0.000698742 -0.000974749 -0.00121278 -0.00142426 -0.00161292 -0.00177915 -0.00192252 -0.00204284 -0.00214037 -0.00221579 -0.00227009 -0.00230453 -0.00232057 -0.00231999 -0.000296488 -0.000422861 -0.000533654 -0.000627598 -0.000704344 -0.000764391 -0.000808968 -0.000839871 -0.00085928 -0.00086955 -0.00087299 -0.000882967 -0.00147098 -0.00146936 -0.00146986 -0.00147413 -0.00148354 -0.00149893 -0.00152042 -0.00154697 -0.00157594 -0.00160249 -0.00161894 -0.00161896 -0.00140489 -0.00134252 -0.00125457 -0.00113989 -0.00100813 -0.00087675 -0.000768562 -0.000708073 -0.000716981 -0.000809959 -0.00099191 -0.0012413 -0.00097711 -0.00122374 -0.00144455 -0.00165471 -0.00185488 -0.00204101 -0.00220875 -0.00235496 -0.00247792 -0.00257707 -0.00265271 -0.00270578 -0.00273772 -0.00275041 -0.000528007 -0.000665669 -0.000785944 -0.000887668 -0.000970803 -0.00103633 -0.00108606 -0.00112243 -0.00114829 -0.0011666 -0.00118027 -0.00120387 -0.00184413 -0.00186414 -0.00189177 -0.00192991 -0.00198138 -0.00204868 -0.00213356 -0.00223626 -0.00235459 -0.00248272 -0.00260994 -0.00272214 -0.00243108 -0.00246298 -0.00243456 -0.00233821 -0.00217977 -0.0019774 -0.00176008 -0.00156371 -0.00142502 -0.00137492 -0.00143304 -0.00158953 -0.0013968 -0.00155948 -0.00172913 -0.00192035 -0.00212564 -0.00233243 -0.00252943 -0.00270847 -0.00286441 -0.00299456 -0.00309805 -0.00317524 -0.00322745 -0.00325667 -0.000860099 -0.0010082 -0.00113727 -0.00124634 -0.00133576 -0.00140709 -0.00146284 -0.00150618 -0.00154072 -0.00157016 -0.00159814 -0.00164051 -0.00233865 -0.00238832 -0.00245354 -0.00253913 -0.00265031 -0.00279236 -0.00296994 -0.00318586 -0.00343949 -0.00372472 -0.00402791 -0.00432426 -0.00393629 -0.00412841 -0.00421258 -0.00417068 -0.00400042 -0.00371754 -0.00335606 -0.00296453 -0.00259852 -0.00231123 -0.00214427 -0.00211122 -0.00206029 -0.00204778 -0.00210884 -0.00224816 -0.00244262 -0.0026655 -0.0028943 -0.0031126 -0.00330964 -0.00347917 -0.00361824 -0.00372623 -0.0038041 -0.00385395 -0.00131027 -0.00146761 -0.00160457 -0.00172044 -0.00181609 -0.00189375 -0.00195672 -0.00200907 -0.00205528 -0.00209999 -0.00214776 -0.00221587 -0.00297849 -0.00306825 -0.00318481 -0.0033359 -0.00353042 -0.00377797 -0.00408781 -0.00446701 -0.0049179 -0.00543488 -0.00600151 -0.00657868 -0.00610274 -0.00654184 -0.00681309 -0.00688184 -0.00673172 -0.00637127 -0.00583646 -0.00518764 -0.00450128 -0.00385799 -0.00332911 -0.00296843 -0.0031291 -0.00280285 -0.00266357 -0.00269249 -0.00284235 -0.00306547 -0.00332228 -0.00358339 -0.0038289 -0.00404663 -0.00423009 -0.00437683 -0.00448707 -0.00456288 -0.00189552 -0.00206046 -0.00220411 -0.00232612 -0.00242797 -0.00251271 -0.00258456 -0.0026486 -0.00271041 -0.00277575 -0.00285043 -0.00295338 -0.00378797 -0.0039309 -0.0041161 -0.00435555 -0.00466343 -0.00505555 -0.00554783 -0.00615349 -0.00687917 -0.00772025 -0.00865698 -0.00963182 -0.00913087 -0.00991817 -0.0104687 -0.0107236 -0.0106458 -0.0102309 -0.0095116 -0.00855654 -0.00746171 -0.00633718 -0.00529011 -0.00443498 -0.00483001 -0.00400133 -0.00352487 -0.00334676 -0.00338926 -0.00357683 -0.00384547 -0.00414617 -0.00444453 -0.00471858 -0.00495586 -0.00515059 -0.00530153 -0.00541036 -0.00263099 -0.00280141 -0.00295021 -0.00307754 -0.00318563 -0.00327842 -0.00336124 -0.00344036 -0.00352263 -0.00361525 -0.00372564 -0.00387474 -0.00478944 -0.00500104 -0.00527554 -0.00563064 -0.00608769 -0.00667082 -0.00740466 -0.00831033 -0.00939954 -0.0106681 -0.0120909 -0.0135876 -0.0131986 -0.0144358 -0.0153635 -0.0158908 -0.0159547 -0.0155324 -0.0146481 -0.0133722 -0.0118151 -0.0101132 -0.00841172 -0.00690509 -0.00743142 -0.00587787 -0.00487978 -0.0043504 -0.00418262 -0.00426879 -0.00451292 -0.00483783 -0.00518707 -0.00552306 -0.00582334 -0.00607639 -0.00627812 -0.00642925 -0.00352847 -0.00370169 -0.00385374 -0.00398539 -0.00409972 -0.00420174 -0.00429801 -0.00439615 -0.00450457 -0.0046322 -0.0047885 -0.00499689 -0.0059999 -0.00629745 -0.00668426 -0.00718537 -0.00783116 -0.00865604 -0.00969517 -0.0109784 -0.0125222 -0.0143203 -0.0163379 -0.0184677 -0.0184 -0.02017 -0.0215586 -0.0224385 -0.0227185 -0.0223556 -0.0213615 -0.0198024 -0.0177938 -0.0154913 -0.0130743 -0.0108271 -0.0111766 -0.00868845 -0.00695543 -0.00588599 -0.0053592 -0.00523923 -0.00539369 -0.00570856 -0.00609583 -0.00649414 -0.00686497 -0.00718715 -0.00745149 -0.00765658 -0.00459458 -0.0047674 -0.00492041 -0.00505516 -0.00517567 -0.00528815 -0.00540052 -0.00552196 -0.00566264 -0.00583357 -0.00604674 -0.00632847 -0.00742704 -0.00782829 -0.00835093 -0.00902883 -0.00990299 -0.0110196 -0.0124252 -0.014158 -0.0162367 -0.0186489 -0.021343 -0.0241809 -0.0246825 -0.0270304 -0.0289284 -0.0302135 -0.0307698 -0.0305375 -0.0295164 -0.0277645 -0.0253945 -0.0225692 -0.019493 -0.0165315 -0.0161935 -0.0126444 -0.00998122 -0.00816228 -0.00708849 -0.00661521 -0.00657865 -0.00682297 -0.00721881 -0.00767078 -0.00811587 -0.00851732 -0.00885722 -0.00913015 -0.00582912 -0.0059979 -0.00614927 -0.00628562 -0.00641206 -0.00653607 -0.00666707 -0.00681593 -0.0069948 -0.00721708 -0.00749766 -0.00786625 -0.00906515 -0.00958637 -0.0102662 -0.0111484 -0.0122857 -0.0137364 -0.0155581 -0.0177953 -0.0204652 -0.0235423 -0.0269508 -0.0305182 -0.0318127 -0.0347364 -0.037143 -0.0388416 -0.0397008 -0.039653 -0.0386925 -0.0368697 -0.0342894 -0.03111 -0.0275459 -0.0240096 -0.0224296 -0.0178402 -0.0141326 -0.0113787 -0.00955436 -0.00854561 -0.00817829 -0.00825925 -0.00861149 -0.00909471 -0.00961078 -0.0100991 -0.0105275 -0.0108837 -0.00722377 -0.0073846 -0.00753146 -0.00766764 -0.00779942 -0.00793563 -0.00808721 -0.00826686 -0.00848886 -0.00876916 -0.0091259 -0.00959237 -0.0108919 -0.0115456 -0.0123987 -0.0135053 -0.0149298 -0.0167424 -0.0190096 -0.021779 -0.0250606 -0.0288096 -0.0329182 -0.0371785 -0.0394005 -0.0428535 -0.0457189 -0.0477912 -0.0489369 -0.049093 -0.0482577 -0.0464801 -0.0438558 -0.0405305 -0.0367095 -0.0327982 -0.0296472 -0.0242003 -0.0194658 -0.0156697 -0.0129177 -0.0111798 -0.0103119 -0.0101036 -0.0103328 -0.0108064 -0.0113795 -0.011957 -0.0124854 -0.0129405 -0.00876142 -0.00891038 -0.00904972 -0.00918373 -0.00931981 -0.00946815 -0.00964125 -0.00985363 -0.0101217 -0.0104642 -0.0109024 -0.0114733 -0.0128668 -0.0136594 -0.0146934 -0.0160331 -0.0177537 -0.0199354 -0.0226508 -0.0259466 -0.0298205 -0.0342028 -0.0389489 -0.0438168 -0.0469782 -0.0508821 -0.0541221 -0.0564926 -0.0578713 -0.0582118 -0.0575261 -0.0558697 -0.053333 -0.0500441 -0.0461827 -0.0420903 -0.0374613 -0.0314577 -0.0258596 -0.0210391 -0.0172604 -0.014629 -0.0130838 -0.0124362 -0.0124363 -0.012838 -0.0134399 -0.0141012 -0.0147371 -0.0153059 -0.0104165 -0.01055 -0.0106789 -0.0108085 -0.0109473 -0.0111067 -0.0113007 -0.0115457 -0.0118601 -0.0122651 -0.0127853 -0.0134609 -0.0149329 -0.0158626 -0.0170745 -0.0186416 -0.0206485 -0.023183 -0.0263207 -0.0301032 -0.0345123 -0.0394509 -0.0447373 -0.0500979 -0.0540989 -0.0583606 -0.0618779 -0.0644568 -0.0659962 -0.0664735 -0.0659218 -0.0644097 -0.062028 -0.0588889 -0.0551365 -0.0510153 -0.0453929 -0.0391733 -0.0329922 -0.0273076 -0.0225261 -0.0189147 -0.0165466 -0.0153072 -0.0149543 -0.0152016 -0.0157885 -0.0165179 -0.0172632 -0.0179575 -0.0121565 -0.0122714 -0.0123873 -0.0125101 -0.0126494 -0.0128177 -0.0130304 -0.0133051 -0.0136624 -0.0141257 -0.0147227 -0.0154956 -0.0170203 -0.0180763 -0.0194507 -0.0212244 -0.0234889 -0.0263369 -0.0298442 -0.0340448 -0.0389036 -0.0442963 -0.050008 -0.0557382 -0.0604109 -0.0649364 -0.0686401 -0.0713447 -0.0729741 -0.0735314 -0.073073 -0.0716845 -0.0694635 -0.0665119 -0.0629406 -0.0588973 -0.0529333 -0.0468042 -0.0403759 -0.0341059 -0.0284836 -0.0239227 -0.0206595 -0.0187057 -0.0178764 -0.0178748 -0.0183888 -0.0191595 -0.0200088 -0.0208363 -0.0139442 -0.0140385 -0.0141392 -0.0142529 -0.01439 -0.0145638 -0.0147906 -0.0150895 -0.0154825 -0.0159949 -0.0166567 -0.0175119 -0.0190531 -0.0202147 -0.0217248 -0.0236698 -0.026146 -0.0292489 -0.0330525 -0.0375827 -0.0427882 -0.0485221 -0.0545422 -0.0605275 -0.0656842 -0.070389 -0.0742057 -0.0769737 -0.0786388 -0.0792265 -0.0788149 -0.0775075 -0.0754131 -0.0726322 -0.0692543 -0.0653572 -0.0596243 -0.0538089 -0.0474515 -0.040931 -0.0347403 -0.0293857 -0.0252588 -0.0225314 -0.0211277 -0.020784 -0.0211591 -0.0219352 -0.0228757 -0.0238383 -0.0157409 -0.0158137 -0.0158978 -0.0160004 -0.0161321 -0.0163068 -0.0165414 -0.0168558 -0.0172732 -0.0178205 -0.0185292 -0.0194439 -0.0209564 -0.0221943 -0.0238026 -0.0258717 -0.028501 -0.0317867 -0.0358005 -0.0405611 -0.0460049 -0.0519681 -0.0581894 -0.0643327 -0.069799 -0.0746126 -0.0784903 -0.0812831 -0.0829512 -0.0835365 -0.0831338 -0.0818634 -0.0798477 -0.0771946 -0.0739874 -0.0702714 -0.0651289 -0.0597504 -0.0537048 -0.0472492 -0.0408093 -0.0349115 -0.0300578 -0.0265812 -0.0245536 -0.0237934 -0.0239647 -0.0247046 -0.025717 -0.0268116 -0.0175098 -0.0175615 -0.0176287 -0.0177184 -0.0178414 -0.0180115 -0.0182457 -0.0185643 -0.0189912 -0.0195542 -0.0202863 -0.0212314 -0.022663 -0.0239405 -0.025602 -0.0277402 -0.0304558 -0.0338454 -0.0379786 -0.0428692 -0.0484462 -0.0545361 -0.0608662 -0.0670906 -0.0727174 -0.0775854 -0.0814913 -0.0842902 -0.0859484 -0.0865164 -0.0861002 -0.0848334 -0.0828533 -0.0802807 -0.0772067 -0.0736758 -0.0692656 -0.0643547 -0.0587564 -0.0526011 -0.0462058 -0.04005 -0.0346808 -0.0305605 -0.0279203 -0.0267015 -0.0266152 -0.0272773 -0.0283387 -0.0295574 -0.0192189 -0.0192514 -0.0193022 -0.0193782 -0.0194891 -0.0196484 -0.0198725 -0.0201816 -0.0205997 -0.0211554 -0.0218826 -0.0228239 -0.0241192 -0.0253944 -0.0270592 -0.0292074 -0.0319405 -0.0353548 -0.0395188 -0.0444448 -0.0500596 -0.0561869 -0.0625501 -0.0687977 -0.074459 -0.0793422 -0.0832575 -0.086058 -0.0877076 -0.0882581 -0.0878208 -0.0865392 -0.0845641 -0.0820322 -0.0790505 -0.0756834 -0.0719965 -0.0675137 -0.0623964 -0.0566693 -0.0505321 -0.0443738 -0.0387235 -0.0341184 -0.0309322 -0.0292508 -0.0288711 -0.0294191 -0.0305058 -0.0318385 -0.0208434 -0.0208602 -0.0208966 -0.0209583 -0.0210542 -0.021196 -0.0213991 -0.021683 -0.0220715 -0.0225935 -0.0232839 -0.0241838 -0.0252873 -0.0265154 -0.0281321 -0.0302316 -0.0329158 -0.0362807 -0.0403955 -0.0452735 -0.0508441 -0.0569345 -0.0632707 -0.069499 -0.0750853 -0.079958 -0.0838735 -0.0866788 -0.0883294 -0.0888718 -0.0884175 -0.0871159 -0.0851287 -0.0826078 -0.0796789 -0.0764359 -0.0733898 -0.069251 -0.0645684 -0.0592936 -0.0535234 -0.0475414 -0.0418132 -0.0368946 -0.0332627 -0.0311467 -0.0304573 -0.0308627 -0.0319529 -0.0333896 -0.0223677 -0.0223735 -0.0223985 -0.0224467 -0.0225247 -0.0226421 -0.0228123 -0.0230536 -0.0233893 -0.023849 -0.0244682 -0.0252875 -0.0261464 -0.027282 -0.0288006 -0.0307968 -0.0333722 -0.0366236 -0.0406214 -0.0453827 -0.0508431 -0.0568377 -0.0631008 -0.0692804 -0.0746924 -0.0795396 -0.0834529 -0.0862704 -0.0879354 -0.0884843 -0.0880242 -0.0867064 -0.0846999 -0.0821688 -0.0792559 -0.076085 -0.0735798 -0.0696768 -0.06533 -0.0604484 -0.0550519 -0.0493264 -0.0436533 -0.0385618 -0.0345871 -0.0320806 -0.0310793 -0.0313209 -0.0323962 -0.033929 -0.0237852 -0.0237864 -0.0238043 -0.0238405 -0.0238982 -0.0239839 -0.0241084 -0.024288 -0.024546 -0.0249125 -0.0254251 -0.0261239 -0.0266911 -0.0276904 -0.029065 -0.03091 -0.0333271 -0.0364137 -0.0402423 -0.0448349 -0.0501357 -0.0559916 -0.0621483 -0.0682601 -0.073406 -0.0782223 -0.0821357 -0.0849752 -0.0866695 -0.0872419 -0.086791 -0.0854657 -0.0834384 -0.0808811 -0.0779488 -0.0747896 -0.0727354 -0.0689495 -0.0648085 -0.0602025 -0.0551017 -0.0496148 -0.0440391 -0.0388526 -0.0346085 -0.0317502 -0.0304375 -0.0304973 -0.0315415 -0.0331657 -0.025099 -0.0251034 -0.0251198 -0.0251461 -0.0251813 -0.0252275 -0.0252919 -0.0253893 -0.0255427 -0.025784 -0.0261538 -0.0266936 -0.0269288 -0.0277515 -0.0289426 -0.0305977 -0.0328191 -0.0357043 -0.0393283 -0.0437184 -0.048828 -0.0545174 -0.0605467 -0.066581 -0.0713764 -0.0761642 -0.0800848 -0.082958 -0.0846975 -0.0853114 -0.0848864 -0.0835648 -0.0815176 -0.0789196 -0.0759321 -0.0727186 -0.0710397 -0.0672481 -0.0631656 -0.058679 -0.0537318 -0.0483797 -0.0428506 -0.0375655 -0.0330702 -0.0298705 -0.0282356 -0.0280912 -0.0290877 -0.030802 -0.0263206 -0.0263381 -0.02636 -0.0263793 -0.0263893 -0.0263866 -0.0263747 -0.0263667 -0.0263867 -0.0264698 -0.0266612 -0.0270058 -0.0268765 -0.0274878 -0.0284638 -0.0299013 -0.0319027 -0.0345658 -0.037967 -0.0421384 -0.0470425 -0.0525529 -0.0584455 -0.0644008 -0.0687713 -0.0735393 -0.0774786 -0.0803997 -0.0822015 -0.0828754 -0.0824935 -0.0811876 -0.0791222 -0.0764692 -0.0733893 -0.0700508 -0.0686766 -0.0647538 -0.0605717 -0.0560221 -0.051039 -0.0456478 -0.0400282 -0.0345533 -0.0297