# vtk DataFile Version 2.0
Presion
ASCII

DATASET STRUCTURED_GRID
DIMENSIONS   50   50   20

POINTS   50000   double
0.00568455   0.00568455   0.025
0.0174023   0.00568455   0.025
0.0298294   0.00568455   0.025
0.0429888   0.00568455   0.025
0.0569012   0.00568455   0.025
0.0715849   0.00568455   0.025
0.0870549   0.00568455   0.025
0.103323   0.00568455   0.025
0.120395   0.00568455   0.025
0.138275   0.00568455   0.025
0.156961   0.00568455   0.025
0.176443   0.00568455   0.025
0.196707   0.00568455   0.025
0.217734   0.00568455   0.025
0.239496   0.00568455   0.025
0.261959   0.00568455   0.025
0.285082   0.00568455   0.025
0.308818   0.00568455   0.025
0.333113   0.00568455   0.025
0.357906   0.00568455   0.025
0.383132   0.00568455   0.025
0.408719   0.00568455   0.025
0.434592   0.00568455   0.025
0.460672   0.00568455   0.025
0.486877   0.00568455   0.025
0.513123   0.00568455   0.025
0.539328   0.00568455   0.025
0.565408   0.00568455   0.025
0.591281   0.00568455   0.025
0.616868   0.00568455   0.025
0.642094   0.00568455   0.025
0.666887   0.00568455   0.025
0.691182   0.00568455   0.025
0.714918   0.00568455   0.025
0.738041   0.00568455   0.025
0.760504   0.00568455   0.025
0.782266   0.00568455   0.025
0.803293   0.00568455   0.025
0.823557   0.00568455   0.025
0.843039   0.00568455   0.025
0.861725   0.00568455   0.025
0.879605   0.00568455   0.025
0.896677   0.00568455   0.025
0.912945   0.00568455   0.025
0.928415   0.00568455   0.025
0.943099   0.00568455   0.025
0.957011   0.00568455   0.025
0.970171   0.00568455   0.025
0.982598   0.00568455   0.025
0.994315   0.00568455   0.025
0.00568455   0.0174023   0.025
0.0174023   0.0174023   0.025
0.0298294   0.0174023   0.025
0.0429888   0.0174023   0.025
0.0569012   0.0174023   0.025
0.0715849   0.0174023   0.025
0.0870549   0.0174023   0.025
0.103323   0.0174023   0.025
0.120395   0.0174023   0.025
0.138275   0.0174023   0.025
0.156961   0.0174023   0.025
0.176443   0.0174023   0.025
0.196707   0.0174023   0.025
0.217734   0.0174023   0.025
0.239496   0.0174023   0.025
0.261959   0.0174023   0.025
0.285082   0.0174023   0.025
0.308818   0.0174023   0.025
0.333113   0.0174023   0.025
0.357906   0.0174023   0.025
0.383132   0.0174023   0.025
0.408719   0.0174023   0.025
0.434592   0.0174023   0.025
0.460672   0.0174023   0.025
0.486877   0.0174023   0.025
0.513123   0.0174023   0.025
0.539328   0.0174023   0.025
0.565408   0.0174023   0.025
0.591281   0.0174023   0.025
0.616868   0.0174023   0.025
0.642094   0.0174023   0.025
0.666887   0.0174023   0.025
0.691182   0.0174023   0.025
0.714918   0.0174023   0.025
0.738041   0.0174023   0.025
0.760504   0.0174023   0.025
0.782266   0.0174023   0.025
0.803293   0.0174023   0.025
0.823557   0.0174023   0.025
0.843039   0.0174023   0.025
0.861725   0.0174023   0.025
0.879605   0.0174023   0.025
0.896677   0.0174023   0.025
0.912945   0.0174023   0.025
0.928415   0.0174023   0.025
0.943099   0.0174023   0.025
0.957011   0.0174023   0.025
0.970171   0.0174023   0.025
0.982598   0.0174023   0.025
0.994315   0.0174023   0.025
0.00568455   0.0298294   0.025
0.0174023   0.0298294   0.025
0.0298294   0.0298294   0.025
0.0429888   0.0298294   0.025
0.0569012   0.0298294   0.025
0.0715849   0.0298294   0.025
0.0870549   0.0298294   0.025
0.103323   0.0298294   0.025
0.120395   0.0298294   0.025
0.138275   0.0298294   0.025
0.156961   0.0298294   0.025
0.176443   0.0298294   0.025
0.196707   0.0298294   0.025
0.217734   0.0298294   0.025
0.239496   0.0298294   0.025
0.261959   0.0298294   0.025
0.285082   0.0298294   0.025
0.308818   0.0298294   0.025
0.333113   0.0298294   0.025
0.357906   0.0298294   0.025
0.383132   0.0298294   0.025
0.408719   0.0298294   0.025
0.434592   0.0298294   0.025
0.460672   0.0298294   0.025
0.486877   0.0298294   0.025
0.513123   0.0298294   0.025
0.539328   0.0298294   0.025
0.565408   0.0298294   0.025
0.591281   0.0298294   0.025
0.616868   0.0298294   0.025
0.642094   0.0298294   0.025
0.666887   0.0298294   0.025
0.691182   0.0298294   0.025
0.714918   0.0298294   0.025
0.738041   0.0298294   0.025
0.760504   0.0298294   0.025
0.782266   0.0298294   0.025
0.803293   0.0298294   0.025
0.823557   0.0298294   0.025
0.843039   0.0298294   0.025
0.861725   0.0298294   0.025
0.879605   0.0298294   0.025
0.896677   0.0298294   0.025
0.912945   0.0298294   0.025
0.928415   0.0298294   0.025
0.943099   0.0298294   0.025
0.957011   0.0298294   0.025
0.970171   0.0298294   0.025
0.982598   0.0298294   0.025
0.994315   0.0298294   0.025
0.00568455   0.0429888   0.025
0.0174023   0.0429888   0.025
0.0298294   0.0429888   0.025
0.0429888   0.0429888   0.025
0.0569012   0.0429888   0.025
0.0715849   0.0429888   0.025
0.0870549   0.0429888   0.025
0.103323   0.0429888   0.025
0.120395   0.0429888   0.025
0.138275   0.0429888   0.025
0.156961   0.0429888   0.025
0.176443   0.0429888   0.025
0.196707   0.0429888   0.025
0.217734   0.0429888   0.025
0.239496   0.0429888   0.025
0.261959   0.0429888   0.025
0.285082   0.0429888   0.025
0.308818   0.0429888   0.025
0.333113   0.0429888   0.025
0.357906   0.0429888   0.025
0.383132   0.0429888   0.025
0.408719   0.0429888   0.025
0.434592   0.0429888   0.025
0.460672   0.0429888   0.025
0.486877   0.0429888   0.025
0.513123   0.0429888   0.025
0.539328   0.0429888   0.025
0.565408   0.0429888   0.025
0.591281   0.0429888   0.025
0.616868   0.0429888   0.025
0.642094   0.0429888   0.025
0.666887   0.0429888   0.025
0.691182   0.0429888   0.025
0.714918   0.0429888   0.025
0.738041   0.0429888   0.025
0.760504   0.0429888   0.025
0.782266   0.0429888   0.025
0.803293   0.0429888   0.025
0.823557   0.0429888   0.025
0.843039   0.0429888   0.025
0.861725   0.0429888   0.025
0.879605   0.0429888   0.025
0.896677   0.0429888   0.025
0.912945   0.0429888   0.025
0.928415   0.0429888   0.025
0.943099   0.0429888   0.025
0.957011   0.0429888   0.025
0.970171   0.0429888   0.025
0.982598   0.0429888   0.025
0.994315   0.0429888   0.025
0.00568455   0.0569012   0.025
0.0174023   0.0569012   0.025
0.0298294   0.0569012   0.025
0.0429888   0.0569012   0.025
0.0569012   0.0569012   0.025
0.0715849   0.0569012   0.025
0.0870549   0.0569012   0.025
0.103323   0.0569012   0.025
0.120395   0.0569012   0.025
0.138275   0.0569012   0.025
0.156961   0.0569012   0.025
0.176443   0.0569012   0.025
0.196707   0.0569012   0.025
0.217734   0.0569012   0.025
0.239496   0.0569012   0.025
0.261959   0.0569012   0.025
0.285082   0.0569012   0.025
0.308818   0.0569012   0.025
0.333113   0.0569012   0.025
0.357906   0.0569012   0.025
0.383132   0.0569012   0.025
0.408719   0.0569012   0.025
0.434592   0.0569012   0.025
0.460672   0.0569012   0.025
0.486877   0.0569012   0.025
0.513123   0.0569012   0.025
0.539328   0.0569012   0.025
0.565408   0.0569012   0.025
0.591281   0.0569012   0.025
0.616868   0.0569012   0.025
0.642094   0.0569012   0.025
0.666887   0.0569012   0.025
0.691182   0.0569012   0.025
0.714918   0.0569012   0.025
0.738041   0.0569012   0.025
0.760504   0.0569012   0.025
0.782266   0.0569012   0.025
0.803293   0.0569012   0.025
0.823557   0.0569012   0.025
0.843039   0.0569012   0.025
0.861725   0.0569012   0.025
0.879605   0.0569012   0.025
0.896677   0.0569012   0.025
0.912945   0.0569012   0.025
0.928415   0.0569012   0.025
0.943099   0.0569012   0.025
0.957011   0.0569012   0.025
0.970171   0.0569012   0.025
0.982598   0.0569012   0.025
0.994315   0.0569012   0.025
0.00568455   0.0715849   0.025
0.0174023   0.0715849   0.025
0.0298294   0.0715849   0.025
0.0429888   0.0715849   0.025
0.0569012   0.0715849   0.025
0.0715849   0.0715849   0.025
0.0870549   0.0715849   0.025
0.103323   0.0715849   0.025
0.120395   0.0715849   0.025
0.138275   0.0715849   0.025
0.156961   0.0715849   0.025
0.176443   0.0715849   0.025
0.196707   0.0715849   0.025
0.217734   0.0715849   0.025
0.239496   0.0715849   0.025
0.261959   0.0715849   0.025
0.285082   0.0715849   0.025
0.308818   0.0715849   0.025
0.333113   0.0715849   0.025
0.357906   0.0715849   0.025
0.383132   0.0715849   0.025
0.408719   0.0715849   0.025
0.434592   0.0715849   0.025
0.460672   0.0715849   0.025
0.486877   0.0715849   0.025
0.513123   0.0715849   0.025
0.539328   0.0715849   0.025
0.565408   0.0715849   0.025
0.591281   0.0715849   0.025
0.616868   0.0715849   0.025
0.642094   0.0715849   0.025
0.666887   0.0715849   0.025
0.691182   0.0715849   0.025
0.714918   0.0715849   0.025
0.738041   0.0715849   0.025
0.760504   0.0715849   0.025
0.782266   0.0715849   0.025
0.803293   0.0715849   0.025
0.823557   0.0715849   0.025
0.843039   0.0715849   0.025
0.861725   0.0715849   0.025
0.879605   0.0715849   0.025
0.896677   0.0715849   0.025
0.912945   0.0715849   0.025
0.928415   0.0715849   0.025
0.943099   0.0715849   0.025
0.957011   0.0715849   0.025
0.970171   0.0715849   0.025
0.982598   0.0715849   0.025
0.994315   0.0715849   0.025
0.00568455   0.0870549   0.025
0.0174023   0.0870549   0.025
0.0298294   0.0870549   0.025
0.0429888   0.0870549   0.025
0.0569012   0.0870549   0.025
0.0715849   0.0870549   0.025
0.0870549   0.0870549   0.025
0.103323   0.0870549   0.025
0.120395   0.0870549   0.025
0.138275   0.0870549   0.025
0.156961   0.0870549   0.025
0.176443   0.0870549   0.025
0.196707   0.0870549   0.025
0.217734   0.0870549   0.025
0.239496   0.0870549   0.025
0.261959   0.0870549   0.025
0.285082   0.0870549   0.025
0.308818   0.0870549   0.025
0.333113   0.0870549   0.025
0.357906   0.0870549   0.025
0.383132   0.0870549   0.025
0.408719   0.0870549   0.025
0.434592   0.0870549   0.025
0.460672   0.0870549   0.025
0.486877   0.0870549   0.025
0.513123   0.0870549   0.025
0.539328   0.0870549   0.025
0.565408   0.0870549   0.025
0.591281   0.0870549   0.025
0.616868   0.0870549   0.025
0.642094   0.0870549   0.025
0.666887   0.0870549   0.025
0.691182   0.0870549   0.025
0.714918   0.0870549   0.025
0.738041   0.0870549   0.025
0.760504   0.0870549   0.025
0.782266   0.0870549   0.025
[...]
POINT_DATA   50000
SCALARS Presion double
LOOKUP_TABLE   Presion

0 0 0 0 0 0 0 0 0 0 0 0 0 0 0 0 0 0 0 0 0 0 0 0 0 0 0 0 0 0 0 0 0 0 0 0 0 0 0 0 0 0 0 0 0 0 0 0 0 0 0.00165474 0.00180144 0.00197853 0.0021066 0.00217124 0.00217361 0.0021183 0.00201042 0.00185481 0.00165571 0.00141648 0.0011388 0.000681157 0.00040349 0.000155764 -5.99958e-05 -0.000238728 -0.000372098 -0.000450365 -0.000464774 -0.000409977 -0.000286054 -9.94723e-05 0.000137205 0.000387112 0.000635842 0.000849874 0.00100234 0.00107183 0.00104453 0.000915785 0.000690797 0.000384275 1.92884e-05 -0.000374609 -0.000762742 -0.00101094 -0.00137225 -0.00170858 -0.00200246 -0.00224343 -0.0024258 -0.00254665 -0.00260456 -0.00259875 -0.00252874 -0.00239458 -0.00219978 -0.00196475 -0.00178194 0.00217227 0.00216114 0.00221085 0.00226147 0.00228339 0.00226444 0.00220092 0.00209312 0.00194324 0.00175448 0.00153115 0.00127723 0.00075873 0.000507597 0.00027373 6.42419e-05 -0.000113532 -0.000250602 -0.000337283 -0.000365069 -0.000328746 -0.000228235 -6.95775e-05 0.000133574 0.000355695 0.000573213 0.000758288 0.000885494 0.000934604 0.00089264 0.00075541 0.000528095 0.000224773 -0.000133106 -0.000519362 -0.000903931 -0.00108047 -0.00143885 -0.00176434 -0.00204553 -0.00227518 -0.00244956 -0.00256737 -0.0026291 -0.00263683 -0.00259484 -0.00251155 -0.0024043 -0.00230918 -0.00229561 0.00252311 0.00247332 0.00245873 0.00245332 0.00243569 0.00239227 0.00231593 0.0022039 0.00205626 0.00187513 0.00166493 0.00142889 0.000840876 0.000612114 0.000390594 0.000185466 5.56132e-06 -0.000139472 -0.000239721 -0.000286488 -0.000274125 -0.00020177 -7.45663e-05 9.2657e-05 0.000291622 0.000483888 0.000647491 0.000757922 0.000795048 0.000745462 0.000604295 0.000375971 7.36956e-05 -0.000282382 -0.000668319 -0.00105553 -0.0011564 -0.00151695 -0.00183715 -0.00211033 -0.00233265 -0.00250274 -0.00262122 -0.00269051 -0.00271497 -0.0027017 -0.00266197 -0.00261352 -0.00258221 -0.00259899 0.00281513 0.00275559 0.00270923 0.00266733 0.00261825 0.00255187 0.00246116 0.00234223 0.00219387 0.0020173 0.00181651 0.0015928 0.000929996 0.000717458 0.00050408 0.000299178 0.00011218 -4.68045e-05 -0.000167436 -0.000240363 -0.000258855 -0.00022051 -0.000128796 9.94671e-07 0.000178734 0.000351833 0.000501711 0.000604452 0.000639048 0.000590448 0.00045193 0.000226262 -7.46703e-05 -0.000431873 -0.000822685 -0.00121792 -0.00124308 -0.00160985 -0.00192923 -0.00219858 -0.00241737 -0.00258662 -0.00270876 -0.00278769 -0.00282896 -0.0028402 -0.0028316 -0.00281603 -0.00280767 -0.00281762 0.00309756 0.00302972 0.00296357 0.00289677 0.00282359 0.00273748 0.00263277 0.00250559 0.00235411 0.00217882 0.00198299 0.00176544 0.00102546 0.000821398 0.000609347 0.000397881 0.000196323 1.4999e-05 -0.000135161 -0.000243664 -0.000301964 -0.000305224 -0.000254199 -0.000163496 -6.85604e-06 0.000152465 0.000296318 0.000401145 0.000444183 0.000407529 0.00028132 6.55214e-05 -0.000230076 -0.000587815 -0.000985728 -0.00139255 -0.00134544 -0.00172113 -0.00204277 -0.00231163 -0.00253025 -0.00270173 -0.00282987 -0.0029194 -0.002976 -0.00300642 -0.00301835 -0.00301982 -0.00301782 -0.00301597 0.00339001 0.00330851 0.00322476 0.00313816 0.00304564 0.00294281 0.0028252 0.00268914 0.00253244 0.00235484 0.00215875 0.00194019 0.00112311 0.000918025 0.000697765 0.000469861 0.000243102 2.78658e-05 -0.000164133 -0.00032073 -0.000430758 -0.000485928 -0.000483052 -0.000434704 -0.00029903 -0.00014997 -4.96672e-06 0.000112484 0.00017701 0.000166609 6.67744e-05 -0.000126836 -0.000407764 -0.000760367 -0.00116328 -0.00158218 -0.00146986 -0.00185483 -0.00217984 -0.00245039 -0.0026716 -0.00284804 -0.00298425 -0.00308503 -0.00315555 -0.00320116 -0.00322717 -0.00323837 -0.00323828 -0.00322837 0.00369658 0.00359527 0.00349226 0.00338716 0.00327765 0.00316015 0.00303055 0.00288507 0.00272092 0.00253693 0.00233436 0.00210624 0.00121419 0.000996458 0.000755474 0.000497696 0.000231208 -3.35801e-05 -0.000283895 -0.000505307 -0.00068316 -0.000804623 -0.000861222 -0.00086205 -0.000744674 -0.000605749 -0.000453686 -0.000312403 -0.000210723 -0.000176101 -0.000229471 -0.000381482 -0.000630868 -0.000965345 -0.00136471 -0.00179124 -0.00162523 -0.00201584 -0.00234252 -0.00261531 -0.00284121 -0.00302523 -0.00317175 -0.00328501 -0.00336921 -0.00342831 -0.0034659 -0.00348495 -0.00348761 -0.00347503 0.00401147 0.00388494 0.00375995 0.00363582 0.00351006 0.00337883 0.00323754 0.00308163 0.00290723 0.00271187 0.00249527 0.00224735 0.00128387 0.00103933 0.000761742 0.000456564 0.000131176 -0.000203839 -0.000534266 -0.000842751 -0.00111024 -0.00131822 -0.00145157 -0.00151438 -0.00140739 -0.00128371 -0.00112106 -0.000944487 -0.000787059 -0.000683124 -0.000662155 -0.000743678 -0.000934258 -0.0012272 -0.00160489 -0.0020267 -0.00182475 -0.00221093 -0.0025334 -0.00280687 -0.00303873 -0.003233 -0.00339271 -0.00352077 -0.0036201 -0.0036934 -0.00374309 -0.00377124 -0.00377956 -0.00376947 0.00432084 0.00416471 0.00401508 0.0038708 0.00372864 0.00358372 0.00343019 0.00326197 0.0030735 0.00286047 0.00262057 0.00234053 0.00130962 0.00102113 0.000687275 0.000312509 -9.63677e-05 -0.000528333 -0.00096724 -0.00139209 -0.00177848 -0.00210109 -0.00233684 -0.00248313 -0.00237162 -0.00227548 -0.00210269 -0.00188009 -0.00164564 -0.00144198 -0.00130945 -0.0012796 -0.00137034 -0.00158388 -0.00190777 -0.00230031 -0.00208889 -0.00245062 -0.00275705 -0.00302657 -0.00326455 -0.00347175 -0.00364831 -0.00379484 -0.00391253 -0.00400283 -0.0040673 -0.00410754 -0.00412523 -0.00412214 0.0046029 0.0044139 0.00423755 0.00407203 0.0039129 0.00375363 0.00358638 0.00340284 0.00319511 0.0029564 0.00268183 0.00235489 0.00125968 0.000906765 0.000492722 2.09753e-05 -0.000502128 -0.00106477 -0.0016483 -0.00222731 -0.00277106 -0.00324628 -0.00362074 -0.00388313 -0.00374602 -0.00369869 -0.00352209 -0.0032452 -0.00291101 -0.00257154 -0.00228026 -0.00208421 -0.00201696 -0.00209421 -0.00231263 -0.00263339 -0.0024503 -0.00275281 -0.00302276 -0.00327916 -0.00352134 -0.00374371 -0.00394132 -0.00411119 -0.00425205 -0.00436384 -0.00444729 -0.00450367 -0.00453473 -0.00454257 0.00482762 0.00460375 0.00439942 0.00421191 0.00403511 0.00386023 0.00367679 0.0034736 0.00323973 0.00296532 0.00264226 0.00225085 0.00109196 0.000650486 0.000127791 -0.000473939 -0.00114868 -0.00188341 -0.00265637 -0.00343686 -0.00418678 -0.00486372 -0.0054252 -0.00584864 -0.00566419 -0.00569671 -0.00553049 -0.00519595 -0.00474052 -0.00422583 -0.00372009 -0.00328905 -0.00298669 -0.00284778 -0.00288376 -0.00306563 -0.00296114 -0.00314882 -0.00334952 -0.00357637 -0.00381684 -0.00405481 -0.00427738 -0.00447606 -0.00464601 -0.00478506 -0.00489281 -0.00497013 -0.00501876 -0.00504113 0.00495661 0.00469727 0.00446469 0.00425492 0.0040597 0.00386741 0.0036643 0.00343567 0.00316696 0.00284461 0.00245664 0.00198018 0.000753833 0.000195975 -0.000468462 -0.00123884 -0.00210936 -0.00306537 -0.00408125 -0.00512005 -0.00613512 -0.00707364 -0.0078817 -0.00852224 -0.00827914 -0.00843129 -0.00829868 -0.00791098 -0.00731829 -0.00659069 -0.00581123 -0.00506636 -0.00443466 -0.00397605 -0.00372383 -0.0036697 -0.0037027 -0.00369218 -0.00377322 -0.00394235 -0.00416772 -0.00441742 -0.00466685 -0.00489932 -0.00510467 -0.0052775 -0.00541571 -0.00551939 -0.00559015 -0.00563062 0.00494366 0.00464987 0.00438987 0.00415812 0.00394371 0.00373165 0.00350434 0.00324301 0.00292892 0.00254417 0.00207231 0.00148724 0.000183405 -0.00052202 -0.00136549 -0.00234826 -0.00346463 -0.00469779 -0.00601735 -0.0073789 -0.00872581 -0.0099933 -0.0111147 -0.0120347 -0.0117475 -0.0120641 -0.0119968 -0.0115709 -0.0108359 -0.00986737 -0.00876091 -0.00762319 -0.0065596 -0.00566042 -0.00498842 -0.00457131 -0.00479461 -0.00446888 -0.00435532 -0.00442015 -0.00460412 -0.00485345 -0.00512694 -0.00539596 -0.00564232 -0.00585564 -0.00603098 -0.00616708 -0.00626508 -0.00632769 0.00473641 0.004411 0.00412563 0.00387275 0.00363836 0.00340362 0.00314658 0.00284394 0.00247222 0.00200868 0.00143177 0.00071199 -0.000687111 -0.00157373 -0.00263652 -0.00387894 -0.00529506 -0.00686515 -0.00855286 -0.0103047 -0.0120523 -0.0137169 -0.0152178 -0.0164772 -0.0162007 -0.016725 -0.01676 -0.0163221 -0.0154563 -0.0142383 -0.0127714 -0.0111783 -0.00958976 -0.00812894 -0.00689481 -0.00596944 -0.00639719 -0.00560451 -0.00518999 -0.00507757 -0.00517401 -0.0053974 -0.00568382 -0.00598755 -0.00627841 -0.00653828 -0.00675765 -0.00693285 -0.00706403 -0.00715372 0.00427946 0.00392721 0.00361975 0.00334719 0.00309206 0.00283125 0.00253813 0.00218445 0.00174163 0.0011816 0.000477158 -0.000404982 -0.00192545 -0.00302769 -0.00435095 -0.00590086 -0.0076707 -0.00963661 -0.0117546 -0.01396 -0.0161704 -0.0182913 -0.0202258 -0.0218711 -0.0217049 -0.02247 -0.0226437 -0.0222298 -0.021264 -0.0198165 -0.0179902 -0.0159165 -0.0137453 -0.0116305 -0.00971089 -0.00814127 -0.00869734 -0.00726102 -0.00640529 -0.00600999 -0.0059462 -0.00609873 -0.00637423 -0.00670323 -0.0070381 -0.00734894 -0.00761899 -0.00784056 -0.0080119 -0.00813496 0.00351893 0.00314662 0.00282163 0.00253146 0.00225491 0.00196438 0.00162835 0.00121337 0.000685494 1.09671e-05 -0.000843453 -0.0019154 -0.00359077 -0.00494139 -0.00656385 -0.00846548 -0.0106376 -0.0130506 -0.0156504 -0.0183588 -0.0210769 -0.0236926 -0.0260912 -0.0281448 -0.0282196 -0.029241 -0.0295819 -0.0292323 -0.0282152 -0.0265894 -0.0244498 -0.0219258 -0.0191763 -0.016378 -0.0137082 -0.0114073 -0.0118715 -0.00961665 -0.00815465 -0.00733855 -0.00701126 -0.00702346 -0.0072467 -0.00758039 -0.00795245 -0.00831568 -0.00864215 -0.00891769 -0.00913727 -0.00930154 0.00240839 0.00202466 0.00168792 0.0013829 0.00108454 0.000760738 0.000375016 -0.000111271 -0.00073756 -0.00154342 -0.00256831 -0.00385484 -0.00572319 -0.0073502 -0.00930406 -0.0115927 -0.0142039 -0.0170996 -0.0202134 -0.0234507 -0.0266941 -0.0298124 -0.0326731 -0.0351265 -0.0355723 -0.0368439 -0.0373666 -0.0371182 -0.0361083 -0.0343816 -0.0320181 -0.0291356 -0.0258889 -0.0224656 -0.0190739 -0.0160387 -0.0160336 -0.0128302 -0.0105977 -0.00920215 -0.00847949 -0.00825442 -0.00836221 -0.00866488 -0.00905811 -0.00947029 -0.00985698 -0.0101939 -0.0104707 -0.0106856 0.000915445 0.000530513 0.0001889 -0.000127499 -0.000447478 -0.000807517 -0.00124885 -0.00181517 -0.00255125 -0.00350236 -0.00471401 -0.00623424 -0.00833325 -0.0102565 -0.012563 -0.0152598 -0.0183284 -0.0217202 -0.0253532 -0.0291145 -0.0328669 -0.0364605 -0.0397465 -0.04256 -0.0434673 -0.0449627 -0.0456645 -0.0455426 -0.0445965 -0.0428571 -0.0403874 -0.0372861 -0.0336929 -0.0297913 -0.0258062 -0.0221275 -0.0211912 -0.0170001 -0.0138727 -0.011742 -0.0104739 -0.00988887 -0.0097936 -0.0100107 -0.0103964 -0.0108469 -0.0112942 -0.0116989 -0.0120422 -0.0123182 -0.000971923 -0.00134677 -0.0016855 -0.00200897 -0.00234947 -0.00274751 -0.00324866 -0.00390128 -0.00475507 -0.00586055 -0.00726871 -0.0090331 -0.0113935 -0.0136215 -0.0162873 -0.0193945 -0.0229163 -0.0267906 -0.0309179 -0.0351656 -0.039377 -0.0433856 -0.04703 -0.0501395 -0.0515316 -0.0532109 -0.0540725 -0.0540856 -0.0532454 -0.0515736 -0.0491175 -0.045955 -0.0422029 -0.038027 -0.03365 -0.0294869 -0.0272321 -0.0221321 -0.0180636 -0.015077 -0.0131154 -0.0120307 -0.0116218 -0.0116775 -0.0120116 -0.0124797 -0.0129824 -0.013459 -0.0138777 -0.0142261 -0.00324049 -0.00359354 -0.00392104 -0.00424644 -0.0046051 -0.00504104 -0.00560363 -0.00634522 -0.00731978 -0.00858231 -0.0101883 -0.0121963 -0.014835 -0.0173629 -0.0203775 -0.0238767 -0.0278232 -0.0321396 -0.0367077 -0.0413755 -0.0459691 -0.0503088 -0.0542264 -0.0575542 -0.059386 -0.0612025 -0.0621929 -0.0623322 -0.0616183 -0.0600696 -0.0577233 -0.054639 -0.0509082 -0.0466693 -0.0421227 -0.0376587 -0.0339412 -0.0281216 -0.0231667 -0.0192711 -0.0164979 -0.014775 -0.0139265 -0.0137256 -0.0139463 -0.014399 -0.0149446 -0.0154932 -0.0159946 -0.0164264 -0.00584954 -0.00616943 -0.00647717 -0.0067985 -0.00717142 -0.0076428 -0.00826509 -0.00909384 -0.0101864 -0.0116011 -0.0133968 -0.0156355 -0.0185499 -0.0213588 -0.0246943 -0.0285474 -0.0328685 -0.037564 -0.042498 -0.0475007 -0.0523844 -0.0569613 -0.0610617 -0.0645288 -0.0667088 -0.0686166 -0.0696992 -0.0699427 -0.0693531 -0.0679517 -0.0657716 -0.0628598 -0.0592857 -0.0551556 -0.0506321 -0.0460365 -0.0410298 -0.0347522 -0.0290659 -0.0242991 -0.0206569 -0.0181835 -0.0167704 -0.0162047 -0.0162347 -0.0166255 -0.0171921 -0.0178073 -0.0183958 -0.0189211 -0.00873205 -0.00900855 -0.00928823 -0.00959883 -0.00998043 -0.0104821 -0.0111586 -0.0120677 -0.0132691 -0.0148233 -0.0167908 -0.0192356 -0.0224005 -0.025458 -0.0290718 -0.0332242 -0.0378535 -0.042851 -0.0480643 -0.0533097 -0.0583896 -0.0631132 -0.067314 -0.0708501 -0.0732737 -0.075232 -0.0763711 -0.0766901 -0.0762061 -0.0749473 -0.0729482 -0.07025 -0.0669054 -0.0629908 -0.0586242 -0.0540341 -0.0481666 -0.0417129 -0.0355261 -0.0300223 -0.0255381 -0.0222567 -0.0201771 -0.0191395 -0.0188912 -0.0191617 -0.0197175 -0.0203874 -0.0210636 -0.0216902 -0.0117995 -0.0120243 -0.0122683 -0.0125611 -0.0129442 -0.0134683 -0.0141895 -0.0151672 -0.0164621 -0.0181358 -0.0202488 -0.0228648 -0.0262325 -0.0294952 -0.0333329 -0.0377196 -0.0425822 -0.0477987 -0.0532041 -0.0586043 -0.0637963 -0.0685898 -0.0728249 -0.0763755 -0.078952 -0.0809281 -0.0820936 -0.0824594 -0.0820539 -0.0809136 -0.0790784 -0.0765889 -0.0734887 -0.0698312 -0.0656923 -0.0612093 -0.0550105 -0.0486353 -0.0422146 -0.0361865 -0.0309788 -0.0269084 -0.0241079 -0.0225104 -0.0218975 -0.0219819 -0.0224866 -0.0231921 -0.0239518 -0.0246846 -0.0149497 -0.0151168 -0.0153189 -0.0155866 -0.0159628 -0.0164989 -0.0172519 -0.0182818 -0.0196495 -0.0214161 -0.0236414 -0.0263864 -0.0298897 -0.0333065 -0.037307 -0.041858 -0.0468773 -0.0522329 -0.0577507 -0.0632306 -0.0684675 -0.073274 -0.0774978 -0.0810266 -0.0836927 -0.0856637 -0.0868335 -0.0872221 -0.0868668 -0.0858125 -0.0841057 -0.081791 -0.0789094 -0.0755007 -0.0716097 -0.0673022 -0.061247 -0.0551459 -0.0487476 -0.0424498 -0.0367128 -0.0319547 -0.0284445 -0.026238 -0.0251887 -0.025022 -0.0254302 -0.0261465 -0.0269806 -0.0278208 -0.0180765 -0.0181828 -0.0183382 -0.0185741 -0.018934 -0.0194698 -0.0202388 -0.0213006 -0.0227157 -0.024544 -0.0268433 -0.0296703 -0.0332278 -0.0367428 -0.0408425 -0.0454883 -0.0505921 -0.0560155 -0.0615794 -0.0670808 -0.0723152 -0.0770989 -0.0812858 -0.0847747 -0.0874953 -0.0894478 -0.0906084 -0.0910024 -0.0906731 -0.0896721 -0.088053 -0.0858664 -0.0831566 -0.079959 -0.0763017 -0.0722068 -0.0666237 -0.0609183 -0.0547502 -0.0484329 -0.0424018 -0.0371256 -0.0329863 -0.0301735 -0.028645 -0.0281723 -0.0284385 -0.0291371 -0.0300322 -0.0309773 -0.0210798 -0.0211252 -0.021231 -0.0214292 -0.0217633 -0.0222852 -0.0230518 -0.0241222 -0.025556 -0.0274112 -0.0297431 -0.0326031 -0.0361246 -0.0396803 -0.0438163 -0.0484917 -0.0536155 -0.0590471 -0.0646058 -0.0700885 -0.0752922 -0.0800362 -0.0841785 -0.0876244 -0.090386 -0.0923153 -0.0934613 -0.0938502 -0.0935286 -0.092553 -0.0909833 -0.0888778 -0.0862871 -0.0832504 -0.0797921 -0.0759176 -0.0709706 -0.0657101 -0.0599083 -0.0537773 -0.0476848 -0.0420963 -0.0374652 -0.0341029 -0.0320898 -0.0312751 -0.03136 -0.0320117 -0.0329519 -0.0339961 -0.023874 -0.0238612 -0.0239167 -0.0240726 -0.0243718 -0.0248655 -0.0256101 -0.0266639 -0.028085 -0.0299299 -0.0322511 -0.0350947 -0.0384862 -0.0420254 -0.0461382 -0.0507841 -0.055873 -0.0612654 -0.0667821 -0.0722215 -0.0773824 -0.0820853 -0.0861892 -0.0896008 -0.0924033 -0.0943121 -0.0954441 -0.0958237 -0.0954978 -0.0945261 -0.0929742 -0.0909078 -0.0883867 -0.0854584 -0.082154 -0.0784824 -0.0742024 -0.0693748 -0.0639991 -0.0581909 -0.0522288 -0.0465316 -0.0415758 -0.037764 -0.0352985 -0.0341296 -0.0340045 -0.0345832 -0.0355514 -0.0366872 -0.0263945 -0.0263286 -0.0263354 -0.0264459 -0.026702 -0.0271536 -0.027856 -0.0288664 -0.0302418 -0.0320374 -0.0343037 -0.0370817 -0.0402494 -0.043717 -0.0477513 -0.0523155 -0.0573237 -0.0626407 -0.0680908 -0.0734753 -0.0785936 -0.0832654 -0.0873468 -0.0907417 -0.0935906 -0.0954877 -0.0966116 -0.0969825 -0.0966456 -0.0956627 -0.0941039 -0.0920424 -0.0895474 -0.086678 -0.0834773 -0.0799708 -0.0763053 -0.0718536 -0.0668966 -0.0614716 -0.0557666 -0.0501276 -0.0450114 -0.0408718 -0.0380156 -0.0365035 -0.0361525 -0.0366367 -0.0376174 -0.0388366 -0.0286005 -0.0284891 -0.0284507 -0.0285147 -0.0287209 -0.0291172 -0.029757 -0.0306965 -0.031992 -0.0336979 -0.0358643 -0.0385283 -0.0413812 -0.0447243 -0.0486296 -0.0530667 -0.0579568 -0.0631713 -0.0685402 -0.0738673 -0.0789519 -0.0836102 -0.0876922 -0.0910937 -0.0939955 -0.0958946 -0.09702 -0.0973866 -0.0970369 -0.096033 -0.094449 -0.092365 -0.0898594 -0.0870031 -0.0838541 -0.08046 -0.0773184 -0.073156 -0.0685586 -0.063508 -0.0581135 -0.0526404 -0.0474963 -0.043147 -0.0399751 -0.038147 -0.0375659 -0.0379402 -0.0389198 -0.0402157 -0.0304757 -0.0303278 -0.0302496 -0.030268 -0.0304193 -0.0307482 -0.0313057 -0.0321465 -0.0333266 -0.0349013 -0.0369218 -0.039424 -0.0418757 -0.045044 -0.0487745 -0.0530453 -0.0577872 -0.0628801 -0.0681602 -0.0734341 -0.0784995 -0.0831667 -0.0872763 -0.0907121 -0.0936709 -0.0955894 -0.0967295 -0.0970999 -0.0967393 -0.0957093 -0.0940871 -0.0919586 -0.0894109 -0.0865258 -0.0833754 -0.0800309 -0.0773158 -0.0733391 -0.0690067 -0.0642662 -0.0591667 -0.0538985 -0.0488066 -0.0443382 -0.0409199 -0.0388088 -0.0379998 -0.0382531 -0.039221 -0.0405891 -0.0320253 -0.0318513 -0.0317405 -0.0317159 -0.031809 -0.0320599 -0.032516 -0.03323 -0.0342586 -0.0356592 -0.0374869 -0.0397796 -0.0417495 -0.0446956 -0.04821 -0.0522817 -0.0568521 -0.0618108 -0.0670004 -0.0722299 -0.0772939 -0.081995 -0.0861617 -0.0896623 -0.0926766 -0.0946359 -0.0958071 -0.0961927 -0.095827 -0.0947701 -0.0931011 -0.0909108 -0.0882936 -0.0853404 -0.0821353 -0.0787704 -0.0763937 -0.0724904 -0.0683054 -0.0637696 -0.0588913 -0.0537999 -0.0487772 -0.0442346 -0.0406155 -0.0382461 -0.0372109 -0.0373331 -0.0382803 -0.0397192 -0.0332723 -0.0330835 -0.0329486 -0.0328853 -0.0329187 -0.0330823 -0.0334183 -0.0339774 -0.0348171 -0.0359994 -0.0375866 -0.0396223 -0.0410368 -0.0437164 -0.046979 -0.050825 -0.0552074 -0.0600256 -0.0651282 -0.0703255 -0.0754081 -0.0801691 -0.0844234 -0.088021 -0.091082 -0.0931062 -0.0943284 -0.0947445 -0.0943836 -0.0933034 -0.0915837 -0.0893185 -0.0866077 -0.083549 -0.0802351 -0.0767745 -0.0746626 -0.0707152 -0.0665454 -0.0620796 -0.0573019 -0.0522985 -0.0472972 -0.0426686 -0.0388547 -0.0362308 -0.0349612 -0.0349384 -0.0358557 -0.0373667 -0.0342528 -0.0340613 -0.033912 -0.0338157 -0.0337889 -0.0338565 -0.0340539 -0.0344289 -0.0350413 -0.0359599 -0.0372581 -0.0389903 -0.0397842 -0.0421576 -0.0451386 -0.0487399 -0.0529254 -0.0576033 -0.0626274 -0.0678081 -0.0729308 -0.0777781 -0.0821501 -0.0858776 -0.0889667 -0.0910827 -0.0923791 -0.0928448 -0.0925029 -0.0914078 -0.0896381 -0.0872893 -0.0844643 -0.0812647 -0.0777878 -0.074152 -0.0722417 -0.0681288 -0.063831 -0.0592777 -0.0544432 -0.0493866 -0.0442968 -0.0395087 -0.0354559 -0.0325475 -0.0310164 -0.030825 -0.0317 -0.0332865 -0.0350111 -0.0348301 -0.0346772 -0.0345545 -0.0344675 -0.0344299 -0.0344687 -0.0346287 -0.0349734 -0.0355819 -0.0365431 -0.0379274 -0.0380466 -0.0400798 -0.0427575 -0.0461037 -0.0500919 -0.0546372 -0.0595967 -0.0647797 -0.0699654 -0.0749252 -0.0794437 -0.0833337 -0.0864212 -0.0886574 -0.0900541 -0.0905922 -0.0902881 -0.0891912 -0.0873774 -0.084941 -0.0819851 -0.0786115 -0.0749174 -0.0710235 -0.0692549 -0.06485 -0.0602705 -0.0554531 -0.0503724 -0.0450761 -0.0397303 -0.0346466 -0.0302533 -0.026987 -0.0251396 -0.0247399 -0.0255532 -0.027219 -0.0355958 -0.0354403 -0.0352962 -0.0351541 -0.0350059 -0.0348515 -0.0347085 -0.0346192 -0.0346534 -0.0349049 -0.0354831 -0.0364795 -0.0358833 -0.0375509 -0.039913 -0.0430038 -0.046804 -0.0512325 -0.0561473 -0.0613549 -0.0666277 -0.0717256 -0.076418 -0.0805012 -0.0835461 -0.0859312 -0.087456 -0.0880922 -0.0878483 -0.0867672 -0.0849198 -0.0823966 -0.0792969 -0.0757192 -0.0717555 -0.0675184 -0.0658254 -0.060996 -0.0559697 -0.0506925 -0.0451467 -0.0393824 -0.0335595 -0.0279824 -0.0230854 -0.0193363 -0.0170814 -0.0164119 -0.017133 -0.0188807 -0.0360581 -0.035946 -0.0358246 -0.03567 -0.0354566 -0.0351689 -0.034814