# vtk DataFile Version 2.0
Velocidades
ASCII

DATASET STRUCTURED_GRID
DIMENSIONS   50   50   20

POINTS   50000   double
0.00568455   0.00568455   0.025
0.0174023   0.00568455   0.025
0.0298294   0.00568455   0.025
0.0429888   0.00568455   0.025
0.0569012   0.00568455   0.025
0.0715849   0.00568455   0.025
0.0870549   0.00568455   0.025
0.103323   0.00568455   0.025
0.120395   0.00568455   0.025
0.138275   0.00568455   0.025
0.156961   0.00568455   0.025
0.176443   0.00568455   0.025
0.196707   0.00568455   0.025
0.217734   0.00568455   0.025
0.239496   0.00568455   0.025
0.261959   0.00568455   0.025
0.285082   0.00568455   0.025
0.308818   0.00568455   0.025
0.333113   0.00568455   0.025
0.357906   0.00568455   0.025
0.383132   0.00568455   0.025
0.408719   0.00568455   0.025
0.434592   0.00568455   0.025
0.460672   0.00568455   0.025
0.486877   0.00568455   0.025
0.513123   0.00568455   0.025
0.539328   0.00568455   0.025
0.565408   0.00568455   0.025
0.591281   0.00568455   0.025
0.616868   0.00568455   0.025
0.642094   0.00568455   0.025
0.666887   0.00568455   0.025
0.691182   0.00568455   0.025
0.714918   0.00568455   0.025
0.738041   0.00568455   0.025
0.760504   0.00568455   0.025
0.782266   0.00568455   0.025
0.803293   0.00568455   0.025
0.823557   0.00568455   0.025
0.843039   0.00568455   0.025
0.861725   0.00568455   0.025
0.879605   0.00568455   0.025
0.896677   0.00568455   0.025
0.912945   0.00568455   0.025
0.928415   0.00568455   0.025
0.943099   0.00568455   0.025
0.957011   0.00568455   0.025
0.970171   0.00568455   0.025
0.982598   0.00568455   0.025
0.994315   0.00568455   0.025
0.00568455   0.0174023   0.025
0.0174023   0.0174023   0.025
0.0298294   0.0174023   0.025
0.0429888   0.0174023   0.025
0.0569012   0.0174023   0.025
0.0715849   0.0174023   0.025
0.0870549   0.0174023   0.025
0.103323   0.0174023   0.025
0.120395   0.0174023   0.025
0.138275   0.0174023   0.025
0.156961   0.0174023   0.025
0.176443   0.0174023   0.025
0.196707   0.0174023   0.025
0.217734   0.0174023   0.025
0.239496   0.0174023   0.025
0.261959   0.0174023   0.025
0.285082   0.0174023   0.025
0.308818   0.0174023   0.025
0.333113   0.0174023   0.025
0.357906   0.0174023   0.025
0.383132   0.0174023   0.025
0.408719   0.0174023   0.025
0.434592   0.0174023   0.025
0.460672   0.0174023   0.025
0.486877   0.0174023   0.025
0.513123   0.0174023   0.025
0.539328   0.0174023   0.025
0.565408   0.0174023   0.025
0.591281   0.0174023   0.025
0.616868   0.0174023   0.025
0.642094   0.0174023   0.025
0.666887   0.0174023   0.025
0.691182   0.0174023   0.025
0.714918   0.0174023   0.025
0.738041   0.0174023   0.025
0.760504   0.0174023   0.025
0.782266   0.0174023   0.025
0.803293   0.0174023   0.025
0.823557   0.0174023   0.025
0.843039   0.0174023   0.025
0.861725   0.0174023   0.025
0.879605   0.0174023   0.025
0.896677   0.0174023   0.025
0.912945   0.0174023   0.025
0.928415   0.0174023   0.025
0.943099   0.0174023   0.025
0.957011   0.0174023   0.025
0.970171   0.0174023   0.025
0.982598   0.0174023   0.025
0.994315   0.0174023   0.025
0.00568455   0.0298294   0.025
0.0174023   0.0298294   0.025
0.0298294   0.0298294   0.025
0.0429888   0.0298294   0.025
0.0569012   0.0298294   0.025
0.0715849   0.0298294   0.025
0.0870549   0.0298294   0.025
0.103323   0.0298294   0.025
0.120395   0.0298294   0.025
0.138275   0.0298294   0.025
0.156961   0.0298294   0.025
0.176443   0.0298294   0.025
0.196707   0.0298294   0.025
0.217734   0.0298294   0.025
0.239496   0.0298294   0.025
0.261959   0.0298294   0.025
0.285082   0.0298294   0.025
0.308818   0.0298294   0.025
0.333113   0.0298294   0.025
0.357906   0.0298294   0.025
0.383132   0.0298294   0.025
0.408719   0.0298294   0.025
0.434592   0.0298294   0.025
0.460672   0.0298294   0.025
0.486877   0.0298294   0.025
0.513123   0.0298294   0.025
0.539328   0.0298294   0.025
0.565408   0.0298294   0.025
0.591281   0.0298294   0.025
0.616868   0.0298294   0.025
0.642094   0.0298294   0.025
0.666887   0.0298294   0.025
0.691182   0.0298294   0.025
0.714918   0.0298294   0.025
0.738041   0.0298294   0.025
0.760504   0.0298294   0.025
0.782266   0.0298294   0.025
0.803293   0.0298294   0.025
0.823557   0.0298294   0.025
0.843039   0.0298294   0.025
0.861725   0.0298294   0.025
0.879605   0.0298294   0.025
0.896677   0.0298294   0.025
0.912945   0.0298294   0.025
0.928415   0.0298294   0.025
0.943099   0.0298294   0.025
0.957011   0.0298294   0.025
0.970171   0.0298294   0.025
0.982598   0.0298294   0.025
0.994315   0.0298294   0.025
0.00568455   0.0429888   0.025
0.0174023   0.0429888   0.025
0.0298294   0.0429888   0.025
0.0429888   0.0429888   0.025
0.0569012   0.0429888   0.025
0.0715849   0.0429888   0.025
0.0870549   0.0429888   0.025
0.103323   0.0429888   0.025
0.120395   0.0429888   0.025
0.138275   0.0429888   0.025
0.156961   0.0429888   0.025
0.176443   0.0429888   0.025
0.196707   0.0429888   0.025
0.217734   0.0429888   0.025
0.239496   0.0429888   0.025
0.261959   0.0429888   0.025
0.285082   0.0429888   0.025
0.308818   0.0429888   0.025
0.333113   0.0429888   0.025
0.357906   0.0429888   0.025
0.383132   0.0429888   0.025
0.408719   0.0429888   0.025
0.434592   0.0429888   0.025
0.460672   0.0429888   0.025
0.486877   0.0429888   0.025
0.513123   0.0429888   0.025
0.539328   0.0429888   0.025
0.565408   0.0429888   0.025
0.591281   0.0429888   0.025
0.616868   0.0429888   0.025
0.642094   0.0429888   0.025
0.666887   0.0429888   0.025
0.691182   0.0429888   0.025
0.714918   0.0429888   0.025
0.738041   0.0429888   0.025
0.760504   0.0429888   0.025
0.782266   0.0429888   0.025
0.803293   0.0429888   0.025
0.823557   0.0429888   0.025
0.843039   0.0429888   0.025
0.861725   0.0429888   0.025
0.879605   0.0429888   0.025
0.896677   0.0429888   0.025
0.912945   0.0429888   0.025
0.928415   0.0429888   0.025
0.943099   0.0429888   0.025
0.957011   0.0429888   0.025
0.970171   0.0429888   0.025
0.982598   0.0429888   0.025
0.994315   0.0429888   0.025
0.00568455   0.0569012   0.025
0.0174023   0.0569012   0.025
0.0298294   0.0569012   0.025
0.0429888   0.0569012   0.025
0.0569012   0.0569012   0.025
0.0715849   0.0569012   0.025
0.0870549   0.0569012   0.025
0.103323   0.0569012   0.025
0.120395   0.0569012   0.025
0.138275   0.0569012   0.025
0.156961   0.0569012   0.025
0.176443   0.0569012   0.025
0.196707   0.0569012   0.025
0.217734   0.0569012   0.025
0.239496   0.0569012   0.025
0.261959   0.0569012   0.025
0.285082   0.0569012   0.025
0.308818   0.0569012   0.025
0.333113   0.0569012   0.025
0.357906   0.0569012   0.025
0.383132   0.0569012   0.025
0.408719   0.0569012   0.025
0.434592   0.0569012   0.025
0.460672   0.0569012   0.025
0.486877   0.0569012   0.025
0.513123   0.0569012   0.025
0.539328   0.0569012   0.025
0.565408   0.0569012   0.025
0.591281   0.0569012   0.025
0.616868   0.0569012   0.025
0.642094   0.0569012   0.025
0.666887   0.0569012   0.025
0.691182   0.0569012   0.025
0.714918   0.0569012   0.025
0.738041   0.0569012   0.025
0.760504   0.0569012   0.025
0.782266   0.0569012   0.025
0.803293   0.0569012   0.025
0.823557   0.0569012   0.025
0.843039   0.0569012   0.025
0.861725   0.0569012   0.025
0.879605   0.0569012   0.025
0.896677   0.0569012   0.025
0.912945   0.0569012   0.025
0.928415   0.0569012   0.025
0.943099   0.0569012   0.025
0.957011   0.0569012   0.025
0.970171   0.0569012   0.025
0.982598   0.0569012   0.025
0.994315   0.0569012   0.025
0.00568455   0.0715849   0.025
0.0174023   0.0715849   0.025
0.0298294   0.0715849   0.025
0.0429888   0.0715849   0.025
0.0569012   0.0715849   0.025
0.0715849   0.0715849   0.025
0.0870549   0.0715849   0.025
0.103323   0.0715849   0.025
0.120395   0.0715849   0.025
0.138275   0.0715849   0.025
0.156961   0.0715849   0.025
0.176443   0.0715849   0.025
0.196707   0.0715849   0.025
0.217734   0.0715849   0.025
0.239496   0.0715849   0.025
0.261959   0.0715849   0.025
0.285082   0.0715849   0.025
0.308818   0.0715849   0.025
0.333113   0.0715849   0.025
0.357906   0.0715849   0.025
0.383132   0.0715849   0.025
0.408719   0.0715849   0.025
0.434592   0.0715849   0.025
0.460672   0.0715849   0.025
0.486877   0.0715849   0.025
0.513123   0.0715849   0.025
0.539328   0.0715849   0.025
0.565408   0.0715849   0.025
0.591281   0.0715849   0.025
0.616868   0.0715849   0.025
0.642094   0.0715849   0.025
0.666887   0.0715849   0.025
0.691182   0.0715849   0.025
0.714918   0.0715849   0.025
0.738041   0.0715849   0.025
0.760504   0.0715849   0.025
0.782266   0.0715849   0.025
0.803293   0.0715849   0.025
0.823557   0.0715849   0.025
0.843039   0.0715849   0.025
0.861725   0.0715849   0.025
0.879605   0.0715849   0.025
0.896677   0.0715849   0.025
0.912945   0.0715849   0.025
0.928415   0.0715849   0.025
0.943099   0.0715849   0.025
0.957011   0.0715849   0.025
0.970171   0.0715849   0.025
0.982598   0.0715849   0.025
0.994315   0.0715849   0.025
0.00568455   0.0870549   0.025
0.0174023   0.0870549   0.025
0.0298294   0.0870549   0.025
0.0429888   0.0870549   0.025
0.0569012   0.0870549   0.025
0.0715849   0.0870549   0.025
0.0870549   0.0870549   0.025
0.103323   0.0870549   0.025
0.120395   0.0870549   0.025
0.138275   0.0870549   0.025
0.156961   0.0870549   0.025
0.176443   0.0870549   0.025
0.196707   0.0870549   0.025
0.217734   0.0870549   0.025
0.239496   0.0870549   0.025
0.261959   0.0870549   0.025
0.285082   0.0870549   0.025
0.308818   0.0870549   0.025
0.333113   0.0870549   0.025
0.357906   0.0870549   0.025
0.383132   0.0870549   0.025
0.408719   0.0870549   0.025
0.434592   0.0870549   0.025
0.460672   0.0870549   0.025
0.486877   0.0870549   0.025
0.513123   0.0870549   0.025
0.539328   0.0870549   0.025
0.565408   0.0870549   0.025
0.591281   0.0870549   0.025
0.616868   0.0870549   0.025
0.642094   0.0870549   0.025
0.666887   0.0870549   0.025
0.691182   0.0870549   0.025
0.714918   0.0870549   0.025
0.738041   0.0870549   0.025
0.760504   0.0870549   0.025
0.782266   0.0870549   0.025
[...]
POINT_DATA   50000
VECTORS Velocidades double

5.53216e-05 0.00109016 0
0.000150992 0.00213377 0
0.000207723 0.00275727 0
0.000220377 0.00317872 0
0.000198379 0.00348384 0
0.000151401 0.00371154 0
8.62529e-05 0.00388132 0
7.47882e-06 0.00400361 0
-8.17589e-05 0.00408454 0
-0.000179259 0.00412876 0
-0.000283995 0.00414208 0
-0.000343911 0.00413781 0
-0.000403383 0.00416315 0
-0.000515898 0.00409443 0
-0.000633427 0.00396561 0
-0.000749637 0.00378704 0
-0.000862967 0.00356317 0
-0.000972608 0.00329653 0
-0.00107782 0.00298901 0
-0.00117772 0.00264264 0
-0.0012713 0.00225998 0
-0.00135744 0.00184444 0
-0.00143535 0.00140085 0
-0.0014842 0.000937372 0
-0.0015189 0.000479184 0
-0.00155731 -1.00272e-05 0
-0.00157996 -0.000510216 0
-0.00158418 -0.00101067 0
-0.00156872 -0.00150234 0
-0.00153284 -0.00197687 0
-0.0014763 -0.00242661 0
-0.00139941 -0.00284496 0
-0.00130297 -0.00322684 0
-0.00118802 -0.00356943 0
-0.00105531 -0.00387412 0
-0.000979627 -0.00415349 0
-0.000898962 -0.00446424 0
-0.000739956 -0.00464452 0
-0.000573771 -0.00474303 0
-0.000411277 -0.00477429 0
-0.000257722 -0.00474553 0
-0.000117301 -0.00466159 0
6.29199e-06 -0.00452578 0
0.000109687 -0.00433953 0
0.000189505 -0.0041011 0
0.000241721 -0.00380326 0
0.000260689 -0.00342856 0
0.000238615 -0.00293895 0
0.000168959 -0.00224819 0
6.08542e-05 -0.00113496 0
0.000188755 0.00198 0
0.000508845 0.00413621 0
0.000685781 0.00547151 0
0.000714146 0.00637282 0
0.000636121 0.007019 0
0.000483169 0.00749687 0
0.000275259 0.00785067 0
2.55874e-05 0.00810416 0
-0.000256391 0.00827131 0
-0.000563792 0.00836269 0
-0.000892957 0.00839151 0
-0.00106656 0.00838672 0
-0.00125389 0.00843354 0
-0.00162375 0.00829392 0
-0.00199422 0.00803167 0
-0.00235782 0.00766904 0
-0.00271071 0.00721561 0
-0.00305032 0.00667651 0
-0.0033742 0.00605549 0
-0.00367951 0.00535647 0
-0.00396298 0.00458442 0
-0.00422116 0.00374621 0
-0.00445123 0.00285171 0
-0.00458729 0.00191788 0
-0.00468228 0.00098901 0
-0.00479054 -9.27402e-07 0
-0.00484615 -0.00101398 0
-0.00484472 -0.0020285 0
-0.00478333 -0.00302623 0
-0.00466048 -0.00399023 0
-0.00447616 -0.00490502 0
-0.00423193 -0.00575715 0
-0.00393069 -0.00653625 0
-0.00357607 -0.00723675 0
-0.00317077 -0.00786207 0
-0.00295469 -0.00843889 0
-0.00270819 -0.00906691 0
-0.00221063 -0.0094363 0
-0.00170978 -0.00963711 0
-0.00122276 -0.00969917 0
-0.000763268 -0.00963712 0
-0.000343058 -0.00946051 0
2.74237e-05 -0.00917576 0
0.000338685 -0.00878528 0
0.000581366 -0.00828466 0
0.000744471 -0.00765727 0
0.000812064 -0.0068638 0
0.000758484 -0.00582028 0
0.000549269 -0.00434823 0
0.00020056 -0.00205706 0
0.000142561 0.00161933 0
0.000448962 0.00383125 0
0.000705135 0.00533616 0
0.000805587 0.00638053 0
0.000749155 0.00712808 0
0.000561994 0.00767467 0
0.000271108 0.00807433 0
-0.000101378 0.00835778 0
-0.000538167 0.00854373 0
-0.00102619 0.00864651 0
-0.00155685 0.00868328 0
-0.00183581 0.00868648 0
-0.00213482 0.00872363 0
-0.0027291 0.00857763 0
-0.00332525 0.00830389 0
-0.00391329 0.00792714 0
-0.00448575 0.00745848 0
-0.00503706 0.0069035 0
-0.00556213 0.00626592 0
-0.00605571 0.00554937 0
-0.0065121 0.00475862 0
-0.0069255 0.0039005 0
-0.00729072 0.00298532 0
-0.00750378 0.0020306 0
-0.00764791 0.00106889 0
-0.00780905 4.74701e-05 0
-0.00788466 -0.000999939 0
-0.00786836 -0.00205132 0
-0.00775571 -0.00308791 0
-0.00754467 -0.00409223 0
-0.00723564 -0.00504818 0
-0.00683137 -0.00594176 0
-0.00633659 -0.00676215 0
-0.00575714 -0.00750382 0
-0.0050986 -0.00817128 0
-0.00474946 -0.00879183 0
-0.00436094 -0.00943704 0
-0.0035795 -0.00982733 0
-0.00279851 -0.0100373 0
-0.00204204 -0.0100971 0
-0.00133239 -0.0100213 0
-0.000689469 -0.00981912 0
-0.000131346 -0.00949613 0
0.000325126 -0.00905332 0
0.000663162 -0.00848356 0
0.000864517 -0.00776534 0
0.00090882 -0.00685179 0
0.000778895 -0.00565251 0
0.000487047 -0.00400752 0
0.000152672 -0.00167248 0
8.80868e-05 0.00135416 0
0.000312638 0.0035046 0
0.000547558 0.00513967 0
0.000668457 0.00635042 0
0.000630207 0.0072433 0
0.000432341 0.00790183 0
9.24912e-05 0.00838282 0
-0.000367134 0.00872303 0
-0.000925259 0.00894711 0
-0.00156359 0.00907468 0
-0.00226738 0.00912762 0
-0.00263709 0.00913995 0
-0.00303316 0.009164 0
-0.00382451 0.00900813 0
-0.00462061 0.00871897 0
-0.00540954 0.00832236 0
-0.00618027 0.00783117 0
-0.00692362 0.00725189 0
-0.00763137 0.00658839 0
-0.0082954 0.00584414 0
-0.00890739 0.00502371 0
-0.00945897 0.0041339 0
-0.00994211 0.00318526 0
-0.0102219 0.00219446 0
-0.0104062 0.00118414 0
-0.0106068 0.00011415 0
-0.010692 -0.000985823 0
-0.0106538 -0.00209347 0
-0.0104865 -0.00318923 0
-0.0101878 -0.00425475 0
-0.0097586 -0.00527304 0
-0.00920304 -0.00622922 0
-0.00852783 -0.00711188 0
-0.00774165 -0.00791523 0
-0.00685506 -0.00864372 0
-0.00638626 -0.00932052 0
-0.0058758 -0.00999031 0
-0.00485512 -0.0104066 0
-0.00384186 -0.0106277 0
-0.00286574 -0.0106811 0
-0.00195642 -0.0105809 0
-0.0011411 -0.0103353 0
-0.00044435 -0.00994866 0
0.000111551 -0.00941988 0
0.00050653 -0.00873906 0
0.000723657 -0.00788158 0
0.000753659 -0.00680085 0
0.000607536 -0.00542186 0
0.000342379 -0.00364532 0
9.55533e-05 -0.00138703 0
4.95252e-05 0.00118708 0
0.000189121 0.0032449 0
0.000350648 0.00495564 0
0.000433719 0.00631572 0
0.000377483 0.00736863 0
0.000158508 0.00816829 0
-0.000221849 0.00876219 0
-0.000749198 0.00918726 0
-0.0014039 0.00947196 0
-0.00216543 0.00964077 0
-0.00301402 0.00971981 0
-0.00345842 0.00974336 0
-0.00393754 0.00975262 0
-0.00490151 0.0095843 0
-0.00587377 0.00927673 0
-0.00684072 0.00885552 0
-0.00778826 0.00833517 0
-0.00870367 0.00772333 0
-0.00957535 0.00702437 0
-0.0103921 0.00624179 0
-0.0111427 0.00538 0
-0.0118161 0.00444577 0
-0.0124012 0.0034495 0
-0.0127382 0.00240627 0
-0.0129555 0.00133155 0
-0.0131857 0.000195493 0
-0.0132731 -0.000975617 0
-0.0132085 -0.0021592 0
-0.0129854 -0.00333462 0
-0.0126016 -0.00448232 0
-0.0120585 -0.00558406 0
-0.011362 -0.00662379 0
-0.0105211 -0.00758904 0
-0.00954831 -0.00847306 0
-0.00846056 -0.00927819 0
-0.00788721 -0.0100198 0
-0.00727243 -0.0107204 0
-0.00604971 -0.0111651 0
-0.00484426 -0.0113962 0
-0.00369036 -0.0114369 0
-0.00262309 -0.0112993 0
-0.00167478 -0.0109906 0
-0.000873858 -0.010514 0
-0.000244076 -0.00986738 0
0.000196942 -0.00904078 0
0.000440939 -0.00801294 0
0.000495545 -0.00674978 0
0.000394803 -0.00520868 0
0.000210773 -0.0033559 0
5.48262e-05 -0.00120438 0
2.37223e-05 0.00109339 0
9.19918e-05 0.00308258 0
0.000165973 0.0048411 0
0.00017626 0.00632481 0
6.65731e-05 0.00753198 0
-0.000196664 0.00848432 0
-0.000625272 0.00921184 0
-0.00121495 0.00974474 0
-0.00195144 0.010111 0
-0.0028152 0.0103374 0
-0.0037839 0.010453 0
-0.00428851 0.0104915 0
-0.00483781 0.0104869 0
-0.00595217 0.0103045 0
-0.0070789 0.00997598 0
-0.00820258 0.00952607 0
-0.00930649 0.00897048 0
-0.0103747 0.00831818 0
-0.0113923 0.00757425 0
-0.012345 0.00674244 0
-0.0132186 0.00582714 0
-0.0139991 0.004835 0
-0.0146724 0.00377605 0
-0.0150586 0.00266361 0
-0.0153038 0.00150881 0
-0.0155568 0.00028888 0
-0.0156424 -0.000972285 0
-0.0155499 -0.0022517 0
-0.0152726 -0.00352743 0
-0.014808 -0.00477832 0
-0.014159 -0.00598448 0
-0.0133329 -0.00712821 0
-0.0123419 -0.00819534 0
-0.0112031 -0.00917698 0
-0.00993981 -0.0100714 0
-0.00927625 -0.0108846 0
-0.00857218 -0.0116218 0
-0.00717761 -0.0120951 0
-0.00581159 -0.0123327 0
-0.00451212 -0.012352 0
-0.00331765 -0.0121631 0
-0.00226303 -0.0117722 0
-0.00137735 -0.0111823 0
-0.000682143 -0.0103931 0
-0.000188894 -0.00939888 0
0.000104597 -0.0081888 0
0.000219032 -0.00674917 0
0.000198005 -0.00507194 0
0.000107938 -0.00317031 0
2.76294e-05 -0.00109881 0
5.83307e-06 0.00105383 0
1.72533e-05 0.00301961 0
7.31157e-06 0.0048257 0
-6.86059e-05 0.00641697 0
-0.00025445 0.00776674 0
-0.000583469 0.00887131 0
-0.00107385 0.0097418 0
-0.00172912 0.0103973 0
-0.00254105 0.010861 0
-0.00349311 0.0111589 0
-0.00456293 0.0113205 0
-0.00511646 0.0113788 0
-0.00572506 0.0113636 0
-0.00697017 0.0111665 0
-0.0082322 0.010815 0
-0.00949364 0.0103326 0
-0.0107355 0.00973622 0
-0.011939 0.00903593 0
-0.0130863 0.00823775 0
-0.01416 0.00734582 0
-0.0151431 0.00636462 0
-0.0160186 0.00530069 0
-0.0167697 0.00416359 0
-0.0171992 0.0029653 0
-0.0174688 0.0017149 0
-0.0177418 0.000393118 0
-0.0178247 -0.00097731 0
-0.017706 -0.00237272 0
-0.0173783 -0.00376956 0
-0.0168396 -0.00514472 0
-0.0160936 -0.00647615 0
-0.01515 -0.00774384 0
-0.0140243 -0.00893106 0
-0.0127383 -0.0100255 0
-0.0113216 -0.0110199 0
-0.0105799 -0.0119107 0
-0.00979842 -0.0126906 0
-0.00825476 -0.0131914 0
-0.00675077 -0.0134301 0
-0.00532754 -0.0134185 0
-0.00402512 -0.0131647 0
-0.00287856 -0.0126748 0
-0.00191514 -0.0119539 0
-0.00115208 -0.011006 0
-0.000594154 -0.00983424 0
-0.000231189 -0.0084421 0
-3.63743e-05 -0.00683751 0
3.30337e-05 -0.00503979 0
3.04512e-05 -0.00308846 0
9.12727e-06 -0.00104944 0
-7.20832e-06 0.00105629 0
-4.08768e-05 0.00304885 0
-0.000125071 0.00492025 0
-0.0002875 0.00661679 0
-0.000559365 0.00810097 0
-0.000968201 0.00935285 0
-0.00153263 0.0103677 0
-0.00226002 0.0111527 0
-0.00314668 0.0117234 0
-0.00417946 0.0121023 0
-0.00533761 0.0123175 0
-0.00593258 0.0124007 0
-0.00659216 0.0123795 0
-0.00795169 0.0121681 0
-0.00933292 0.0117919 0
-0.0107161 0.0112738 0
-0.0120803 0.0106313 0
-0.0134044 0.00987594 0
-0.0146679 0.00901458 0
-0.0158506 0.00805189 0
-0.0169326 0.00699251 0
-0.0178945 0.00584289 0
-0.0187169 0.00461226 0
-0.019186 0.00331184 0
-0.0194787 0.00195052 0
-0.0197722 0.000508885 0
-0.0198553 -0.00099027 0
-0.0197149 -0.00252215 0
-0.0193432 -0.00406127 0
-0.0187383 -0.00558206 0
-0.0179052 -0.0070597 0
-0.0168558 -0.00847109 0
-0.0156091 -0.0097959 0
-0.0141916 -0.0110173 0
-0.0126383 -0.0121216 0
-0.0118276 -0.0130963 0
-0.0109768 -0.0139252 0
-0.00929864 -0.0144524 0
-0.00767003 -0.0146863 0
-0.0061346 -0.0146344 0
-0.00473285 -0.0143037 0
-0.0034985 -0.0137015 0
-0.00245584 -0.0128372 0
-0.00161757 -0.0117218 0
-0.000983272 -0.0103695 0
-0.000538667 -0.00879901 0
-0.000256468 -0.00703655 0
-9.96745e-05 -0.00511967 0
-2.76142e-05 -0.00309995 0
-3.8428e-06 -0.00104234 0
-1.71204e-05 0.00109321 0
-8.68808e-05 0.00316168 0
-0.00023472 0.00512565 0
-0.000477618 0.00693655 0
-0.000836363 0.00855398 0
-0.00133123 0.00994918 0
-0.00197769 0.0111063 0
-0.00278341 0.0120219 0
-0.00374689 0.0127036 0
-0.00485761 0.0131687 0
-0.00609702 0.0134424 0
-0.0067295 0.0135547 0
-0.00743448 0.0135326 0
-0.00889611 0.0133079 0
-0.0103841 0.0129055 0
-0.0118767 0.0123485 0
-0.0133513 0.0116552 0
-0.0147847 0.0108382 0
-0.0161543 0.00990524 0
-0.0174375 0.00886163 0
-0.018612 0.00771219 0
-0.0196558 0.00646338 0
-0.0205472 0.00512426 0
-0.0210545 0.00370605 0
-0.0213712 0.00221865 0
-0.0216897 0.000639174 0
-0.0217789 -0.00100847 0
-0.0216243 -0.00269782 0
-0.0212171 -0.004401 0
-0.0205553 -0.00608946 0
-0.019645 -0.00773485 0
-0.0185001 -0.00931008 0
-0.0171432 -0.0107901 0
-0.0156052 -0.0121526 0
-0.0139256 -0.0133771 0
-0.0130513 -0.0144433 0
-0.0121351 -0.0153286 0
-0.0103285 -0.0158814 0
-0.00857954 -0.0161051 0
-0.00693408 -0.0160044 0
-0.00543262 -0.0155866 0
-0.00410711 -0.0148621 0
-0.00297883 -0.013846 0
-0.00205698 -0.012558 0
-0.0013382 -0.0110241 0
-0.000807296 -0.00927634 0
-0.000439518 -0.00735495 0
-0.000204488 -0.00530834 0
-7.1218e-05 -0.00319256 0
-1.31401e-05 -0.00106817 0
-2.48946e-05 0.00115961 0
-0.000123926 0.0033503 0
-0.000325753 0.00543836 0
-0.000640812 0.00738054 0
-0.00108224 0.00913703 0
-0.00166351 0.0106752 0
-0.00239551 0.0119722 0
-0.00328386 0.0130168 0
-0.00432713 0.0138096 0
-0.00551615 0.0143623 0
-0.00683435 0.0146966 0
-0.0075033 0.0148411 0
-0.00825074 0.0148227 0
-0.00980652 0.0145858 0
-0.0113929 0.014156 0
-0.0129867 0.0135572 0
-0.0145636 0.0128086 0
-0.0160993 0.0119239 0
-0.0175692 0.0109118 0
-0.0189487 0.00977779 0
-0.0202133 0.00852714 0
-0.0213388 0.00716632 0
-0.0223018 0.00570454 0
-0.0228484 0.00415355 0
-0.0231922 0.00252508 0
-0.0235438 0.000789725 0
-0.0236487 -0.00102659 0
-0.02349 -0.0028952 0
-0.0230574 -0.00478533 0
-0.0223487 -0.0066648 0
-0.0213703 -0.00850088 0
-0.0201382 -0.0102614 0
-0.018678 -0.0119158 0
-0.0170247 -0.0134349 0
-0.0152218 -0.0147916 0
-0.0142855 -0.0159586 0
-0.0133036 -0.0169089 0
-0.0113659 -0.0174881 0
-0.00949211 -0.0176972 0
-0.00773059 -0.0175405 0
-0.00612193 -0.017027 0
-0.0046967 -0.0161718 0
-0.00347403 -0.0149969 0
-0.00246101 -0.0135316 0
-0.00165325 -0.0118124 0
-0.00103646 -0.00988303 0
-0.000589263 -0.00779334 0
-0.000286727 -0.00559823 0
-0.000104103 -0.00335507 0
-1.98997e-05 -0.00112037 0
-3.11549e-05 0.00125199 0
-0.000154304 0.00360819 0
-0.000402008 0.00585338 0
-0.00078085 0.00794851 0
-0.00129867 0.00985553 0
-0.00196336 0.0115406 0
-0.00278108 0.0129773 0
-0.00375432 0.014149 0
-0.00488025 0.0150509 0
-0.00614983 0.0156902 0
-0.00754778 0.0160853 0
-0.00825422 0.0162636 0
-0.00904345 0.0162522 0
-0.0106898 0.0160038 0
-0.0123706 0.0155455 0
-0.0140614 0.0149023 0
-0.0157372 0.0140945 0
-0.0173724 0.0131368 0
-0.0189411 0.0120385 0
-0.0204172 0.0108056 0
-0.0217743 0.00944359 0
-0.0229863 0.00795898 0
-0.0240277 0.00636129 0
-0.0246173 0.00466329 0
-0.0249933 0.00287889 0
-0.0253902 0.000969445 0
-0.0255234 -0.00103641 0
-0.0253732 -0.0031073 0
-0.0249272 -0.00520901 0
-0.0241818 -0.00730498 0
-0.0231435 -0.00935716 0
-0.0218296 -0.0113272 0
-0.0202685 -0.0131776 0
-0.0184987 -0.014872 0
-0.016568 -0.0163758 0
-0.015567 -0.0176558 0
-0.0145148 -0.0186813 0
-0.0124348 -0.0192892 0
-0.0104237 -0.0194806 0
-0.00853297 -0.0192613 0
-0.00680407 -0.0186441 0
-0.00526706 -0.0176497 0
-0.00394001 -0.0163081 0
-0.00282919 -0.0146577 0
-0.00193031 -0.012745 0
-0.00123056 -0.0106229 0
-0.00071137 -0.00834842 0
-0.000351362 -0.00598077 0
-0.000129062 -0.00357799 0
-2.48619e-05 -0.0011941 0
-3.63356e-05 0.00136788 0
-0.00017977 0.00393019 0
-0.00046692 0.00636571 0
-0.000902198 0.00863823 0
-0.00148991 0.0107114 0
-0.00223372 0.0125516 0
-0.0031356 0.0141305 0
-0.00419464 0.0154287 0
-0.00540583 0.0164377 0
-0.00675935 0.0171615 0
-0.00824041 0.0176163 0
-0.00898671 0.0178286 0
-0.0098189 0.0178263 0
-0.0115563 0.0175667 0
-0.0133315 0.0170787 0
-0.0151196 0.0163888 0
-0.016895 0.0155184 0
-0.0186315 0.0144831 0
-0.0203022 0.0132926 0
-0.0218798 0.0119536 0
-0.0233363 0.0104712 0
-0.024644 0.00885217 0
-0.0257756 0.00710647 0
-0.026414 0.00524799 0
-0.0268297 0.00329291 0
-0.0272878 0.00119087 0
-0.0274654 -0.00102639 0
-0.027339 -0.00332435 0
-0.0268931 -0.00566481 0
-0.0261217 -0.00800603 0
-0.0250304 -0.0103036 0
-0.0236372 -0.0125115 0
-0.0219725 -0.0145842 0
-0.0200788 -0.0164768 0
-0.0180078 -0.0181472 0
-0.0169353 -0.0195558 0
-0.0158039 -0.0206691 0
-0.0135619 -0.0213096 0
-0.0113935 -0.021481 0
-0.0093542 -0.0211926 0
-0.00748737 -0.0204624 0
-0.00582373 -0.0193182 0
-0.00438133 -0.0177983 0
-0.00316642 -0.0159504 0
-0.00217518 -0.0138297 0
-0.00139591 -0.0114971 0
-0.000811646 -0.00901558 0
-0.000402582 -0.00644799 0
-0.000148165 -0.00385355 0
-2.85285e-05 -0.00128571 0
-4.07644e-05 0.00150552 0
-0.000201738 0.00431241 0
-0.000523539 0.0069712 0
-0.00100945 0.00944716 0
-0.00166152 0.0117052 0
-0.0024803 0.013712 0
-0.00346437 0.0154389 0
-0.00460962 0.0168651 0
-0.00590865 0.0179803 0
-0.00735027 0.0187868 0
-0.00891948 0.0192998 0
-0.00970879 0.0195455 0
-0.0105865 0.0195533 0
-0.012419 0.0192822 0
-0.0142925 0.0187632 0
-0.016182 0.0180245 0
-0.0180618 0.0170887 0
-0.0199055 0.0159721 0
-0.0216857 0.0146849 0
-0.023374 0.0132335 0
-0.0249414 0.0116232 0
-0.0263586 0.00986069 0
-0.0275964 0.00795614 0
-0.028292 0.0059246 0
-0.028757 0.00378429 0
-0.0292963 0.0014707 0
-0.0295383 -0.000981161 0
-0.0294541 -0.00353337 0
-0.0290238 -0.00614325 0
-0.0282378 -0.00876303 0
-0.0270996 -0.0113406 0
-0.0256266 -0.013821 0
-0.0238512 -0.0161486 0
-0.0218194 -0.018269 0
-0.0195881 -0.0201308 0
-0.0184334 -0.0216881 0
-0.0172092 -0.0229044 0
-0.0147773 -0.023583 0
-0.0124242 -0.0237322 0
-0.0102109 -0.0233668 0
-0.00818402 -0.0225116 0
-0.00637611 -0.0212029 0
-0.00480595 -0.0194878 0
-0.00348008 -0.0174232 0
-0.00239488 -0.0150733 0
-0.00153884 -0.0125061 0
-0.00089512 -0.00979044 0
-0.000443631 -0.00699304 0
-0.000162885 -0.00417547 0
-3.1235e-05 -0.00139232 0
-4.47009e-05 0.00166378 0
-0.000221382 0.0047523 0
-0.000574548 0.00766701 0
-0.001107 0.0103735 0
-0.00181937 0.0128371 0
-0.00271004 0.0150251 0
-0.00377489 0.0169087 0
-0.00500711 0.0184671 0
-0.0063969 0.0196895 0
-0.00793144 0.0205778 0
-0.00959503 0.0211475 0
-0.0104309 0.021426 0
-0.0113579 0.0214438 0
-0.0132922 0.0211606 0
-0.015271 0.0206095 0
-0.0172695 0.0198204 0
-0.0192622 0.0188172 0
-0.0212227 0.0176166 0
-0.0231236 0.0162292 0
-0.024936 0.0146611 0
-0.02663 0.0129171 0
-0.0281747 0.0110036 0
-0.0295394 0.0089309 0
-0.0303024 0.00671479 0
-0.0308285 0.00437513 0
-0.031474 0.00183056 0
-0.0318047 -0.000880703 0
-0.0317852 -0.00371733 0
-0.0313893 -0.00663181 0
-0.0306019 -0.00956947 0
-0.0294227 -0.0124691 0
-0.0278676 -0.0152648 0
-0.0259701 -0.0178888 0
-0.0237801 -0.0202746 0
-0.0213607 -0.0223604 0
-0.0201087 -0.0240921 0
-0.0187739 -0.0254297 0
-0.0161152 -0.0261531 0
-0.0135421 -0.0262771 0
-0.0111228 -0.025824 0
-0.00890888 -0.0248273 0
-0.00693563 -0.023333 0
-0.00522307 -0.0213986 0
-0.0037779 -0.0190908 0
-0.00259592 -0.0164829 0
-0.00166459 -0.0136507 0
-0.000965547 -0.0106693 0
-0.000476742 -0.00761021 0
-0.00017417 -0.0045385 0
-3.31842e-05 -0.00151151 0
-4.83531e-05 0.00184209 0
-0.000239667 0.00524856 0
-0.000622256 0.0084518 0
-0.00119882 0.0114167 0
-0.00196915 0.0141085 0
-0.00293009 0.0164944 0
-0.00407547 0.0185462 0
-0.0053962 0.0202434 0
-0.00688031 0.0215759 0
-0.00851327 0.0225467 0
-0.0102783 0.0231726 0
-0.0111647 0.0234831 0
-0.0121452 0.0235106 0
-0.0141903 0.0232145 0
-0.0162838 0.0226303 0
-0.0184015 0.0217899 0
-0.0205184 0.0207182 0
-0.0226086 0.0194325 0
-0.0246449 0.0179431 0
-0.0265983 0.0162557 0
-0.0284382 0.0143743 0
-0.0301328 0.0123046 0
-0.0316492 0.0100562 0
-0.0324922 0.00764557 0
-0.0330938 0.00509325 0
-0.0338761 0.00229805 0
-0.0343256 -0.000699112 0
-0.0343988 -0.00385382 0
-0.0340608 -0.00711359 0
-0.0332888 -0.010416 0
-0.0320763 -0.0136892 0
-0.0304362 -0.0168539 0
-0.0284021 -0.0198272 0
-0.026028 -0.0225274 0
-0.023385 -0.0248791 0
-0.0220167 -0.0268181 0
-0.0205484 -0.0282995 0
-0.017616 -0.0290755 0
-0.0147783 -0.0291695 0
-0.0121132 -0.0286134 0
-0.009679 -0.027452 0
-0.0075147 -0.025743 0
-0.00564179 -0.0235561 0
-0.0040666 -0.0209696 0
-0.00278325 -0.0180669 0
-0.00177664 -0.0149326 0
-0.00102516 -0.0116493 0
-0.000503108 -0.00829436 0
-0.000182476 -0.00493782 0
-3.44632e-05 -0.00164102 0
-5.18844e-05 0.00204034 0
-0.000257373 0.00580103 0
-0.000668571 0.00932577 0
-0.0012883 0.0125779 0
-0.00211587 0.0155219 0
-0.00314704 0.0181245 0
-0.00437406 0.0203582 0
-0.00578591 0.0222031 0
-0.00736871 0.0236508 0
-0.00910623 0.0247063 0
-0.0109805 0.025389 0
-0.0119214 0.0257313 0
-0.0129602 0.0257679 0
-0.0151265 0.0254584 0
-0.0173457 0.0248408 0
-0.0195947 0.0239489 0
-0.0218492 0.0228088 0
-0.0240842 0.0214383 0
-0.0262732 0.0198472 0
-0.0283875 0.0180403 0
-0.0303963 0.0160204 0
-0.0322669 0.0137917 0
-0.0339648 0.011363 0
-0.0349021 0.00875003 0
-0.0355967 0.00597336 0
-0.0365532 0.00290821 0
-0.0371594 -0.000402764 0
-0.037361 -0.00391289 0
-0.0371119 -0.00756501 0
-0.0363785 -0.0112884 0
-0.0351452 -0.0149986 0
-0.033419 -0.0185999 0
-0.0312324 -0.0219904 0
-0.0286437 -0.0250686 0
-0.0257337 -0.0277408 0
-0.0242256 -0.0299292 0
-0.0225952 -0.0315822 0
-0.0193303 -0.0324198 0
-0.0161719 -0.0324763 0
-0.013211 -0.031796 0
-0.0105147 -0.0304377 0
-0.00812698 -0.0284744 0
-0.00607089 -0.0259908 0
-0.00435156 -0.0230791 0
-0.00295996 -0.0198351 0
-0.00187658 -0.0163541 0
-0.00107465 -0.0127276 0
-0.000522916 -0.00904026 0
-0.000187797 -0.00536834 0
-3.50525e-05 -0.00177836 0
-5.5419e-05 0.00225878 0
-0.000275103 0.00641055 0
-0.000715001 0.0102905 0
-0.00137819 0.0138598 0
-0.00226372 0.0170812 0
-0.00336652 0.0199211 0
-0.00467757 0.0223521 0
-0.00618424 0.0243557 0
-0.00787089 0.0259255 0