# vtk DataFile Version 2.0
Presion
ASCII

DATASET STRUCTURED_GRID
DIMENSIONS   50   50   20

POINTS   50000   double
0.00568455   0.00568455   0.025
0.0174023   0.00568455   0.025
0.0298294   0.00568455   0.025
0.0429888   0.00568455   0.025
0.0569012   0.00568455   0.025
0.0715849   0.00568455   0.025
0.0870549   0.00568455   0.025
0.103323   0.00568455   0.025
0.120395   0.00568455   0.025
0.138275   0.00568455   0.025
0.156961   0.00568455   0.025
0.176443   0.00568455   0.025
0.196707   0.00568455   0.025
0.217734   0.00568455   0.025
0.239496   0.00568455   0.025
0.261959   0.00568455   0.025
0.285082   0.00568455   0.025
0.308818   0.00568455   0.025
0.333113   0.00568455   0.025
0.357906   0.00568455   0.025
0.383132   0.00568455   0.025
0.408719   0.00568455   0.025
0.434592   0.00568455   0.025
0.460672   0.00568455   0.025
0.486877   0.00568455   0.025
0.513123   0.00568455   0.025
0.539328   0.00568455   0.025
0.565408   0.00568455   0.025
0.591281   0.00568455   0.025
0.616868   0.00568455   0.025
0.642094   0.00568455   0.025
0.666887   0.00568455   0.025
0.691182   0.00568455   0.025
0.714918   0.00568455   0.025
0.738041   0.00568455   0.025
0.760504   0.00568455   0.025
0.782266   0.00568455   0.025
0.803293   0.00568455   0.025
0.823557   0.00568455   0.025
0.843039   0.00568455   0.025
0.861725   0.00568455   0.025
0.879605   0.00568455   0.025
0.896677   0.00568455   0.025
0.912945   0.00568455   0.025
0.928415   0.00568455   0.025
0.943099   0.00568455   0.025
0.957011   0.00568455   0.025
0.970171   0.00568455   0.025
0.982598   0.00568455   0.025
0.994315   0.00568455   0.025
0.00568455   0.0174023   0.025
0.0174023   0.0174023   0.025
0.0298294   0.0174023   0.025
0.0429888   0.0174023   0.025
0.0569012   0.0174023   0.025
0.0715849   0.0174023   0.025
0.0870549   0.0174023   0.025
0.103323   0.0174023   0.025
0.120395   0.0174023   0.025
0.138275   0.0174023   0.025
0.156961   0.0174023   0.025
0.176443   0.0174023   0.025
0.196707   0.0174023   0.025
0.217734   0.0174023   0.025
0.239496   0.0174023   0.025
0.261959   0.0174023   0.025
0.285082   0.0174023   0.025
0.308818   0.0174023   0.025
0.333113   0.0174023   0.025
0.357906   0.0174023   0.025
0.383132   0.0174023   0.025
0.408719   0.0174023   0.025
0.434592   0.0174023   0.025
0.460672   0.0174023   0.025
0.486877   0.0174023   0.025
0.513123   0.0174023   0.025
0.539328   0.0174023   0.025
0.565408   0.0174023   0.025
0.591281   0.0174023   0.025
0.616868   0.0174023   0.025
0.642094   0.0174023   0.025
0.666887   0.0174023   0.025
0.691182   0.0174023   0.025
0.714918   0.0174023   0.025
0.738041   0.0174023   0.025
0.760504   0.0174023   0.025
0.782266   0.0174023   0.025
0.803293   0.0174023   0.025
0.823557   0.0174023   0.025
0.843039   0.0174023   0.025
0.861725   0.0174023   0.025
0.879605   0.0174023   0.025
0.896677   0.0174023   0.025
0.912945   0.0174023   0.025
0.928415   0.0174023   0.025
0.943099   0.0174023   0.025
0.957011   0.0174023   0.025
0.970171   0.0174023   0.025
0.982598   0.0174023   0.025
0.994315   0.0174023   0.025
0.00568455   0.0298294   0.025
0.0174023   0.0298294   0.025
0.0298294   0.0298294   0.025
0.0429888   0.0298294   0.025
0.0569012   0.0298294   0.025
0.0715849   0.0298294   0.025
0.0870549   0.0298294   0.025
0.103323   0.0298294   0.025
0.120395   0.0298294   0.025
0.138275   0.0298294   0.025
0.156961   0.0298294   0.025
0.176443   0.0298294   0.025
0.196707   0.0298294   0.025
0.217734   0.0298294   0.025
0.239496   0.0298294   0.025
0.261959   0.0298294   0.025
0.285082   0.0298294   0.025
0.308818   0.0298294   0.025
0.333113   0.0298294   0.025
0.357906   0.0298294   0.025
0.383132   0.0298294   0.025
0.408719   0.0298294   0.025
0.434592   0.0298294   0.025
0.460672   0.0298294   0.025
0.486877   0.0298294   0.025
0.513123   0.0298294   0.025
0.539328   0.0298294   0.025
0.565408   0.0298294   0.025
0.591281   0.0298294   0.025
0.616868   0.0298294   0.025
0.642094   0.0298294   0.025
0.666887   0.0298294   0.025
0.691182   0.0298294   0.025
0.714918   0.0298294   0.025
0.738041   0.0298294   0.025
0.760504   0.0298294   0.025
0.782266   0.0298294   0.025
0.803293   0.0298294   0.025
0.823557   0.0298294   0.025
0.843039   0.0298294   0.025
0.861725   0.0298294   0.025
0.879605   0.0298294   0.025
0.896677   0.0298294   0.025
0.912945   0.0298294   0.025
0.928415   0.0298294   0.025
0.943099   0.0298294   0.025
0.957011   0.0298294   0.025
0.970171   0.0298294   0.025
0.982598   0.0298294   0.025
0.994315   0.0298294   0.025
0.00568455   0.0429888   0.025
0.0174023   0.0429888   0.025
0.0298294   0.0429888   0.025
0.0429888   0.0429888   0.025
0.0569012   0.0429888   0.025
0.0715849   0.0429888   0.025
0.0870549   0.0429888   0.025
0.103323   0.0429888   0.025
0.120395   0.0429888   0.025
0.138275   0.0429888   0.025
0.156961   0.0429888   0.025
0.176443   0.0429888   0.025
0.196707   0.0429888   0.025
0.217734   0.0429888   0.025
0.239496   0.0429888   0.025
0.261959   0.0429888   0.025
0.285082   0.0429888   0.025
0.308818   0.0429888   0.025
0.333113   0.0429888   0.025
0.357906   0.0429888   0.025
0.383132   0.0429888   0.025
0.408719   0.0429888   0.025
0.434592   0.0429888   0.025
0.460672   0.0429888   0.025
0.486877   0.0429888   0.025
0.513123   0.0429888   0.025
0.539328   0.0429888   0.025
0.565408   0.0429888   0.025
0.591281   0.0429888   0.025
0.616868   0.0429888   0.025
0.642094   0.0429888   0.025
0.666887   0.0429888   0.025
0.691182   0.0429888   0.025
0.714918   0.0429888   0.025
0.738041   0.0429888   0.025
0.760504   0.0429888   0.025
0.782266   0.0429888   0.025
0.803293   0.0429888   0.025
0.823557   0.0429888   0.025
0.843039   0.0429888   0.025
0.861725   0.0429888   0.025
0.879605   0.0429888   0.025
0.896677   0.0429888   0.025
0.912945   0.0429888   0.025
0.928415   0.0429888   0.025
0.943099   0.0429888   0.025
0.957011   0.0429888   0.025
0.970171   0.0429888   0.025
0.982598   0.0429888   0.025
0.994315   0.0429888   0.025
0.00568455   0.0569012   0.025
0.0174023   0.0569012   0.025
0.0298294   0.0569012   0.025
0.0429888   0.0569012   0.025
0.0569012   0.0569012   0.025
0.0715849   0.0569012   0.025
0.0870549   0.0569012   0.025
0.103323   0.0569012   0.025
0.120395   0.0569012   0.025
0.138275   0.0569012   0.025
0.156961   0.0569012   0.025
0.176443   0.0569012   0.025
0.196707   0.0569012   0.025
0.217734   0.0569012   0.025
0.239496   0.0569012   0.025
0.261959   0.0569012   0.025
0.285082   0.0569012   0.025
0.308818   0.0569012   0.025
0.333113   0.0569012   0.025
0.357906   0.0569012   0.025
0.383132   0.0569012   0.025
0.408719   0.0569012   0.025
0.434592   0.0569012   0.025
0.460672   0.0569012   0.025
0.486877   0.0569012   0.025
0.513123   0.0569012   0.025
0.539328   0.0569012   0.025
0.565408   0.0569012   0.025
0.591281   0.0569012   0.025
0.616868   0.0569012   0.025
0.642094   0.0569012   0.025
0.666887   0.0569012   0.025
0.691182   0.0569012   0.025
0.714918   0.0569012   0.025
0.738041   0.0569012   0.025
0.760504   0.0569012   0.025
0.782266   0.0569012   0.025
0.803293   0.0569012   0.025
0.823557   0.0569012   0.025
0.843039   0.0569012   0.025
0.861725   0.0569012   0.025
0.879605   0.0569012   0.025
0.896677   0.0569012   0.025
0.912945   0.0569012   0.025
0.928415   0.0569012   0.025
0.943099   0.0569012   0.025
0.957011   0.0569012   0.025
0.970171   0.0569012   0.025
0.982598   0.0569012   0.025
0.994315   0.0569012   0.025
0.00568455   0.0715849   0.025
0.0174023   0.0715849   0.025
0.0298294   0.0715849   0.025
0.0429888   0.0715849   0.025
0.0569012   0.0715849   0.025
0.0715849   0.0715849   0.025
0.0870549   0.0715849   0.025
0.103323   0.0715849   0.025
0.120395   0.0715849   0.025
0.138275   0.0715849   0.025
0.156961   0.0715849   0.025
0.176443   0.0715849   0.025
0.196707   0.0715849   0.025
0.217734   0.0715849   0.025
0.239496   0.0715849   0.025
0.261959   0.0715849   0.025
0.285082   0.0715849   0.025
0.308818   0.0715849   0.025
0.333113   0.0715849   0.025
0.357906   0.0715849   0.025
0.383132   0.0715849   0.025
0.408719   0.0715849   0.025
0.434592   0.0715849   0.025
0.460672   0.0715849   0.025
0.486877   0.0715849   0.025
0.513123   0.0715849   0.025
0.539328   0.0715849   0.025
0.565408   0.0715849   0.025
0.591281   0.0715849   0.025
0.616868   0.0715849   0.025
0.642094   0.0715849   0.025
0.666887   0.0715849   0.025
0.691182   0.0715849   0.025
0.714918   0.0715849   0.025
0.738041   0.0715849   0.025
0.760504   0.0715849   0.025
0.782266   0.0715849   0.025
0.803293   0.0715849   0.025
0.823557   0.0715849   0.025
0.843039   0.0715849   0.025
0.861725   0.0715849   0.025
0.879605   0.0715849   0.025
0.896677   0.0715849   0.025
0.912945   0.0715849   0.025
0.928415   0.0715849   0.025
0.943099   0.0715849   0.025
0.957011   0.0715849   0.025
0.970171   0.0715849   0.025
0.982598   0.0715849   0.025
0.994315   0.0715849   0.025
0.00568455   0.0870549   0.025
0.0174023   0.0870549   0.025
0.0298294   0.0870549   0.025
0.0429888   0.0870549   0.025
0.0569012   0.0870549   0.025
0.0715849   0.0870549   0.025
0.0870549   0.0870549   0.025
0.103323   0.0870549   0.025
0.120395   0.0870549   0.025
0.138275   0.0870549   0.025
0.156961   0.0870549   0.025
0.176443   0.0870549   0.025
0.196707   0.0870549   0.025
0.217734   0.0870549   0.025
0.239496   0.0870549   0.025
0.261959   0.0870549   0.025
0.285082   0.0870549   0.025
0.308818   0.0870549   0.025
0.333113   0.0870549   0.025
0.357906   0.0870549   0.025
0.383132   0.0870549   0.025
0.408719   0.0870549   0.025
0.434592   0.0870549   0.025
0.460672   0.0870549   0.025
0.486877   0.0870549   0.025
0.513123   0.0870549   0.025
0.539328   0.0870549   0.025
0.565408   0.0870549   0.025
0.591281   0.0870549   0.025
0.616868   0.0870549   0.025
0.642094   0.0870549   0.025
0.666887   0.0870549   0.025
0.691182   0.0870549   0.025
0.714918   0.0870549   0.025
0.738041   0.0870549   0.025
0.760504   0.0870549   0.025
0.782266   0.0870549   0.025
[...]
POINT_DATA   50000
SCALARS Presion double
LOOKUP_TABLE   Presion

0 0 0 0 0 0 0 0 0 0 0 0 0 0 0 0 0 0 0 0 0 0 0 0 0 0 0 0 0 0 0 0 0 0 0 0 0 0 0 0 0 0 0 0 0 0 0 0 0 0 0.000114015 0.000115939 0.000106584 8.39822e-05 5.01008e-05 7.99181e-06 -3.91523e-05 -8.84821e-05 -0.000137864 -0.000186212 -0.000233679 -0.000282205 -0.000431991 -0.000457163 -0.000452225 -0.000420632 -0.000365219 -0.00028773 -0.000189302 -7.11163e-05 6.49382e-05 0.000215718 0.000376593 0.000541515 0.000726092 0.000874135 0.000991922 0.00106861 0.00109576 0.00106847 0.000986175 0.00085311 0.000678104 0.000473949 0.000256267 4.24563e-05 -9.92581e-05 -0.000304068 -0.000500464 -0.000677327 -0.000827005 -0.000944871 -0.00102849 -0.00107696 -0.00109035 -0.0010694 -0.0010155 -0.000931662 -0.000828012 -0.000744293 0.000182986 0.000175151 0.000159982 0.00013605 0.000103946 6.54524e-05 2.28448e-05 -2.16023e-05 -6.59604e-05 -0.000108814 -0.000148991 -0.000186522 -0.000377309 -0.000392944 -0.000385726 -0.000355837 -0.00030451 -0.000232805 -0.000141606 -3.20406e-05 9.39662e-05 0.00023317 0.000380593 0.000528747 0.000705485 0.000838421 0.000942409 0.00100666 0.0010232 0.000987654 0.000899829 0.000764069 0.000588973 0.000386579 0.000170945 -4.24206e-05 -0.000147121 -0.000351281 -0.000542717 -0.000713203 -0.000856774 -0.000969885 -0.00105096 -0.00109997 -0.00111817 -0.00110818 -0.00107461 -0.00102589 -0.000978188 -0.000961182 0.000260983 0.000245578 0.000224424 0.0001973 0.000164688 0.000127782 8.82141e-05 4.77478e-05 8.04624e-06 -2.93673e-05 -6.27216e-05 -9.23228e-05 -0.000326962 -0.000334615 -0.000324888 -0.000296452 -0.000249335 -0.000183881 -0.000100574 -3.10784e-07 0.000115132 0.000242577 0.000376891 0.000509778 0.000678721 0.000799755 0.000892913 0.000947513 0.000955785 0.000913464 0.000820435 0.000680982 0.000503469 0.000299397 8.18513e-05 -0.000133965 -0.000197651 -0.000404111 -0.000594137 -0.000761413 -0.000901561 -0.00101224 -0.00109284 -0.00114425 -0.00116865 -0.00116975 -0.00115318 -0.00112727 -0.00110364 -0.00109571 0.000350426 0.000326087 0.000297832 0.000265958 0.000231039 0.000194012 0.000156085 0.000118591 8.2876e-05 5.0338e-05 2.2807e-05 -1.14516e-06 -0.000281086 -0.000282868 -0.00027128 -0.000244597 -0.000202118 -0.000143564 -6.89406e-05 2.12446e-05 0.000125556 0.000241096 0.000362872 0.000482255 0.000642467 0.000755069 0.000840625 0.000888628 0.000891243 0.000843988 0.000746476 0.000602728 0.000420843 0.000211987 -1.11925e-05 -0.000232853 -0.000252491 -0.000464305 -0.000656305 -0.000823481 -0.000962893 -0.0010734 -0.00115537 -0.0012104 -0.00124123 -0.00125173 -0.00124698 -0.00123314 -0.00121682 -0.00120314 0.000449481 0.000414424 0.000377614 0.000339533 0.0003008 0.000262197 0.000224626 0.00018904 0.000156413 0.000127837 0.000104853 8.45411e-05 -0.000241389 -0.000239522 -0.000227335 -0.000203257 -0.000166247 -0.000115544 -5.06448e-05 2.8461e-05 0.000120876 0.000224236 0.000334039 0.000441708 0.000591707 0.000699338 0.000780657 0.000825388 0.000825399 0.000775622 0.000675026 0.000527089 0.000339542 0.000123346 -0.000108893 -0.00034 -0.000313153 -0.000533638 -0.000730881 -0.000900954 -0.00104224 -0.00115475 -0.00123968 -0.00129917 -0.00133612 -0.00135406 -0.00135696 -0.00134893 -0.00133354 -0.00131282 0.000553995 0.000506751 0.000460046 0.000414473 0.000370659 0.000329249 0.000290874 0.000256119 0.000225537 0.000199782 0.00017991 0.000161341 -0.000211011 -0.000207747 -0.000196682 -0.000176613 -0.000146412 -0.000104969 -5.12773e-05 1.52997e-05 9.45975e-05 0.000185071 0.000283096 0.000380502 0.000518884 0.000624661 0.000705083 0.000750174 0.000751255 0.000702267 0.000601079 0.000450231 0.00025684 3.16478e-05 -0.000212547 -0.000456696 -0.000381396 -0.000613988 -0.00081956 -0.00099533 -0.00114098 -0.00125757 -0.00134701 -0.00141176 -0.00145467 -0.00147877 -0.00148708 -0.00148234 -0.00146668 -0.00144132 0.000658167 0.00059763 0.000539953 0.000485846 0.000435927 0.000390691 0.000350488 0.000315514 0.000285858 0.000261648 0.000243345 0.000224656 -0.000194655 -0.000192334 -0.000184536 -0.000170472 -0.00014907 -0.000118982 -7.87151e-05 -2.69214e-05 3.71584e-05 0.000113103 0.000198609 0.000286279 0.000412627 0.000518827 0.000601403 0.000650784 0.000657477 0.000613943 0.00051636 0.000365743 0.000168132 -6.61868e-05 -0.00032421 -0.000584601 -0.000459609 -0.000707479 -0.000924024 -0.00110796 -0.00126032 -0.00138308 -0.0014787 -0.00154982 -0.00159914 -0.00162925 -0.0016425 -0.00164094 -0.00162614 -0.00159926 0.000754614 0.000679952 0.00061049 0.000547064 0.000490257 0.000440381 0.000397469 0.000361284 0.000331399 0.000307363 0.00028899 0.000268274 -0.00019887 -0.00020005 -0.000198158 -0.00019281 -0.000183074 -0.000167453 -0.000144004 -0.000110608 -6.54004e-05 -7.35022e-06 6.30628e-05 0.000139675 0.000255827 0.000363071 0.000450102 0.000507909 0.000525882 0.000494418 0.000407219 0.000262897 6.56194e-05 -0.000175363 -0.000447124 -0.000725796 -0.000551416 -0.000816716 -0.00104595 -0.00123995 -0.00140116 -0.00153231 -0.00163615 -0.00171535 -0.00177238 -0.0018095 -0.00182868 -0.00183162 -0.00181976 -0.0017944 0.000834187 0.000744765 0.000662932 0.000589633 0.000525377 0.000470237 0.000423863 0.000385529 0.000354237 0.00032891 0.000308692 0.000283885 -0.000232452 -0.000240098 -0.000247422 -0.000254452 -0.000260477 -0.00026395 -0.000262547 -0.000253354 -0.000233243 -0.000199381 -0.000149854 -8.89353e-05 2.27561e-05 0.000128704 0.000220928 0.00029118 0.000327435 0.000317341 0.000251077 0.000123586 -6.41271e-05 -0.000304932 -0.000586704 -0.000883087 -0.00066274 -0.000945265 -0.00118711 -0.0013921 -0.00156403 -0.001706 -0.00182069 -0.00191048 -0.00197753 -0.00202379 -0.00205097 -0.00206063 -0.00205423 -0.00203325 0.000885704 0.000781048 0.00068645 0.000602923 0.000530843 0.000469965 0.000419475 0.000378078 0.000344138 0.000315904 0.000291826 0.00026055 -0.000306923 -0.000324665 -0.000345486 -0.000369896 -0.000397533 -0.000426966 -0.000455618 -0.00047983 -0.000495085 -0.000496395 -0.000478809 -0.000443752 -0.000325095 -0.000227719 -0.000132492 -4.66353e-05 1.62101e-05 4.02175e-05 1.07198e-05 -8.27891e-05 -0.00024443 -0.000471015 -0.000752603 -0.00106095 -0.000803711 -0.00109859 -0.00134978 -0.00156505 -0.0017491 -0.00190462 -0.00203351 -0.0021374 -0.00221788 -0.00227648 -0.00231468 -0.00233394 -0.0023358 -0.00232192 0.000895685 0.000775486 0.000667901 0.000573961 0.000493826 0.000426837 0.000371612 0.000326188 0.000288207 0.00025518 0.000224821 0.000184143 -0.000437072 -0.000469547 -0.000509548 -0.00055824 -0.000615854 -0.00068135 -0.000752156 -0.000824014 -0.000890976 -0.000945552 -0.000979067 -0.000988683 -0.000844652 -0.00077082 -0.000679853 -0.000577539 -0.000479024 -0.00040424 -0.000374234 -0.000407305 -0.000515516 -0.000702457 -0.000962736 -0.00126783 -0.000992025 -0.00128595 -0.00153788 -0.00176001 -0.00195667 -0.00212866 -0.00227591 -0.00239854 -0.00249705 -0.00257231 -0.00262545 -0.00265783 -0.00267102 -0.00266687 0.000848162 0.000712306 0.000591697 0.00048731 0.00039899 0.000325548 0.000264912 0.000214332 0.000170621 0.000130458 9.07336e-05 3.6833e-05 -0.000641466 -0.000694765 -0.000761602 -0.000844131 -0.000943593 -0.0010598 -0.00119062 -0.00133151 -0.00147515 -0.00161125 -0.00172669 -0.00181238 -0.00161814 -0.00159394 -0.00152261 -0.00140769 -0.00126511 -0.00111915 -0.000998763 -0.00093284 -0.00094512 -0.00105006 -0.00125053 -0.00152117 -0.00125862 -0.00152409 -0.00175956 -0.00198065 -0.00218853 -0.00237962 -0.00255006 -0.00269714 -0.00281951 -0.00291691 -0.00298988 -0.00303956 -0.00306755 -0.00307585 0.000724624 0.000573266 0.000439809 0.000325084 0.000228505 0.000148219 8.13243e-05 2.41421e-05 -2.74826e-05 -7.78421e-05 -0.000131007 -0.000203268 -0.000942855 -0.00102504 -0.00112904 -0.00125852 -0.00141639 -0.00160404 -0.00182043 -0.00206128 -0.00231807 -0.00257748 -0.00282123 -0.00303115 -0.00275995 -0.00282609 -0.00280158 -0.00268604 -0.00249445 -0.00225487 -0.00200525 -0.00178791 -0.00164266 -0.00160018 -0.00167697 -0.00185719 -0.00165678 -0.00184405 -0.0020325 -0.00223705 -0.00245086 -0.00266215 -0.00286047 -0.00303842 -0.00319155 -0.00331772 -0.00341645 -0.00348843 -0.0035352 -0.00355895 0.000504208 0.000337867 0.000192003 6.71962e-05 -3.77006e-05 -0.000125356 -0.000199662 -0.000265394 -0.00032785 -0.000392483 -0.000464549 -0.000562125 -0.00136824 -0.00148993 -0.00164479 -0.00183887 -0.00207766 -0.00236511 -0.00270229 -0.00308585 -0.00350639 -0.00394728 -0.00438429 -0.00478658 -0.00442055 -0.00463462 -0.00469928 -0.00460719 -0.00436929 -0.00401561 -0.00359301 -0.00315928 -0.00277464 -0.00249202 -0.00234855 -0.00234841 -0.00227499 -0.00230219 -0.00239286 -0.00255246 -0.00275902 -0.00298729 -0.00321635 -0.00343131 -0.00362266 -0.00378516 -0.0039166 -0.00401683 -0.00408717 -0.00412994 0.000164229 -1.60956e-05 -0.000173594 -0.000308061 -0.000421357 -0.00051713 -0.000600442 -0.000677357 -0.000754532 -0.000838841 -0.000937041 -0.0010692 -0.00194839 -0.0021232 -0.00234668 -0.00262832 -0.00297748 -0.00340197 -0.00390613 -0.00448839 -0.00513872 -0.0058367 -0.00655106 -0.00723387 -0.00678203 -0.00721754 -0.00743018 -0.00740079 -0.00713197 -0.00665229 -0.00601551 -0.00529506 -0.00457427 -0.00393392 -0.00343936 -0.00313026 -0.0032515 -0.00299492 -0.00290771 -0.00297263 -0.00314414 -0.00337704 -0.00363467 -0.0038905 -0.00412702 -0.00433387 -0.00450586 -0.00464136 -0.00474113 -0.00480749 -0.000318859 -0.000511554 -0.000679505 -0.000823023 -0.000944842 -0.00104977 -0.00114423 -0.0012358 -0.00133275 -0.00144369 -0.00157732 -0.00175602 -0.00271639 -0.0029612 -0.00327541 -0.00367327 -0.00416951 -0.00477735 -0.00550564 -0.00635531 -0.00731558 -0.00836119 -0.00945198 -0.010518 -0.0100386 -0.0107786 -0.0112111 -0.0112989 -0.0110312 -0.0104304 -0.00955303 -0.0084851 -0.00733261 -0.00620704 -0.00520871 -0.00443203 -0.00478193 -0.00407177 -0.00368732 -0.00357563 -0.00366026 -0.0038692 -0.00414332 -0.00443857 -0.00472491 -0.00498367 -0.00520466 -0.00538357 -0.00551998 -0.005616 -0.000967966 -0.00117069 -0.00134743 -0.00149917 -0.00162968 -0.00174511 -0.00185346 -0.00196404 -0.00208705 -0.00223322 -0.00241367 -0.00265359 -0.003705 -0.00403979 -0.00447083 -0.00501873 -0.00570521 -0.00655035 -0.00756858 -0.00876351 -0.0101227 -0.0116139 -0.013185 -0.0147391 -0.0143563 -0.0154812 -0.0162086 -0.0164779 -0.0162603 -0.015567 -0.0144513 -0.013006 -0.0113547 -0.00963779 -0.00799389 -0.00659178 -0.00710486 -0.00573543 -0.00489045 -0.00447839 -0.00439029 -0.00452191 -0.00478413 -0.00510776 -0.00544368 -0.00576008 -0.00603848 -0.00626993 -0.00645179 -0.00658544 -0.00180336 -0.00201297 -0.00219629 -0.00235514 -0.00249451 -0.00262207 -0.00274758 -0.00288234 -0.00303877 -0.00323015 -0.00347062 -0.00378873 -0.00494264 -0.00538958 -0.0059664 -0.00670158 -0.0076253 -0.00876567 -0.010143 -0.011763 -0.0136093 -0.015639 -0.0177832 -0.0199142 -0.0198161 -0.0213868 -0.0224726 -0.0229857 -0.0228773 -0.0221442 -0.0208313 -0.01903 -0.0168725 -0.0145209 -0.0121501 -0.0100164 -0.0104518 -0.00821634 -0.00671468 -0.0058361 -0.00544891 -0.00541697 -0.00561539 -0.00594134 -0.00631819 -0.00669404 -0.00703723 -0.00733099 -0.00756866 -0.00775004 -0.00284023 -0.00305276 -0.00323988 -0.00340443 -0.00355274 -0.00369418 -0.00384045 -0.00400506 -0.00420295 -0.00445035 -0.00476498 -0.00517942 -0.00644809 -0.00702998 -0.0077821 -0.00874205 -0.00994948 -0.0114409 -0.0132421 -0.0153583 -0.0177659 -0.0204064 -0.0231878 -0.0259491 -0.0263554 -0.0283997 -0.029879 -0.0306805 -0.0307374 -0.0300326 -0.0286 -0.0265228 -0.0239312 -0.0209972 -0.0179242 -0.0150531 -0.0149707 -0.0117206 -0.00936866 -0.00783094 -0.00698031 -0.00666122 -0.00671368 -0.0069947 -0.00739081 -0.00782112 -0.00823375 -0.00859935 -0.0089044 -0.00914562 -0.00408611 -0.00429684 -0.00448445 -0.0046529 -0.00481003 -0.00496699 -0.00513758 -0.00533767 -0.00558497 -0.00589903 -0.00630162 -0.0068299 -0.0082247 -0.00896265 -0.00991693 -0.011135 -0.0126662 -0.0145549 -0.0168302 -0.0194939 -0.02251 -0.0257984 -0.0292382 -0.0326346 -0.0337393 -0.036245 -0.0381148 -0.0392183 -0.0394773 -0.0388669 -0.0374113 -0.0351826 -0.0323005 -0.0289336 -0.0252992 -0.021798 -0.0206605 -0.0163677 -0.0130285 -0.0106471 -0.00914678 -0.00838271 -0.00817322 -0.00833519 -0.00871072 -0.00917986 -0.00966143 -0.0101067 -0.0104911 -0.0108058 -0.0055385 -0.00574216 -0.00592647 -0.00609663 -0.00626204 -0.00643572 -0.00663361 -0.00687408 -0.00717772 -0.00756759 -0.00806983 -0.00872648 -0.0102553 -0.0111659 -0.0123428 -0.0138432 -0.0157255 -0.0180402 -0.0208167 -0.0240491 -0.0276838 -0.0316141 -0.0356852 -0.0396715 -0.0415853 -0.0445049 -0.0467243 -0.0481071 -0.048575 -0.0481034 -0.0467139 -0.0444689 -0.0414732 -0.0378807 -0.0339041 -0.0299559 -0.0273532 -0.0221405 -0.0177848 -0.0144296 -0.0121029 -0.0107172 -0.0100995 -0.0100389 -0.0103313 -0.0108088 -0.0113506 -0.0118798 -0.0123544 -0.0127569 -0.00718322 -0.00737429 -0.00755121 -0.00772045 -0.00789302 -0.00808378 -0.00831081 -0.00859493 -0.00895965 -0.00943155 -0.0100411 -0.0108353 -0.0124991 -0.0135917 -0.0150015 -0.0167948 -0.0190375 -0.0217835 -0.0250591 -0.0288465 -0.03307 -0.0375931 -0.0422261 -0.0467173 -0.0494393 -0.0527019 -0.0552032 -0.0568135 -0.0574654 -0.0571451 -0.0558789 -0.0537254 -0.0507756 -0.0471613 -0.0430713 -0.0388744 -0.0347406 -0.0288594 -0.0235906 -0.0192308 -0.0159536 -0.0137805 -0.0125932 -0.0121811 -0.0123037 -0.0127412 -0.013323 -0.0139342 -0.0145075 -0.0150116 -0.00899395 -0.00916705 -0.00933236 -0.0094977 -0.00967556 -0.00988256 -0.0101388 -0.0104674 -0.0108947 -0.0114505 -0.0121694 -0.0131027 -0.0148922 -0.0161663 -0.0178066 -0.0198866 -0.0224777 -0.0256344 -0.0293766 -0.0336713 -0.0384188 -0.043452 -0.0485492 -0.0534385 -0.0568698 -0.0603959 -0.0631012 -0.0648725 -0.0656624 -0.0654747 -0.0643478 -0.0623432 -0.0595426 -0.0560546 -0.0520309 -0.0477536 -0.0424187 -0.0361866 -0.030229 -0.0249595 -0.0207032 -0.0176286 -0.0157227 -0.0148192 -0.0146655 -0.0149959 -0.0155843 -0.0162672 -0.0169432 -0.0175607 -0.0109333 -0.0110836 -0.0112333 -0.0113914 -0.0115718 -0.0117928 -0.0120761 -0.012447 -0.0129341 -0.0135703 -0.0143936 -0.0154587 -0.0173515 -0.0187959 -0.0206498 -0.0229927 -0.0258989 -0.029421 -0.0335706 -0.0382979 -0.0434799 -0.0489215 -0.0543739 -0.0595518 -0.0635397 -0.0672526 -0.070089 -0.0719567 -0.0728318 -0.0727388 -0.0717323 -0.0698824 -0.067268 -0.0639787 -0.0601266 -0.0558936 -0.0499369 -0.0436669 -0.0373207 -0.0313565 -0.0262137 -0.0222141 -0.0194893 -0.0179674 -0.0174235 -0.0175656 -0.0181137 -0.0188486 -0.0196253 -0.0203648 -0.0129552 -0.0130789 -0.0132095 -0.013357 -0.0135365 -0.0137674 -0.0140731 -0.0144805 -0.0150203 -0.0157274 -0.0166428 -0.0178229 -0.0197827 -0.0213746 -0.0234117 -0.0259772 -0.0291464 -0.032969 -0.0374472 -0.0425155 -0.0480304 -0.053774 -0.059477 -0.0648461 -0.0692307 -0.0730646 -0.0759739 -0.0778867 -0.0788007 -0.0787602 -0.0778365 -0.0761115 -0.0736677 -0.0705843 -0.0669418 -0.0628378 -0.0568579 -0.0508032 -0.0443822 -0.0380173 -0.0321949 -0.0273585 -0.0237956 -0.0215707 -0.0205346 -0.0204023 -0.0208534 -0.0216115 -0.0224802 -0.0233459 -0.0150092 -0.0151038 -0.0152125 -0.0153461 -0.0155204 -0.0157559 -0.0160769 -0.0165115 -0.0170917 -0.0178544 -0.0188422 -0.020112 -0.0220892 -0.0237956 -0.0259733 -0.0287079 -0.0320746 -0.0361194 -0.0408363 -0.0461475 -0.0518933 -0.0578394 -0.0637028 -0.0691854 -0.0738306 -0.0777338 -0.0806765 -0.0826011 -0.0835217 -0.0834981 -0.0826165 -0.0809719 -0.0786551 -0.0757447 -0.0723041 -0.0683786 -0.062821 -0.0571469 -0.0509182 -0.0444622 -0.0382398 -0.0327561 -0.0284316 -0.0254858 -0.0238887 -0.0234049 -0.0236994 -0.0244452 -0.0253912 -0.026382 -0.0170445 -0.0171092 -0.0171942 -0.0173109 -0.0174755 -0.0177088 -0.0180356 -0.0184847 -0.0190891 -0.0198864 -0.0209204 -0.0222472 -0.0241814 -0.0259608 -0.0282278 -0.0310691 -0.0345594 -0.038742 -0.0436052 -0.0490628 -0.0549452 -0.061008 -0.0669599 -0.0725001 -0.0773024 -0.0812386 -0.084192 -0.0861124 -0.0870225 -0.0869925 -0.0861202 -0.0845129 -0.0822731 -0.0794868 -0.0762157 -0.0724861 -0.0675868 -0.0623671 -0.0565115 -0.0502276 -0.043896 -0.0380156 -0.0330896 -0.0294803 -0.0273026 -0.0264132 -0.0264967 -0.0271924 -0.0281962 -0.029307 -0.0190145 -0.0190502 -0.0191112 -0.0192087 -0.0193589 -0.0195823 -0.0199036 -0.0203518 -0.0209601 -0.0217665 -0.0228153 -0.0241604 -0.0259848 -0.0277895 -0.0300887 -0.0329699 -0.0365076 -0.0407438 -0.0456644 -0.0511799 -0.0571166 -0.0632261 -0.069213 -0.0747739 -0.0796567 -0.0836033 -0.0865584 -0.0884717 -0.0893674 -0.0893204 -0.0884364 -0.0868337 -0.0846275 -0.0819163 -0.078772 -0.0752278 -0.0710461 -0.0662772 -0.0608782 -0.0549433 -0.0487459 -0.0427249 -0.0374047 -0.0332522 -0.0305276 -0.0292102 -0.0290416 -0.0296518 -0.0306922 -0.0319143 -0.020881 -0.0208905 -0.0209283 -0.0210053 -0.0211367 -0.0213419 -0.0216451 -0.0220746 -0.0226634 -0.0234497 -0.0244778 -0.0257992 -0.0274442 -0.029223 -0.0314954 -0.0343496 -0.0378608 -0.0420717 -0.0469693 -0.0524654 -0.0583877 -0.0644887 -0.0704726 -0.0760326 -0.0809346 -0.0848807 -0.0878378 -0.0897497 -0.0906362 -0.090572 -0.0896672 -0.0880485 -0.0858437 -0.0831661 -0.0801037 -0.0767123 -0.0731998 -0.0688226 -0.0638777 -0.0583704 -0.052467 -0.0465157 -0.041009 -0.0364667 -0.0332708 -0.0315355 -0.0310909 -0.0315864 -0.0326426 -0.0339666 -0.0226165 -0.0226041 -0.0226211 -0.0226772 -0.0227858 -0.0229646 -0.0232361 -0.0236275 -0.0241712 -0.0249054 -0.0258746 -0.0271279 -0.0285259 -0.0302266 -0.0324144 -0.0351784 -0.0385956 -0.0427113 -0.0475168 -0.052929 -0.0587817 -0.0648323 -0.0707872 -0.0763354 -0.0812007 -0.0851442 -0.0881096 -0.090031 -0.0909193 -0.090845 -0.0899191 -0.0882747 -0.0860501 -0.0833729 -0.080349 -0.0770625 -0.0741256 -0.0700472 -0.0654906 -0.0604013 -0.0548564 -0.0491066 -0.0435786 -0.0387959 -0.035224 -0.0331042 -0.0323757 -0.0327345 -0.0337887 -0.035206 -0.0242053 -0.0241769 -0.0241769 -0.0242128 -0.0242954 -0.0244395 -0.0246652 -0.0249978 -0.0254691 -0.0261173 -0.0269879 -0.0281282 -0.029217 -0.0307885 -0.0328376 -0.0354549 -0.03872 -0.0426826 -0.0473402 -0.0526181 -0.0583589 -0.0643284 -0.0702371 -0.0757702 -0.0805415 -0.0844873 -0.0874713 -0.0894158 -0.0903203 -0.0902476 -0.0893068 -0.0876346 -0.0853771 -0.0826739 -0.0796467 -0.076407 -0.0739485 -0.0700586 -0.0657832 -0.0610348 -0.0558252 -0.0503191 -0.044864 -0.0399518 -0.0360907 -0.0336274 -0.032616 -0.0328218 -0.033859 -0.0353638 -0.0256436 -0.0256067 -0.0255948 -0.0256124 -0.0256663 -0.0257676 -0.0259326 -0.0261847 -0.0265548 -0.027082 -0.0278136 -0.028797 -0.0295217 -0.0309165 -0.032779 -0.0352022 -0.038269 -0.0420343 -0.046503 -0.0516102 -0.0572096 -0.0630774 -0.0689299 -0.07445 -0.0790656 -0.0830237 -0.0860397 -0.0880232 -0.0889603 -0.0889041 -0.0879587 -0.0862614 -0.0839631 -0.0812116 -0.0781403 -0.0748826 -0.0728189 -0.0689995 -0.0648744 -0.0603422 -0.055374 -0.0500679 -0.0446966 -0.0397027 -0.0356048 -0.0328267 -0.0315317 -0.0315688 -0.0325757 -0.0341657 -0.0269386 -0.026902 -0.0268847 -0.0268868 -0.02691 -0.0269599 -0.0270486 -0.027197 -0.0274357 -0.0278059 -0.0283586 -0.029143 -0.0294584 -0.030634 -0.0322701 -0.0344626 -0.0372983 -0.040837 -0.0450912 -0.0500061 -0.0554473 -0.061202 -0.0669945 -0.0725077 -0.076902 -0.0808867 -0.0839508 -0.085991 -0.0869792 -0.0869566 -0.0860199 -0.0843035 -0.0819594 -0.0791393 -0.0759829 -0.0726375 -0.0708989 -0.0670287 -0.0629087 -0.0584362 -0.0535612 -0.0483374 -0.0429777 -0.0378742 -0.0335367 -0.0304412 -0.0288473 -0.0286936 -0.0296554 -0.0313312 -0.028107 -0.0280814 -0.0280665 -0.0280568 -0.0280469 -0.0280358 -0.0280306 -0.02805 -0.0281256 -0.0283024 -0.0286373 -0.0291841 -0.0290552 -0.0299758 -0.0313553 -0.0332929 -0.0358786 -0.0391768 -0.0432066 -0.0479223 -0.0532007 -0.0588405 -0.0645749 -0.0700908 -0.0741966 -0.0782251 -0.0813558 -0.0834722 -0.0845317 -0.084562 -0.0836497 -0.0819226 -0.0795297 -0.0766217 -0.0733385 -0.0698316 -0.0683529 -0.0643073 -0.0600367 -0.0554443 -0.0504732 -0.0451529 -0.0396564 -0.0343356 -0.0296877 -0.0262251 -0.0242891 -0.0239078 -0.0248041 -0.0265678 -0.0291736 -0.029172 -0.0291691 -0.0291514 -0.0291049 -0.0290208 -0.0289009 -0.0287628 -0.0286413 -0.028588 -0.0286685 -0.0289437 -0.0283464 -0.