# vtk DataFile Version 2.0
Presion
ASCII

DATASET STRUCTURED_GRID
DIMENSIONS   50   50   20

POINTS   50000   double
0.00568455   0.00568455   0.025
0.0174023   0.00568455   0.025
0.0298294   0.00568455   0.025
0.0429888   0.00568455   0.025
0.0569012   0.00568455   0.025
0.0715849   0.00568455   0.025
0.0870549   0.00568455   0.025
0.103323   0.00568455   0.025
0.120395   0.00568455   0.025
0.138275   0.00568455   0.025
0.156961   0.00568455   0.025
0.176443   0.00568455   0.025
0.196707   0.00568455   0.025
0.217734   0.00568455   0.025
0.239496   0.00568455   0.025
0.261959   0.00568455   0.025
0.285082   0.00568455   0.025
0.308818   0.00568455   0.025
0.333113   0.00568455   0.025
0.357906   0.00568455   0.025
0.383132   0.00568455   0.025
0.408719   0.00568455   0.025
0.434592   0.00568455   0.025
0.460672   0.00568455   0.025
0.486877   0.00568455   0.025
0.513123   0.00568455   0.025
0.539328   0.00568455   0.025
0.565408   0.00568455   0.025
0.591281   0.00568455   0.025
0.616868   0.00568455   0.025
0.642094   0.00568455   0.025
0.666887   0.00568455   0.025
0.691182   0.00568455   0.025
0.714918   0.00568455   0.025
0.738041   0.00568455   0.025
0.760504   0.00568455   0.025
0.782266   0.00568455   0.025
0.803293   0.00568455   0.025
0.823557   0.00568455   0.025
0.843039   0.00568455   0.025
0.861725   0.00568455   0.025
0.879605   0.00568455   0.025
0.896677   0.00568455   0.025
0.912945   0.00568455   0.025
0.928415   0.00568455   0.025
0.943099   0.00568455   0.025
0.957011   0.00568455   0.025
0.970171   0.00568455   0.025
0.982598   0.00568455   0.025
0.994315   0.00568455   0.025
0.00568455   0.0174023   0.025
0.0174023   0.0174023   0.025
0.0298294   0.0174023   0.025
0.0429888   0.0174023   0.025
0.0569012   0.0174023   0.025
0.0715849   0.0174023   0.025
0.0870549   0.0174023   0.025
0.103323   0.0174023   0.025
0.120395   0.0174023   0.025
0.138275   0.0174023   0.025
0.156961   0.0174023   0.025
0.176443   0.0174023   0.025
0.196707   0.0174023   0.025
0.217734   0.0174023   0.025
0.239496   0.0174023   0.025
0.261959   0.0174023   0.025
0.285082   0.0174023   0.025
0.308818   0.0174023   0.025
0.333113   0.0174023   0.025
0.357906   0.0174023   0.025
0.383132   0.0174023   0.025
0.408719   0.0174023   0.025
0.434592   0.0174023   0.025
0.460672   0.0174023   0.025
0.486877   0.0174023   0.025
0.513123   0.0174023   0.025
0.539328   0.0174023   0.025
0.565408   0.0174023   0.025
0.591281   0.0174023   0.025
0.616868   0.0174023   0.025
0.642094   0.0174023   0.025
0.666887   0.0174023   0.025
0.691182   0.0174023   0.025
0.714918   0.0174023   0.025
0.738041   0.0174023   0.025
0.760504   0.0174023   0.025
0.782266   0.0174023   0.025
0.803293   0.0174023   0.025
0.823557   0.0174023   0.025
0.843039   0.0174023   0.025
0.861725   0.0174023   0.025
0.879605   0.0174023   0.025
0.896677   0.0174023   0.025
0.912945   0.0174023   0.025
0.928415   0.0174023   0.025
0.943099   0.0174023   0.025
0.957011   0.0174023   0.025
0.970171   0.0174023   0.025
0.982598   0.0174023   0.025
0.994315   0.0174023   0.025
0.00568455   0.0298294   0.025
0.0174023   0.0298294   0.025
0.0298294   0.0298294   0.025
0.0429888   0.0298294   0.025
0.0569012   0.0298294   0.025
0.0715849   0.0298294   0.025
0.0870549   0.0298294   0.025
0.103323   0.0298294   0.025
0.120395   0.0298294   0.025
0.138275   0.0298294   0.025
0.156961   0.0298294   0.025
0.176443   0.0298294   0.025
0.196707   0.0298294   0.025
0.217734   0.0298294   0.025
0.239496   0.0298294   0.025
0.261959   0.0298294   0.025
0.285082   0.0298294   0.025
0.308818   0.0298294   0.025
0.333113   0.0298294   0.025
0.357906   0.0298294   0.025
0.383132   0.0298294   0.025
0.408719   0.0298294   0.025
0.434592   0.0298294   0.025
0.460672   0.0298294   0.025
0.486877   0.0298294   0.025
0.513123   0.0298294   0.025
0.539328   0.0298294   0.025
0.565408   0.0298294   0.025
0.591281   0.0298294   0.025
0.616868   0.0298294   0.025
0.642094   0.0298294   0.025
0.666887   0.0298294   0.025
0.691182   0.0298294   0.025
0.714918   0.0298294   0.025
0.738041   0.0298294   0.025
0.760504   0.0298294   0.025
0.782266   0.0298294   0.025
0.803293   0.0298294   0.025
0.823557   0.0298294   0.025
0.843039   0.0298294   0.025
0.861725   0.0298294   0.025
0.879605   0.0298294   0.025
0.896677   0.0298294   0.025
0.912945   0.0298294   0.025
0.928415   0.0298294   0.025
0.943099   0.0298294   0.025
0.957011   0.0298294   0.025
0.970171   0.0298294   0.025
0.982598   0.0298294   0.025
0.994315   0.0298294   0.025
0.00568455   0.0429888   0.025
0.0174023   0.0429888   0.025
0.0298294   0.0429888   0.025
0.0429888   0.0429888   0.025
0.0569012   0.0429888   0.025
0.0715849   0.0429888   0.025
0.0870549   0.0429888   0.025
0.103323   0.0429888   0.025
0.120395   0.0429888   0.025
0.138275   0.0429888   0.025
0.156961   0.0429888   0.025
0.176443   0.0429888   0.025
0.196707   0.0429888   0.025
0.217734   0.0429888   0.025
0.239496   0.0429888   0.025
0.261959   0.0429888   0.025
0.285082   0.0429888   0.025
0.308818   0.0429888   0.025
0.333113   0.0429888   0.025
0.357906   0.0429888   0.025
0.383132   0.0429888   0.025
0.408719   0.0429888   0.025
0.434592   0.0429888   0.025
0.460672   0.0429888   0.025
0.486877   0.0429888   0.025
0.513123   0.0429888   0.025
0.539328   0.0429888   0.025
0.565408   0.0429888   0.025
0.591281   0.0429888   0.025
0.616868   0.0429888   0.025
0.642094   0.0429888   0.025
0.666887   0.0429888   0.025
0.691182   0.0429888   0.025
0.714918   0.0429888   0.025
0.738041   0.0429888   0.025
0.760504   0.0429888   0.025
0.782266   0.0429888   0.025
0.803293   0.0429888   0.025
0.823557   0.0429888   0.025
0.843039   0.0429888   0.025
0.861725   0.0429888   0.025
0.879605   0.0429888   0.025
0.896677   0.0429888   0.025
0.912945   0.0429888   0.025
0.928415   0.0429888   0.025
0.943099   0.0429888   0.025
0.957011   0.0429888   0.025
0.970171   0.0429888   0.025
0.982598   0.0429888   0.025
0.994315   0.0429888   0.025
0.00568455   0.0569012   0.025
0.0174023   0.0569012   0.025
0.0298294   0.0569012   0.025
0.0429888   0.0569012   0.025
0.0569012   0.0569012   0.025
0.0715849   0.0569012   0.025
0.0870549   0.0569012   0.025
0.103323   0.0569012   0.025
0.120395   0.0569012   0.025
0.138275   0.0569012   0.025
0.156961   0.0569012   0.025
0.176443   0.0569012   0.025
0.196707   0.0569012   0.025
0.217734   0.0569012   0.025
0.239496   0.0569012   0.025
0.261959   0.0569012   0.025
0.285082   0.0569012   0.025
0.308818   0.0569012   0.025
0.333113   0.0569012   0.025
0.357906   0.0569012   0.025
0.383132   0.0569012   0.025
0.408719   0.0569012   0.025
0.434592   0.0569012   0.025
0.460672   0.0569012   0.025
0.486877   0.0569012   0.025
0.513123   0.0569012   0.025
0.539328   0.0569012   0.025
0.565408   0.0569012   0.025
0.591281   0.0569012   0.025
0.616868   0.0569012   0.025
0.642094   0.0569012   0.025
0.666887   0.0569012   0.025
0.691182   0.0569012   0.025
0.714918   0.0569012   0.025
0.738041   0.0569012   0.025
0.760504   0.0569012   0.025
0.782266   0.0569012   0.025
0.803293   0.0569012   0.025
0.823557   0.0569012   0.025
0.843039   0.0569012   0.025
0.861725   0.0569012   0.025
0.879605   0.0569012   0.025
0.896677   0.0569012   0.025
0.912945   0.0569012   0.025
0.928415   0.0569012   0.025
0.943099   0.0569012   0.025
0.957011   0.0569012   0.025
0.970171   0.0569012   0.025
0.982598   0.0569012   0.025
0.994315   0.0569012   0.025
0.00568455   0.0715849   0.025
0.0174023   0.0715849   0.025
0.0298294   0.0715849   0.025
0.0429888   0.0715849   0.025
0.0569012   0.0715849   0.025
0.0715849   0.0715849   0.025
0.0870549   0.0715849   0.025
0.103323   0.0715849   0.025
0.120395   0.0715849   0.025
0.138275   0.0715849   0.025
0.156961   0.0715849   0.025
0.176443   0.0715849   0.025
0.196707   0.0715849   0.025
0.217734   0.0715849   0.025
0.239496   0.0715849   0.025
0.261959   0.0715849   0.025
0.285082   0.0715849   0.025
0.308818   0.0715849   0.025
0.333113   0.0715849   0.025
0.357906   0.0715849   0.025
0.383132   0.0715849   0.025
0.408719   0.0715849   0.025
0.434592   0.0715849   0.025
0.460672   0.0715849   0.025
0.486877   0.0715849   0.025
0.513123   0.0715849   0.025
0.539328   0.0715849   0.025
0.565408   0.0715849   0.025
0.591281   0.0715849   0.025
0.616868   0.0715849   0.025
0.642094   0.0715849   0.025
0.666887   0.0715849   0.025
0.691182   0.0715849   0.025
0.714918   0.0715849   0.025
0.738041   0.0715849   0.025
0.760504   0.0715849   0.025
0.782266   0.0715849   0.025
0.803293   0.0715849   0.025
0.823557   0.0715849   0.025
0.843039   0.0715849   0.025
0.861725   0.0715849   0.025
0.879605   0.0715849   0.025
0.896677   0.0715849   0.025
0.912945   0.0715849   0.025
0.928415   0.0715849   0.025
0.943099   0.0715849   0.025
0.957011   0.0715849   0.025
0.970171   0.0715849   0.025
0.982598   0.0715849   0.025
0.994315   0.0715849   0.025
0.00568455   0.0870549   0.025
0.0174023   0.0870549   0.025
0.0298294   0.0870549   0.025
0.0429888   0.0870549   0.025
0.0569012   0.0870549   0.025
0.0715849   0.0870549   0.025
0.0870549   0.0870549   0.025
0.103323   0.0870549   0.025
0.120395   0.0870549   0.025
0.138275   0.0870549   0.025
0.156961   0.0870549   0.025
0.176443   0.0870549   0.025
0.196707   0.0870549   0.025
0.217734   0.0870549   0.025
0.239496   0.0870549   0.025
0.261959   0.0870549   0.025
0.285082   0.0870549   0.025
0.308818   0.0870549   0.025
0.333113   0.0870549   0.025
0.357906   0.0870549   0.025
0.383132   0.0870549   0.025
0.408719   0.0870549   0.025
0.434592   0.0870549   0.025
0.460672   0.0870549   0.025
0.486877   0.0870549   0.025
0.513123   0.0870549   0.025
0.539328   0.0870549   0.025
0.565408   0.0870549   0.025
0.591281   0.0870549   0.025
0.616868   0.0870549   0.025
0.642094   0.0870549   0.025
0.666887   0.0870549   0.025
0.691182   0.0870549   0.025
0.714918   0.0870549   0.025
0.738041   0.0870549   0.025
0.760504   0.0870549   0.025
0.782266   0.0870549   0.025
[...]
POINT_DATA   50000
SCALARS Presion double
LOOKUP_TABLE   Presion

0 0 0 0 0 0 0 0 0 0 0 0 0 0 0 0 0 0 0 0 0 0 0 0 0 0 0 0 0 0 0 0 0 0 0 0 0 0 0 0 0 0 0 0 0 0 0 0 0 0 0.00159256 0.00173329 0.00190296 0.00202539 0.00208691 0.00208881 0.00203564 0.0019324 0.00178372 0.0015936 0.00136505 0.00109946 0.000657846 0.000392511 0.000156675 -4.79712e-05 -0.000216818 -0.000342061 -0.00041448 -0.000425727 -0.000370676 -0.000249379 -6.80387e-05 0.000161228 0.00040415 0.000644856 0.000851371 0.000997595 0.00106269 0.00103319 0.000904577 0.000681969 0.000379801 2.06961e-05 -0.000366382 -0.000747497 -0.000991524 -0.00134644 -0.0016771 -0.00196622 -0.0022034 -0.00238297 -0.002502 -0.00255906 -0.00255341 -0.00248458 -0.00235267 -0.00216116 -0.00193013 -0.0017504 0.00209204 0.00208084 0.00212803 0.00217607 0.00219665 0.00217818 0.00211723 0.00201413 0.001871 0.00169085 0.00147769 0.00123514 0.000733669 0.000494001 0.000271505 7.28401e-05 -9.51564e-05 -0.000224034 -0.00030462 -0.00032882 -0.000291651 -0.000193034 -3.87855e-05 0.0001579 0.000373875 0.000584196 0.000762458 0.000883972 0.000929074 0.000885138 0.00074811 0.000523102 0.000223938 -0.000128344 -0.000508075 -0.000885805 -0.00105965 -0.00141179 -0.00173192 -0.00200867 -0.00223481 -0.00240659 -0.00252267 -0.00258352 -0.00259118 -0.00254989 -0.00246793 -0.00236237 -0.00226868 -0.00225505 0.00243149 0.00238286 0.00236811 0.00236227 0.00234486 0.00230295 0.00222977 0.0021227 0.00198181 0.00180908 0.00160866 0.00138347 0.00081361 0.000595607 0.000385054 0.000190598 2.05458e-05 -0.000115999 -0.00020964 -0.000252103 -0.000238004 -0.000166539 -4.26803e-05 0.000119242 0.000312725 0.000498453 0.000655682 0.000760642 0.000793791 0.000742121 0.000600952 0.000374685 7.63025e-05 -0.000274425 -0.000654019 -0.00103445 -0.00113397 -0.00148839 -0.00180349 -0.00207251 -0.00229156 -0.00245919 -0.00257599 -0.0026443 -0.00266842 -0.00265533 -0.00261614 -0.00256828 -0.00253718 -0.00255326 0.0027144 0.00265613 0.00261066 0.00256964 0.00252198 0.00245803 0.00237111 0.0022575 0.00211604 0.00194784 0.00175663 0.00154347 0.0008999 0.000697685 0.000495104 0.000300967 0.000124177 -2.56981e-05 -0.000138848 -0.000206377 -0.000221881 -0.000183097 -9.34142e-05 3.23993e-05 0.000205311 0.000372346 0.000516017 0.000613159 0.000643414 0.000592219 0.000453137 0.000228991 -6.85011e-05 -0.000420687 -0.00080534 -0.00119384 -0.00121872 -0.00157947 -0.00189399 -0.00215945 -0.00237517 -0.00254209 -0.00266255 -0.00274038 -0.00278103 -0.00279201 -0.00278336 -0.00276775 -0.00275911 -0.00276838 0.00298792 0.00292138 0.00285668 0.00279159 0.0027207 0.00263778 0.00253746 0.00241602 0.0022717 0.0021049 0.00191868 0.00171167 0.000991839 0.000798039 0.000596978 0.000396746 0.000206162 3.5013e-05 -0.000106319 -0.000207853 -0.000261462 -0.000262569 -0.000211978 -0.000123799 2.87924e-05 0.000182355 0.000319897 0.000418628 0.000456516 0.000416276 0.000288462 7.32189e-05 -0.000219739 -0.000573045 -0.00096514 -0.00136537 -0.00131864 -0.00168854 -0.00200563 -0.00227088 -0.00248663 -0.00265585 -0.00278229 -0.00287056 -0.00292629 -0.00295611 -0.0029676 -0.00296868 -0.00296622 -0.0029638 0.00327072 0.00319078 0.00310893 0.00302465 0.00293507 0.00283606 0.00272336 0.00259349 0.0024443 0.00227551 0.00208932 0.00188163 0.00108535 0.000890947 0.000682374 0.000466701 0.000252241 4.88378e-05 -0.000132379 -0.00027984 -0.000382923 -0.000433762 -0.000429388 -0.000381959 -0.000249389 -0.000105882 3.24558e-05 0.000142924 0.000200991 0.000185424 8.23185e-05 -0.000112319 -0.000391968 -0.000741184 -0.00113898 -0.0015517 -0.00143991 -0.00181956 -0.00214049 -0.00240774 -0.00262626 -0.00280051 -0.00293495 -0.00303433 -0.00310374 -0.00314848 -0.00317377 -0.00318436 -0.00318373 -0.00317332 0.00356658 0.00346734 0.00336675 0.00326449 0.00315845 0.00304527 0.00292108 0.00278225 0.0026261 0.00245143 0.00225939 0.00204293 0.00117194 0.000965925 0.000737974 0.000494115 0.000241979 -8.56365e-06 -0.000245384 -0.000454766 -0.000622763 -0.00073716 -0.000789911 -0.000789826 -0.000674513 -0.00054093 -0.000396092 -0.000263067 -0.000169718 -0.000142541 -0.000201645 -0.000357101 -0.000607378 -0.000940251 -0.00133583 -0.0017571 -0.00159112 -0.00197732 -0.0023006 -0.00257054 -0.00279394 -0.00297579 -0.00312045 -0.00323213 -0.003315 -0.00337298 -0.00340964 -0.00342791 -0.00342993 -0.00341686 0.0038698 0.00374606 0.00362408 0.00350332 0.00338151 0.00325506 0.00311964 0.0029709 0.00280512 0.00261987 0.00241483 0.0021799 0.00123732 0.00100627 0.000743856 0.000455137 0.000147054 -0.000170385 -0.000483703 -0.000776411 -0.00103036 -0.00122789 -0.00135453 -0.00141424 -0.00130834 -0.00118964 -0.00103491 -0.000868236 -0.000721607 -0.000628197 -0.000616388 -0.000704839 -0.000899582 -0.00119376 -0.00156996 -0.00198826 -0.00178508 -0.00216839 -0.00248853 -0.00275972 -0.00298933 -0.00318144 -0.00333915 -0.00346542 -0.00356317 -0.00363511 -0.00368365 -0.00371086 -0.00371843 -0.00370777 0.00416693 0.00401444 0.00386851 0.00372815 0.00359039 0.00345069 0.00330352 0.0031431 0.00296409 0.00276229 0.00253546 0.00227039 0.00125985 0.000987458 0.000671837 0.000317072 -7.04998e-05 -0.000480501 -0.00089766 -0.00130204 -0.00167036 -0.0019784 -0.00220397 -0.00234451 -0.0022333 -0.00214152 -0.00197737 -0.00176663 -0.00154603 -0.00135681 -0.00123795 -0.00121978 -0.00131934 -0.00153838 -0.00186445 -0.00225642 -0.00204163 -0.00240297 -0.00270865 -0.00297672 -0.00321276 -0.00341781 -0.0035922 -0.00373669 -0.00385252 -0.00394118 -0.00400426 -0.00404336 -0.00406014 -0.00405638 0.0044369 0.00425251 0.00408058 0.00391953 0.00376527 0.00361168 0.00345135 0.00327639 0.00307921 0.00285327 0.00259386 0.00228458 0.00120899 0.000875694 0.000483978 3.68787e-05 -0.00045977 -0.000994919 -0.00155098 -0.00210383 -0.00262413 -0.00307993 -0.00344011 -0.00369359 -0.00355619 -0.00351228 -0.00334499 -0.00308211 -0.00276529 -0.00244494 -0.0021729 -0.00199463 -0.00194245 -0.00203119 -0.00225723 -0.002582 -0.00239247 -0.00269836 -0.00296984 -0.00322598 -0.00346671 -0.00368698 -0.00388226 -0.00404979 -0.00418847 -0.00429832 -0.00438011 -0.00443512 -0.00446508 -0.00447211 0.00465071 0.00443243 0.00423324 0.00405075 0.00387928 0.00371059 0.00353477 0.00334115 0.00311927 0.00285965 0.00255447 0.0021842 0.00104423 0.000626848 0.000131631 -0.000439665 -0.00108164 -0.00178223 -0.00252097 -0.00326872 -0.00398906 -0.00464115 -0.00518378 -0.00559478 -0.00540931 -0.00544408 -0.00528774 -0.00496941 -0.0045351 -0.00404472 -0.00356461 -0.00315864 -0.00287913 -0.00275956 -0.00281065 -0.00300313 -0.0028884 -0.00308484 -0.00329029 -0.00351863 -0.00375847 -0.00399459 -0.00421473 -0.00441081 -0.00457825 -0.00471502 -0.0048208 -0.00489648 -0.00494381 -0.0049652 0.00477129 0.00451846 0.0042917 0.00408747 0.00389806 0.00371255 0.00351791 0.00330012 0.00304524 0.00274021 0.00237353 0.00192248 0.000714722 0.00018637 -0.000444419 -0.00117751 -0.0020079 -0.00292215 -0.00389624 -0.00489512 -0.00587408 -0.0067821 -0.0075667 -0.00819134 -0.00794567 -0.00809903 -0.00797683 -0.00760744 -0.00703952 -0.00634139 -0.00559418 -0.00488229 -0.00428232 -0.00385246 -0.00362478 -0.00358991 -0.00360892 -0.00361441 -0.00370464 -0.00387787 -0.00410402 -0.00435248 -0.0045996 -0.00482931 -0.00503186 -0.00520208 -0.00533799 -0.00543975 -0.00550897 -0.00554826 0.00475398 0.00446748 0.00421389 0.00398814 0.00378005 0.00357546 0.00335767 0.00310876 0.00281074 0.00244639 0.00199986 0.00144523 0.000160436 -0.000509259 -0.00131204 -0.00224981 -0.00331792 -0.0045011 -0.00577096 -0.00708533 -0.0083898 -0.00962161 -0.0107156 -0.0116171 -0.0113243 -0.0116417 -0.0115855 -0.0111797 -0.0104726 -0.00953802 -0.00846975 -0.0073725 -0.00634953 -0.00548908 -0.00485223 -0.00446449 -0.00467167 -0.0043711 -0.0042727 -0.0043455 -0.00453257 -0.00478192 -0.00505361 -0.00531995 -0.00556333 -0.00577375 -0.00594648 -0.00608035 -0.00617654 -0.00623774 0.00454805 0.00423051 0.00395197 0.00370551 0.00347797 0.0032515 0.00300525 0.0027169 0.0023639 0.00192432 0.00137735 0.000693655 -0.000684793 -0.00152887 -0.00254337 -0.0037326 -0.00509204 -0.00660394 -0.00823438 -0.00993252 -0.0116324 -0.0132577 -0.0147289 -0.0159691 -0.0156821 -0.0162081 -0.0162554 -0.0158393 -0.0150035 -0.0138224 -0.0123977 -0.0108507 -0.00931001 -0.00789676 -0.00670779 -0.00582184 -0.00623574 -0.00547872 -0.00508697 -0.00498794 -0.00509107 -0.00531662 -0.00560238 -0.00590386 -0.00619178 -0.00644857 -0.00666504 -0.00683772 -0.0069668 -0.00705482 0.00409966 0.00375558 0.00345522 0.00318941 0.00294166 0.00269005 0.00240917 0.00207193 0.00165081 0.00111867 0.000449165 -0.000390861 -0.00188765 -0.0029403 -0.00420752 -0.00569614 -0.00740129 -0.00930161 -0.011356 -0.013503 -0.0156627 -0.0177431 -0.0196485 -0.0212767 -0.0210941 -0.0218637 -0.0220518 -0.0216611 -0.0207263 -0.0193164 -0.0175336 -0.0155082 -0.0133886 -0.0113268 -0.00945928 -0.00793664 -0.00848872 -0.00709854 -0.00627445 -0.00589949 -0.00584739 -0.00600534 -0.00628208 -0.0066098 -0.00694208 -0.00724983 -0.00751679 -0.00773554 -0.00790447 -0.00802555 0.00335617 0.00299202 0.00267419 0.002391 0.00212238 0.00184205 0.00151986 0.00112366 0.000620668 -2.18393e-05 -0.000836202 -0.00185994 -0.00350716 -0.00480133 -0.00636045 -0.00819347 -0.0102942 -0.0126359 -0.0151682 -0.0178163 -0.0204841 -0.0230616 -0.0254352 -0.0274772 -0.027531 -0.0285615 -0.0289201 -0.0285951 -0.0276089 -0.0260194 -0.0239211 -0.0214434 -0.0187441 -0.0159988 -0.0133827 -0.0111314 -0.0116107 -0.0094102 -0.00798866 -0.00720079 -0.0068914 -0.00691344 -0.00714076 -0.00747478 -0.00784503 -0.00820541 -0.00852872 -0.00880121 -0.00901806 -0.00918002 0.00227186 0.00189594 0.0015662 0.00126826 0.000978355 0.000665801 0.000295601 -0.000169502 -0.000767695 -0.00153747 -0.00251738 -0.00374997 -0.0055845 -0.00714891 -0.0090332 -0.0112475 -0.0137826 -0.0166042 -0.0196499 -0.0228287 -0.0260261 -0.0291127 -0.0319565 -0.034407 -0.0348311 -0.0361181 -0.0366625 -0.0364404 -0.0354605 -0.0337669 -0.0314399 -0.0285974 -0.0253946 -0.0220183 -0.0186752 -0.0156863 -0.015722 -0.0125762 -0.010391 -0.00903119 -0.00833325 -0.00812339 -0.00823903 -0.0085444 -0.0089371 -0.009347 -0.00973065 -0.0100644 -0.0103382 -0.0105504 0.000814283 0.00043646 0.000101454 -0.000207861 -0.000518931 -0.000866711 -0.00129089 -0.00183371 -0.00253867 -0.00344996 -0.00461225 -0.00607361 -0.00813249 -0.00998818 -0.0122206 -0.0148395 -0.0178303 -0.0211485 -0.0247167 -0.0284256 -0.0321405 -0.0357127 -0.0389931 -0.0418148 -0.0427054 -0.0442236 -0.0449517 -0.044858 -0.0439407 -0.0422305 -0.0397907 -0.0367208 -0.0331613 -0.029296 -0.0253492 -0.0217085 -0.0208372 -0.0167005 -0.013623 -0.0115336 -0.0102966 -0.00973255 -0.00964964 -0.0098725 -0.0102596 -0.0107088 -0.0111534 -0.0115549 -0.011895 -0.012168 -0.00102951 -0.00139825 -0.00173097 -0.00204751 -0.00237876 -0.00276363 -0.00324616 -0.00387322 -0.00469327 -0.00575581 -0.00711114 -0.00881295 -0.0111271 -0.0132842 -0.0158736 -0.0189021 -0.0223475 -0.0261525 -0.0302221 -0.0344273 -0.0386133 -0.0426139 -0.0462661 -0.049396 -0.0507823 -0.0524916 -0.0533843 -0.0534276 -0.0526152 -0.0509687 -0.0485359 -0.0453957 -0.041666 -0.0375138 -0.0331623 -0.0290267 -0.0268499 -0.0217948 -0.0177733 -0.0148299 -0.012904 -0.0118457 -0.0114538 -0.0115191 -0.0118569 -0.0123251 -0.0128258 -0.0132995 -0.0137148 -0.01406 -0.00324806 -0.00359626 -0.00391855 -0.00423732 -0.00458654 -0.00500862 -0.0055514 -0.0062658 -0.00720461 -0.00842193 -0.00997278 -0.011916 -0.0145032 -0.0169589 -0.019897 -0.0233196 -0.0271945 -0.0314491 -0.0359701 -0.0406083 -0.0451909 -0.0495375 -0.0534768 -0.056837 -0.0586774 -0.0605306 -0.0615564 -0.0617277 -0.061041 -0.0595146 -0.0571862 -0.0541163 -0.0503981 -0.0461714 -0.0416384 -0.0371916 -0.0335479 -0.0277596 -0.0228436 -0.0189886 -0.0162525 -0.0145595 -0.0137325 -0.0135448 -0.0137722 -0.0142269 -0.0147715 -0.0153175 -0.0158157 -0.0162441 -0.00580314 -0.00611961 -0.00642309 -0.00673827 -0.00710176 -0.00755887 -0.00816056 -0.00896103 -0.0100166 -0.0113848 -0.0131243 -0.0152977 -0.018157 -0.0208942 -0.0241556 -0.0279368 -0.0321936 -0.0368376 -0.0417371 -0.0467248 -0.0516127 -0.0562113 -0.0603467 -0.0638569 -0.0660607 -0.0680107 -0.0691321 -0.0694091 -0.0688463 -0.067465 -0.065299 -0.0623962 -0.0588275 -0.0547011 -0.0501819 -0.0455951 -0.0406432 -0.034382 -0.0287227 -0.0239893 -0.0203815 -0.017939 -0.0165501 -0.0160011 -0.0160405 -0.0164354 -0.0170023 -0.0176157 -0.0182013 -0.0187232 -0.00863065 -0.00890525 -0.00918173 -0.00948682 -0.00985924 -0.0103466 -0.0110021 -0.0118825 -0.0130464 -0.0145539 -0.0164655 -0.018846 -0.0219542 -0.0249423 -0.0284862 -0.0325734 -0.0371477 -0.0421053 -0.0472977 -0.0525427 -0.0576416 -0.0624003 -0.0666475 -0.0702357 -0.0726961 -0.0747009 -0.0758814 -0.0762347 -0.0757772 -0.0745371 -0.0725497 -0.0698572 -0.0665139 -0.0625978 -0.0582294 -0.0536415 -0.0478028 -0.0413521 -0.0351789 -0.0296977 -0.0252412 -0.021988 -0.0199331 -0.0189141 -0.0186778 -0.0189545 -0.0195121 -0.0201811 -0.0208549 -0.0214783 -0.0116451 -0.0118694 -0.0121114 -0.0123995 -0.0127739 -0.0132839 -0.0139843 -0.0149334 -0.0161912 -0.0178188 -0.0198773 -0.0224315 -0.0257429 -0.02894 -0.0327135 -0.0370428 -0.0418604 -0.0470489 -0.0524466 -0.0578598 -0.0630838 -0.0679238 -0.0722146 -0.075824 -0.0784471 -0.080473 -0.0816814 -0.0820818 -0.0817023 -0.0805797 -0.0787547 -0.0762692 -0.0731681 -0.0695064 -0.0653623 -0.0608766 -0.0546822 -0.0482998 -0.0418801 -0.0358623 -0.0306724 -0.0266241 -0.0238458 -0.022267 -0.0216674 -0.0217598 -0.0222678 -0.0229735 -0.0237315 -0.0244615 -0.014747 -0.0149151 -0.0151163 -0.0153802 -0.0157484 -0.016271 -0.0170039 -0.0180059 -0.0193375 -0.0210596 -0.0232326 -0.025919 -0.0293682 -0.032724 -0.0366667 -0.0411685 -0.0461526 -0.0514914 -0.0570132 -0.0625177 -0.067797 -0.0726589 -0.0769452 -0.0805378 -0.083257 -0.0852801 -0.0864935 -0.0869167 -0.0865867 -0.0855492 -0.0838517 -0.0815399 -0.0786564 -0.0752423 -0.0713443 -0.0670305 -0.0609623 -0.0548474 -0.0484402 -0.0421409 -0.0364107 -0.0316661 -0.0281727 -0.0259826 -0.0249467 -0.0247889 -0.0252016 -0.0259192 -0.0267524 -0.0275903 -0.0178326 -0.0179412 -0.0180967 -0.0183298 -0.0186827 -0.0192059 -0.0199557 -0.0209908 -0.0223714 -0.0241573 -0.0264072 -0.0291795 -0.0326862 -0.0361452 -0.0401934 -0.0447978 -0.0498752 -0.0552913 -0.0608688 -0.0664038 -0.0716885 -0.076534 -0.0807883 -0.0843442 -0.0871219 -0.0891278 -0.0903326 -0.0907607 -0.090456 -0.0894708 -0.08786 -0.0856757 -0.0829634 -0.0797599 -0.0760946 -0.071991 -0.0663857 -0.0606632 -0.0544796 -0.0481518 -0.0421172 -0.0368449 -0.0327151 -0.0299144 -0.0283975 -0.0279336 -0.0282052 -0.028906 -0.029801 -0.0307445 -0.020803 -0.0208518 -0.0209588 -0.0211552 -0.0214834 -0.0219939 -0.0227426 -0.023788 -0.0251892 -0.0270045 -0.0292901 -0.0320994 -0.035574 -0.0390786 -0.0431691 -0.0478098 -0.0529145 -0.0583461 -0.0639254 -0.0694481 -0.0747074 -0.0795174 -0.0837301 -0.087245 -0.0900659 -0.0920495 -0.0932397 -0.0936625 -0.0933648 -0.0924041 -0.0908419 -0.0887377 -0.086144 -0.083101 -0.0796343 -0.07575 -0.0707778 -0.0654996 -0.0596793 -0.053532 -0.047428 -0.0418346 -0.0372052 -0.0338493 -0.0318444 -0.0310373 -0.0311277 -0.0317824 -0.0327233 -0.0337667 -0.0235736 -0.023565 -0.0236227 -0.0237778 -0.0240722 -0.0245559 -0.0252843 -0.0263149 -0.0277057 -0.0295133 -0.0317915 -0.0345881 -0.0379367 -0.0414295 -0.0455018 -0.0501182 -0.0551932 -0.0605907 -0.0661324 -0.0716157 -0.0768352 -0.0816063 -0.085782 -0.0892637 -0.0921264 -0.09409 -0.0952664 -0.0956796 -0.095377 -0.0944195 -0.0928743 -0.0908086 -0.0882838 -0.0853489 -0.0820359 -0.0783543 -0.0740501 -0.069206 -0.0638117 -0.0579848 -0.0520064 -0.0462976 -0.0413364 -0.0375247 -0.0350634 -0.0339001 -0.0337798 -0.0343617 -0.0353313 -0.036467 -0.0260796 -0.0260186 -0.0260284 -0.0261391 -0.0263916 -0.0268347 -0.0275227 -0.028512 -0.0298595 -0.0316206 -0.033847 -0.0365814 -0.0397102 -0.0431351 -0.0471328 -0.0516711 -0.0566686 -0.0619933 -0.0674705 -0.0729001 -0.078078 -0.0828184 -0.0869721 -0.0904372 -0.0933465 -0.0952985 -0.0964669 -0.0968713 -0.0965576 -0.0955884 -0.0940358 -0.0919744 -0.0894754 -0.0865991 -0.08339 -0.0798738 -0.0761872 -0.0717211 -0.0667473 -0.061304 -0.0555809 -0.0499264 -0.0447995 -0.0406547 -0.0377983 -0.036289 -0.0359418 -0.0364292 -0.0374117 -0.0386315 -0.0282797 -0.0281736 -0.0281389 -0.0282041 -0.028408 -0.0287973 -0.0294246 -0.0303453 -0.0316154 -0.0332895 -0.0354189 -0.0380424 -0.0408601 -0.0441635 -0.0480348 -0.052448 -0.0573285 -0.0625512 -0.0679468 -0.0733182 -0.0784613 -0.0831873 -0.0873408 -0.0908121 -0.0937736 -0.0957275 -0.0968975 -0.0972979 -0.0969714 -0.0959812 -0.0944033 -0.0923191 -0.0898093 -0.0869464 -0.0837894 -0.0803866 -0.0772276 -0.0730536 -0.0684423 -0.0633757 -0.0579639 -0.0524741 -0.0473163 -0.0429579 -0.0397819 -0.0379539 -0.037375 -0.0377521 -0.0387338 -0.0400309 -0.0301565 -0.0300143 -0.0299403 -0.0299607 -0.0301108 -0.0304344 -0.0309814 -0.0318058 -0.0329632 -0.0345088 -0.0364951 -0.0389594 -0.0413794 -0.0445103 -0.0482081 -0.0524555 -0.0571872 -0.0622866 -0.067591 -0.0729064 -0.0780276 -0.0827602 -0.0869396 -0.0904443 -0.0934608 -0.095434 -0.096619 -0.0970235 -0.0966865 -0.0956707 -0.0940547 -0.0919264 -0.0893749 -0.0864836 -0.0833262 -0.0799744 -0.0772457 -0.0732605 -0.0689176 -0.0641645 -0.0590503 -0.0537667 -0.0486603 -0.0441805 -0.0407555 -0.0386419 -0.0378336 -0.0380892 -0.0390593 -0.040429 -0.031714 -0.0315457 -0.0314395 -0.0314176 -0.0315108 -0.0317581 -0.0322057 -0.0329059 -0.0339145 -0.0352889 -0.037085 -0.039342 -0.0412839 -0.0441942 -0.0476764 -0.0517237 -0.0562816 -0.0612433 -0.0664531 -0.0717195 -0.0768351 -0.081598 -0.085832 -0.0893999 -0.092469 -0.0944826 -0.0956988 -0.0961192 -0.095778 -0.0947361 -0.0930741 -0.0908849 -0.0882646 -0.0853062 -0.0820953 -0.078725 -0.0763387 -0.0724299 -0.0682382 -0.0636938 -0.0588045 -0.0537004 -0.0486644 -0.0441101 -0.0404827 -0.0381092 -0.0370733 -0.0371972 -0.0381466 -0.0395873 -0.0329738 -0.0327908 -0.0326607 -0.0326008 -0.0326353 -0.0327969 -0.0331266 -0.0336744 -0.0344971 -0.0356562 -0.0372144 -0.0392167 -0.0406072 -0.0432521 -0.0464821 -0.0503016 -0.054668 -0.0594842 -0.0646012 -0.0698295 -0.0749581 -0.0797763 -0.0840944 -0.0877572 -0.0908687 -0.0929466 -0.0942142 -0.0946658 -0.0943304 -0.0932664 -0.0915551 -0.0892923 -0.0865798 -0.0835175 -0.0801996 -0.0767357 -0.0746183 -0.0706686 -0.0664958 -0.0620255 -0.0572412 -0.0522287 -0.0472168 -0.0425776 -0.0387552 -0.0361262 -0.034855 -0.0348333 -0.0357528 -0.0372659 -0.0339708 -0.0337849 -0.0336406 -0.0335482 -0.0335236 -0.0335906 -0.033784 -0.0341504 -0.0347489 -0.0356476 -0.0369197 -0.0386205 -0.0393953 -0.0417346 -0.0446821 -0.0482541 -0.052419 -0.0570888 -0.0621204 -0.0673249 -0.0724868 -0.0773856 -0.0818171 -0.0856072 -0.0887411 -0.0909101 -0.0922521 -0.0927542 -0.0924393 -0.0913619 -0.0896024 -0.0872578 -0.0844331 -0.0812319 -0.0777531 -0.0741165 -0.0722051 -0.068093 -0.0637961 -0.0592425 -0.0544057 -0.0493443 -0.0442472 -0.0394508 -0.0353903 -0.0324765 -0.0309434 -0.0307526 -0.0316297 -0.0332185 -0.0347479 -0.0345725 -0.0344247 -0.0343063 -0.0342223 -0.0341856 -0.0342226 -0.0343771 -0.0347112 -0.0353033 -0.0362416 -0.0375968 -0.0377026 -0.0397024 -0.042345 -0.0456585 -0.0496208 -0.0541513 -0.0591104 -0.0643091 -0.0695263 -0.074531 -0.079104 -0.0830534 -0.0861788 -0.0884672 -0.0899096 -0.090485 -0.0902094 -0.0891322 -0.0873307 -0.0849009 -0.0819476 -0.0785749 -0.0748816 -0.0709896 -0.0692243 -0.0648236 -0.0602487 -0.0554353 -0.0503566 -0.0450598 -0.0397105 -0.0346212 -0.0302217 -0.0269505 -0.0251008 -0.0247015 -0.0255168 -0.0271851 -0.0353532 -0.035203 -0.0350639 -0.0349265 -0.034782 -0.03463 -0.0344876 -0.0343958 -0.0344231 -0.0346621 -0.0352209 -0.0361907 -0.035588 -0.0372227 -0.0395481 -0.0426025 -0.0463709 -0.0507773 -0.0556834 -0.060898 -0.0661939 -0.0713295 -0.0760707 -0.0802094 -0.0832843 -0.0857206 -0.0872912 -0.0879657 -0.087752 -0.0866928 -0.0848602 -0.0823461 -0.0792519 -0.075678 -0.071718 -0.0674858 -0.0658005 -0.0609787 -0.0559609 -0.0506916 -0.0451522 -0.0393915 -0.0335689 -0.0279891 -0.0230878 -0.0193346 -0.0170773 -0.016408 -0.0171311 -0.0188814 -0.0358369 -0.0357299 -0.0356135 -0.0354637 -0.0352547 -0.