# vtk DataFile Version 2.0
Presion
ASCII

DATASET STRUCTURED_GRID
DIMENSIONS   50   50   20

POINTS   50000   double
0.00568455   0.00568455   0.025
0.0174023   0.00568455   0.025
0.0298294   0.00568455   0.025
0.0429888   0.00568455   0.025
0.0569012   0.00568455   0.025
0.0715849   0.00568455   0.025
0.0870549   0.00568455   0.025
0.103323   0.00568455   0.025
0.120395   0.00568455   0.025
0.138275   0.00568455   0.025
0.156961   0.00568455   0.025
0.176443   0.00568455   0.025
0.196707   0.00568455   0.025
0.217734   0.00568455   0.025
0.239496   0.00568455   0.025
0.261959   0.00568455   0.025
0.285082   0.00568455   0.025
0.308818   0.00568455   0.025
0.333113   0.00568455   0.025
0.357906   0.00568455   0.025
0.383132   0.00568455   0.025
0.408719   0.00568455   0.025
0.434592   0.00568455   0.025
0.460672   0.00568455   0.025
0.486877   0.00568455   0.025
0.513123   0.00568455   0.025
0.539328   0.00568455   0.025
0.565408   0.00568455   0.025
0.591281   0.00568455   0.025
0.616868   0.00568455   0.025
0.642094   0.00568455   0.025
0.666887   0.00568455   0.025
0.691182   0.00568455   0.025
0.714918   0.00568455   0.025
0.738041   0.00568455   0.025
0.760504   0.00568455   0.025
0.782266   0.00568455   0.025
0.803293   0.00568455   0.025
0.823557   0.00568455   0.025
0.843039   0.00568455   0.025
0.861725   0.00568455   0.025
0.879605   0.00568455   0.025
0.896677   0.00568455   0.025
0.912945   0.00568455   0.025
0.928415   0.00568455   0.025
0.943099   0.00568455   0.025
0.957011   0.00568455   0.025
0.970171   0.00568455   0.025
0.982598   0.00568455   0.025
0.994315   0.00568455   0.025
0.00568455   0.0174023   0.025
0.0174023   0.0174023   0.025
0.0298294   0.0174023   0.025
0.0429888   0.0174023   0.025
0.0569012   0.0174023   0.025
0.0715849   0.0174023   0.025
0.0870549   0.0174023   0.025
0.103323   0.0174023   0.025
0.120395   0.0174023   0.025
0.138275   0.0174023   0.025
0.156961   0.0174023   0.025
0.176443   0.0174023   0.025
0.196707   0.0174023   0.025
0.217734   0.0174023   0.025
0.239496   0.0174023   0.025
0.261959   0.0174023   0.025
0.285082   0.0174023   0.025
0.308818   0.0174023   0.025
0.333113   0.0174023   0.025
0.357906   0.0174023   0.025
0.383132   0.0174023   0.025
0.408719   0.0174023   0.025
0.434592   0.0174023   0.025
0.460672   0.0174023   0.025
0.486877   0.0174023   0.025
0.513123   0.0174023   0.025
0.539328   0.0174023   0.025
0.565408   0.0174023   0.025
0.591281   0.0174023   0.025
0.616868   0.0174023   0.025
0.642094   0.0174023   0.025
0.666887   0.0174023   0.025
0.691182   0.0174023   0.025
0.714918   0.0174023   0.025
0.738041   0.0174023   0.025
0.760504   0.0174023   0.025
0.782266   0.0174023   0.025
0.803293   0.0174023   0.025
0.823557   0.0174023   0.025
0.843039   0.0174023   0.025
0.861725   0.0174023   0.025
0.879605   0.0174023   0.025
0.896677   0.0174023   0.025
0.912945   0.0174023   0.025
0.928415   0.0174023   0.025
0.943099   0.0174023   0.025
0.957011   0.0174023   0.025
0.970171   0.0174023   0.025
0.982598   0.0174023   0.025
0.994315   0.0174023   0.025
0.00568455   0.0298294   0.025
0.0174023   0.0298294   0.025
0.0298294   0.0298294   0.025
0.0429888   0.0298294   0.025
0.0569012   0.0298294   0.025
0.0715849   0.0298294   0.025
0.0870549   0.0298294   0.025
0.103323   0.0298294   0.025
0.120395   0.0298294   0.025
0.138275   0.0298294   0.025
0.156961   0.0298294   0.025
0.176443   0.0298294   0.025
0.196707   0.0298294   0.025
0.217734   0.0298294   0.025
0.239496   0.0298294   0.025
0.261959   0.0298294   0.025
0.285082   0.0298294   0.025
0.308818   0.0298294   0.025
0.333113   0.0298294   0.025
0.357906   0.0298294   0.025
0.383132   0.0298294   0.025
0.408719   0.0298294   0.025
0.434592   0.0298294   0.025
0.460672   0.0298294   0.025
0.486877   0.0298294   0.025
0.513123   0.0298294   0.025
0.539328   0.0298294   0.025
0.565408   0.0298294   0.025
0.591281   0.0298294   0.025
0.616868   0.0298294   0.025
0.642094   0.0298294   0.025
0.666887   0.0298294   0.025
0.691182   0.0298294   0.025
0.714918   0.0298294   0.025
0.738041   0.0298294   0.025
0.760504   0.0298294   0.025
0.782266   0.0298294   0.025
0.803293   0.0298294   0.025
0.823557   0.0298294   0.025
0.843039   0.0298294   0.025
0.861725   0.0298294   0.025
0.879605   0.0298294   0.025
0.896677   0.0298294   0.025
0.912945   0.0298294   0.025
0.928415   0.0298294   0.025
0.943099   0.0298294   0.025
0.957011   0.0298294   0.025
0.970171   0.0298294   0.025
0.982598   0.0298294   0.025
0.994315   0.0298294   0.025
0.00568455   0.0429888   0.025
0.0174023   0.0429888   0.025
0.0298294   0.0429888   0.025
0.0429888   0.0429888   0.025
0.0569012   0.0429888   0.025
0.0715849   0.0429888   0.025
0.0870549   0.0429888   0.025
0.103323   0.0429888   0.025
0.120395   0.0429888   0.025
0.138275   0.0429888   0.025
0.156961   0.0429888   0.025
0.176443   0.0429888   0.025
0.196707   0.0429888   0.025
0.217734   0.0429888   0.025
0.239496   0.0429888   0.025
0.261959   0.0429888   0.025
0.285082   0.0429888   0.025
0.308818   0.0429888   0.025
0.333113   0.0429888   0.025
0.357906   0.0429888   0.025
0.383132   0.0429888   0.025
0.408719   0.0429888   0.025
0.434592   0.0429888   0.025
0.460672   0.0429888   0.025
0.486877   0.0429888   0.025
0.513123   0.0429888   0.025
0.539328   0.0429888   0.025
0.565408   0.0429888   0.025
0.591281   0.0429888   0.025
0.616868   0.0429888   0.025
0.642094   0.0429888   0.025
0.666887   0.0429888   0.025
0.691182   0.0429888   0.025
0.714918   0.0429888   0.025
0.738041   0.0429888   0.025
0.760504   0.0429888   0.025
0.782266   0.0429888   0.025
0.803293   0.0429888   0.025
0.823557   0.0429888   0.025
0.843039   0.0429888   0.025
0.861725   0.0429888   0.025
0.879605   0.0429888   0.025
0.896677   0.0429888   0.025
0.912945   0.0429888   0.025
0.928415   0.0429888   0.025
0.943099   0.0429888   0.025
0.957011   0.0429888   0.025
0.970171   0.0429888   0.025
0.982598   0.0429888   0.025
0.994315   0.0429888   0.025
0.00568455   0.0569012   0.025
0.0174023   0.0569012   0.025
0.0298294   0.0569012   0.025
0.0429888   0.0569012   0.025
0.0569012   0.0569012   0.025
0.0715849   0.0569012   0.025
0.0870549   0.0569012   0.025
0.103323   0.0569012   0.025
0.120395   0.0569012   0.025
0.138275   0.0569012   0.025
0.156961   0.0569012   0.025
0.176443   0.0569012   0.025
0.196707   0.0569012   0.025
0.217734   0.0569012   0.025
0.239496   0.0569012   0.025
0.261959   0.0569012   0.025
0.285082   0.0569012   0.025
0.308818   0.0569012   0.025
0.333113   0.0569012   0.025
0.357906   0.0569012   0.025
0.383132   0.0569012   0.025
0.408719   0.0569012   0.025
0.434592   0.0569012   0.025
0.460672   0.0569012   0.025
0.486877   0.0569012   0.025
0.513123   0.0569012   0.025
0.539328   0.0569012   0.025
0.565408   0.0569012   0.025
0.591281   0.0569012   0.025
0.616868   0.0569012   0.025
0.642094   0.0569012   0.025
0.666887   0.0569012   0.025
0.691182   0.0569012   0.025
0.714918   0.0569012   0.025
0.738041   0.0569012   0.025
0.760504   0.0569012   0.025
0.782266   0.0569012   0.025
0.803293   0.0569012   0.025
0.823557   0.0569012   0.025
0.843039   0.0569012   0.025
0.861725   0.0569012   0.025
0.879605   0.0569012   0.025
0.896677   0.0569012   0.025
0.912945   0.0569012   0.025
0.928415   0.0569012   0.025
0.943099   0.0569012   0.025
0.957011   0.0569012   0.025
0.970171   0.0569012   0.025
0.982598   0.0569012   0.025
0.994315   0.0569012   0.025
0.00568455   0.0715849   0.025
0.0174023   0.0715849   0.025
0.0298294   0.0715849   0.025
0.0429888   0.0715849   0.025
0.0569012   0.0715849   0.025
0.0715849   0.0715849   0.025
0.0870549   0.0715849   0.025
0.103323   0.0715849   0.025
0.120395   0.0715849   0.025
0.138275   0.0715849   0.025
0.156961   0.0715849   0.025
0.176443   0.0715849   0.025
0.196707   0.0715849   0.025
0.217734   0.0715849   0.025
0.239496   0.0715849   0.025
0.261959   0.0715849   0.025
0.285082   0.0715849   0.025
0.308818   0.0715849   0.025
0.333113   0.0715849   0.025
0.357906   0.0715849   0.025
0.383132   0.0715849   0.025
0.408719   0.0715849   0.025
0.434592   0.0715849   0.025
0.460672   0.0715849   0.025
0.486877   0.0715849   0.025
0.513123   0.0715849   0.025
0.539328   0.0715849   0.025
0.565408   0.0715849   0.025
0.591281   0.0715849   0.025
0.616868   0.0715849   0.025
0.642094   0.0715849   0.025
0.666887   0.0715849   0.025
0.691182   0.0715849   0.025
0.714918   0.0715849   0.025
0.738041   0.0715849   0.025
0.760504   0.0715849   0.025
0.782266   0.0715849   0.025
0.803293   0.0715849   0.025
0.823557   0.0715849   0.025
0.843039   0.0715849   0.025
0.861725   0.0715849   0.025
0.879605   0.0715849   0.025
0.896677   0.0715849   0.025
0.912945   0.0715849   0.025
0.928415   0.0715849   0.025
0.943099   0.0715849   0.025
0.957011   0.0715849   0.025
0.970171   0.0715849   0.025
0.982598   0.0715849   0.025
0.994315   0.0715849   0.025
0.00568455   0.0870549   0.025
0.0174023   0.0870549   0.025
0.0298294   0.0870549   0.025
0.0429888   0.0870549   0.025
0.0569012   0.0870549   0.025
0.0715849   0.0870549   0.025
0.0870549   0.0870549   0.025
0.103323   0.0870549   0.025
0.120395   0.0870549   0.025
0.138275   0.0870549   0.025
0.156961   0.0870549   0.025
0.176443   0.0870549   0.025
0.196707   0.0870549   0.025
0.217734   0.0870549   0.025
0.239496   0.0870549   0.025
0.261959   0.0870549   0.025
0.285082   0.0870549   0.025
0.308818   0.0870549   0.025
0.333113   0.0870549   0.025
0.357906   0.0870549   0.025
0.383132   0.0870549   0.025
0.408719   0.0870549   0.025
0.434592   0.0870549   0.025
0.460672   0.0870549   0.025
0.486877   0.0870549   0.025
0.513123   0.0870549   0.025
0.539328   0.0870549   0.025
0.565408   0.0870549   0.025
0.591281   0.0870549   0.025
0.616868   0.0870549   0.025
0.642094   0.0870549   0.025
0.666887   0.0870549   0.025
0.691182   0.0870549   0.025
0.714918   0.0870549   0.025
0.738041   0.0870549   0.025
0.760504   0.0870549   0.025
0.782266   0.0870549   0.025
[...]
POINT_DATA   50000
SCALARS Presion double
LOOKUP_TABLE   Presion

0 0 0 0 0 0 0 0 0 0 0 0 0 0 0 0 0 0 0 0 0 0 0 0 0 0 0 0 0 0 0 0 0 0 0 0 0 0 0 0 0 0 0 0 0 0 0 0 0 0 0.00166237 0.00180982 0.00198781 0.00211655 0.00218154 0.00218392 0.00212828 0.00201976 0.00186322 0.00166293 0.00142229 0.00114302 0.000683272 0.000404013 0.000154766 -6.24018e-05 -0.000242367 -0.000376724 -0.000455665 -0.000470381 -0.000415497 -0.000291098 -0.000103691 0.0001341 0.000385046 0.000634954 0.000850087 0.00100348 0.00107363 0.00104669 0.000917983 0.000692722 0.000385652 1.99021e-05 -0.000374896 -0.000763967 -0.00101271 -0.00137488 -0.00171199 -0.00200653 -0.00224802 -0.00243079 -0.00255191 -0.00260996 -0.00260416 -0.00253403 -0.00239961 -0.00220442 -0.00196892 -0.00178573 0.00218213 0.00217101 0.00222103 0.00227194 0.002294 0.00227494 0.00221105 0.0021026 0.00195181 0.00176191 0.00153725 0.00128185 0.000761094 0.000508484 0.000273163 6.23038e-05 -0.000116691 -0.000254759 -0.000342149 -0.000370301 -0.000333973 -0.000233087 -7.37179e-05 0.000130419 0.000353464 0.000572046 0.000758126 0.000886178 0.000935899 0.000894264 0.000757062 0.000529483 0.000225639 -0.000132967 -0.000520084 -0.000905568 -0.00108245 -0.00144167 -0.0017679 -0.0020497 -0.00227984 -0.00245458 -0.00257265 -0.00263452 -0.00264228 -0.00260023 -0.00251679 -0.00240935 -0.00231406 -0.00230048 0.0025344 0.00248446 0.00246988 0.00246451 0.00244682 0.00240317 0.00232639 0.00221369 0.00206514 0.0018829 0.00167141 0.00143396 0.000843547 0.000613401 0.000390478 0.000183997 2.85829e-06 -0.000143217 -0.000244247 -0.000291479 -0.000279233 -0.000206642 -7.88717e-05 8.91763e-05 0.000288977 0.000482216 0.000646765 0.000758011 0.000795744 0.000746503 0.000605392 0.000376837 7.40756e-05 -0.000282695 -0.000669468 -0.00105758 -0.00115861 -0.00151999 -0.00184089 -0.00211464 -0.00233742 -0.00250785 -0.00262658 -0.00269601 -0.00272054 -0.00270726 -0.00266749 -0.00261897 -0.00258763 -0.0026045 0.00282757 0.00276788 0.0027214 0.00267936 0.00263008 0.00256335 0.00247213 0.00235248 0.0022032 0.00202553 0.00182348 0.0015984 0.000933053 0.000719187 0.000504427 0.000298155 0.000109871 -5.02424e-05 -0.000171777 -0.00024532 -0.000264101 -0.000225701 -0.000133601 -3.16671e-06 0.000175318 0.000349327 0.000500128 0.000603702 0.000638956 0.000590771 0.000452386 0.000226562 -7.47938e-05 -0.000432643 -0.000824265 -0.0012204 -0.00124557 -0.00161315 -0.0019332 -0.00220308 -0.00242229 -0.00259187 -0.00271425 -0.00279334 -0.00283471 -0.002846 -0.00283741 -0.00282185 -0.00281353 -0.00282356 0.00311115 0.00304314 0.0029768 0.00290976 0.00283627 0.00274972 0.00264442 0.00251647 0.00236405 0.00218763 0.00199055 0.00177163 0.00102899 0.000823607 0.000610142 0.000397239 0.000194288 1.16864e-05 -0.000139562 -0.000248897 -0.000307719 -0.000311157 -0.000259964 -0.000168816 -1.15381e-05 0.000148652 0.000293442 0.000399172 0.000442978 0.000406875 0.000280942 6.51211e-05 -0.000230788 -0.000589091 -0.000987765 -0.00139546 -0.00134829 -0.00172475 -0.002047 -0.00231636 -0.00253538 -0.00270716 -0.00283555 -0.00292525 -0.00298198 -0.00301249 -0.00302449 -0.00302601 -0.00302407 -0.00302228 0.00340487 0.00332315 0.00323914 0.00315222 0.00305931 0.00295597 0.0028377 0.00270082 0.00254312 0.00236437 0.00216698 0.00194701 0.00112719 0.00092072 0.000698949 0.000469468 0.000241132 2.43909e-05 -0.000168964 -0.000326689 -0.000437545 -0.000493189 -0.000490406 -0.000441829 -0.00030565 -0.000155747 -9.75667e-06 0.000108717 0.00017419 0.000164554 6.5224e-05 -0.000128192 -0.000409245 -0.000762265 -0.00116583 -0.00158555 -0.00147315 -0.00185883 -0.00218439 -0.00245539 -0.00267697 -0.00285371 -0.00299016 -0.00309114 -0.00316181 -0.00320754 -0.00323365 -0.00324493 -0.00324491 -0.00323506 0.00371283 0.00361123 0.0035079 0.00340241 0.00329243 0.00317435 0.00304404 0.00289767 0.00273247 0.00254726 0.00234331 0.00211366 0.00121885 0.000999592 0.00075691 0.000497324 0.000228978 -3.76454e-05 -0.000289685 -0.000512617 -0.000691691 -0.000813996 -0.000871002 -0.000871846 -0.000754112 -0.00061437 -0.000461244 -0.000318765 -0.000215885 -0.000180188 -0.000232721 -0.000384209 -0.000633423 -0.000968072 -0.00136791 -0.00179512 -0.0016291 -0.0020203 -0.00234743 -0.00262061 -0.00284684 -0.00303116 -0.00317793 -0.00329141 -0.00337578 -0.00343504 -0.00347275 -0.00349191 -0.00349465 -0.00348214 0.00402924 0.00390233 0.00377693 0.00365234 0.00352605 0.00339418 0.00325212 0.00309526 0.00291972 0.00272302 0.0025049 0.00225528 0.00128907 0.00104276 0.000763184 0.000455851 0.000128204 -0.000209098 -0.000541737 -0.000852245 -0.00112144 -0.00133072 -0.00146486 -0.00152797 -0.00142077 -0.00129631 -0.0011325 -0.000954511 -0.000795552 -0.000690131 -0.000667864 -0.000748395 -0.000938361 -0.00123109 -0.00160893 -0.00203118 -0.00182939 -0.00221595 -0.00253872 -0.00281249 -0.00304466 -0.00323922 -0.00339919 -0.0035275 -0.00362704 -0.00370052 -0.00375037 -0.00377864 -0.00378707 -0.00377705 0.00434019 0.00418355 0.00403342 0.00388861 0.00374586 0.00360025 0.00344588 0.00327663 0.00308691 0.00287239 0.00263077 0.00234875 0.0013152 0.00102459 0.000688325 0.000310924 -0.000100751 -0.000535591 -0.00097733 -0.00140483 -0.00179353 -0.00211797 -0.00235497 -0.0025019 -0.00239029 -0.00229346 -0.0021194 -0.00189513 -0.00165874 -0.00145308 -0.00131865 -0.00128718 -0.00137668 -0.00158943 -0.00191298 -0.00230555 -0.00209458 -0.00245634 -0.00276286 -0.00303257 -0.0032708 -0.0034783 -0.00365514 -0.00380195 -0.00391989 -0.0040104 -0.00407505 -0.00411545 -0.00413326 -0.00413026 0.00462379 0.00443417 0.00425721 0.00409109 0.00393132 0.00377129 0.00360312 0.00341845 0.00320932 0.00296892 0.00269233 0.00236305 0.00126531 0.000909794 0.000492793 1.77879e-05 -0.000508802 -0.00107505 -0.00166217 -0.00224457 -0.00279134 -0.00326902 -0.00364524 -0.00390868 -0.00377157 -0.00372366 -0.00354571 -0.00326685 -0.00293027 -0.00258818 -0.00229428 -0.00209579 -0.00202649 -0.00210215 -0.0023195 -0.00263967 -0.00245742 -0.00275946 -0.00302919 -0.00328562 -0.00352799 -0.00375063 -0.00394855 -0.00411873 -0.00425987 -0.00437192 -0.00445559 -0.00451216 -0.00454336 -0.00455131 0.00484988 0.00462526 0.00442023 0.00423205 0.00405453 0.00387884 0.00369438 0.00348992 0.00325446 0.00297808 0.00265264 0.00225842 0.0010971 0.000652422 0.000126081 -0.000479677 -0.00115874 -0.00189796 -0.00267538 -0.00346011 -0.00421383 -0.00489392 -0.00545774 -0.00588266 -0.00569834 -0.00573041 -0.00556275 -0.00522596 -0.00476765 -0.00424967 -0.00374049 -0.00330608 -0.00300064 -0.00285911 -0.00289304 -0.00307344 -0.00297026 -0.00315676 -0.00335682 -0.00358346 -0.00382401 -0.00406221 -0.0042851 -0.00448411 -0.00465439 -0.00479374 -0.00490175 -0.00497928 -0.00502809 -0.00505059 0.00497987 0.00471967 0.0044863 0.00427579 0.0040798 0.00388661 0.00368237 0.00345229 0.00318175 0.00285709 0.00246628 0.00198643 0.000757705 0.000195922 -0.000472978 -0.00124829 -0.00212409 -0.00308557 -0.00410688 -0.00515083 -0.00617051 -0.00711288 -0.00792384 -0.00856626 -0.00832352 -0.00847533 -0.00834121 -0.00795099 -0.00735496 -0.00662342 -0.00583967 -0.00509043 -0.00445452 -0.00399209 -0.00373659 -0.00367987 -0.00371463 -0.00370197 -0.00378179 -0.00395036 -0.00417561 -0.00442546 -0.00467518 -0.004908 -0.00511371 -0.00528689 -0.00542539 -0.00552933 -0.00560029 -0.00564093 0.00496737 0.00467261 0.00441176 0.00417921 0.00396396 0.00375091 0.00352233 0.00325935 0.00294311 0.00255564 0.0020804 0.00149128 0.000184993 -0.000525176 -0.00137402 -0.00236273 -0.00348543 -0.00472509 -0.00605107 -0.00741868 -0.00877095 -0.0100429 -0.0111676 -0.0120898 -0.0118034 -0.0121197 -0.0120507 -0.011622 -0.0108833 -0.00991034 -0.00879887 -0.00765588 -0.00658697 -0.00568272 -0.00500611 -0.00458512 -0.00481035 -0.00448132 -0.00436577 -0.00442954 -0.00461307 -0.00486238 -0.00513608 -0.00540544 -0.00565218 -0.00586587 -0.00604155 -0.00617794 -0.00627618 -0.00633897 0.0047598 0.00443335 0.00414707 0.00389334 0.00365805 0.0034222 0.00316373 0.00285918 0.00248496 0.00201823 0.00143733 0.000712754 -0.000689021 -0.00158127 -0.00265042 -0.00389981 -0.00532332 -0.00690093 -0.00859597 -0.0103546 -0.0121081 -0.0137776 -0.015282 -0.0165435 -0.0162685 -0.0167923 -0.0168255 -0.0163846 -0.0155149 -0.0142921 -0.0128197 -0.0112207 -0.00962602 -0.00815908 -0.00691912 -0.00598864 -0.00641789 -0.0056206 -0.00520312 -0.00508894 -0.00518448 -0.00540756 -0.00569404 -0.00599803 -0.00628926 -0.00654952 -0.00676925 -0.00694479 -0.00707625 -0.00716616 0.00430154 0.00394822 0.00363982 0.00336638 0.00311027 0.00284824 0.00255349 0.00219762 0.00175191 0.00118817 0.000479086 -0.000408635 -0.00193219 -0.00304096 -0.00437156 -0.00592945 -0.00770764 -0.00968194 -0.0118079 -0.0140207 -0.0162373 -0.0183631 -0.0203008 -0.0219479 -0.0217839 -0.0225481 -0.0227197 -0.0223026 -0.0213328 -0.0198804 -0.0180486 -0.0159688 -0.0137912 -0.0116697 -0.00974345 -0.00816787 -0.008724 -0.00728181 -0.00642202 -0.00602409 -0.00595876 -0.00611055 -0.00638585 -0.00671499 -0.00705017 -0.00736139 -0.00763182 -0.00785376 -0.00802541 -0.00814873 0.00353858 0.00316521 0.00283928 0.0025482 0.00227061 0.00197873 0.00164085 0.00122337 0.000692191 1.34193e-05 -0.000846298 -0.0019246 -0.00360365 -0.00496167 -0.00659235 -0.00850283 -0.0106841 -0.013106 -0.0157142 -0.0184301 -0.0211542 -0.0237742 -0.0261754 -0.0282299 -0.0283074 -0.0293273 -0.0296657 -0.0293127 -0.0282917 -0.0266613 -0.0245165 -0.0219869 -0.0192312 -0.0164263 -0.01375 -0.0114429 -0.0119046 -0.00964295 -0.00817584 -0.00735614 -0.00702653 -0.00703743 -0.0072601 -0.00759371 -0.00796598 -0.00832955 -0.00865641 -0.00893234 -0.00915226 -0.00931684 0.0024244 0.00203967 0.00170202 0.00139607 0.00109661 0.000771317 0.000383537 -0.000105558 -0.000735564 -0.00154619 -0.002577 -0.00387059 -0.00574336 -0.0073785 -0.00934132 -0.0116395 -0.0142603 -0.0171652 -0.0202872 -0.0235315 -0.0267801 -0.0299017 -0.0327639 -0.0352169 -0.0356654 -0.0369345 -0.0374542 -0.0372022 -0.0361886 -0.0344577 -0.0320898 -0.0292025 -0.0259507 -0.0225219 -0.0191244 -0.0160837 -0.0160727 -0.0128622 -0.010624 -0.00922391 -0.00849811 -0.00827107 -0.00837782 -0.0086801 -0.00907336 -0.0094858 -0.00987286 -0.0102102 -0.0104874 -0.0107026 0.000926635 0.000540801 0.000198344 -0.000118973 -0.000440117 -0.000801772 -0.00124537 -0.00181479 -0.00255497 -0.00351131 -0.0047294 -0.00625729 -0.00836152 -0.0102934 -0.0126094 -0.015316 -0.0183943 -0.021795 -0.0254357 -0.0292029 -0.0329592 -0.0365546 -0.0398404 -0.042652 -0.0435611 -0.0450532 -0.0457512 -0.0456255 -0.0446758 -0.0429329 -0.0404598 -0.037355 -0.033758 -0.0298524 -0.0258631 -0.0221801 -0.0212349 -0.0170374 -0.0139041 -0.0117684 -0.0104964 -0.00990869 -0.00981183 -0.0100281 -0.0104137 -0.0108643 -0.0113118 -0.011717 -0.0120607 -0.0123371 -0.000966591 -0.0013422 -0.00168168 -0.00200605 -0.00234775 -0.00274751 -0.00325111 -0.00390709 -0.00476529 -0.00587636 -0.00729138 -0.00906384 -0.0114302 -0.0136672 -0.0163427 -0.0194596 -0.0229907 -0.0268731 -0.0310069 -0.035259 -0.0394726 -0.043481 -0.0471234 -0.0502293 -0.0516218 -0.0532966 -0.0541539 -0.054163 -0.0533193 -0.0516445 -0.0491859 -0.0460212 -0.0422669 -0.0380887 -0.0337093 -0.0295434 -0.0272784 -0.0221735 -0.0180996 -0.0151079 -0.013142 -0.0120541 -0.0116429 -0.0116975 -0.012031 -0.0124991 -0.013002 -0.013479 -0.013898 -0.0142469 -0.0032418 -0.00359544 -0.00392359 -0.00424982 -0.00460971 -0.00504745 -0.00561262 -0.00635776 -0.00733697 -0.00860534 -0.0102184 -0.0122347 -0.01488 -0.017417 -0.020441 -0.0239495 -0.0279045 -0.0322278 -0.0368008 -0.0414712 -0.0460648 -0.0504024 -0.0543159 -0.0576386 -0.0594686 -0.0612799 -0.0622653 -0.0624005 -0.0616831 -0.060132 -0.0577839 -0.0546984 -0.0509669 -0.0467273 -0.0421799 -0.0377145 -0.0339877 -0.0281652 -0.0232061 -0.019306 -0.0165284 -0.0148019 -0.0139508 -0.0137482 -0.0139681 -0.0144205 -0.0149662 -0.0155151 -0.0160168 -0.0164491 -0.00585794 -0.00617822 -0.00648647 -0.00680858 -0.00718271 -0.00765593 -0.00828089 -0.0091133 -0.0102106 -0.0116313 -0.0134341 -0.015681 -0.0186024 -0.0214201 -0.0247647 -0.0286263 -0.0329547 -0.0376556 -0.0425927 -0.0475959 -0.0524775 -0.0570502 -0.0611448 -0.0646052 -0.0667814 -0.0686832 -0.0697604 -0.0699996 -0.0694066 -0.068003 -0.0658217 -0.0629096 -0.0593357 -0.055206 -0.050683 -0.0460872 -0.0410742 -0.0347956 -0.0291068 -0.0243367 -0.0206907 -0.0182137 -0.0167977 -0.0162301 -0.0162589 -0.0166492 -0.0172156 -0.017831 -0.0184199 -0.0189456 -0.00874759 -0.00902428 -0.00930433 -0.00961561 -0.00999838 -0.0105019 -0.011181 -0.0120939 -0.0133 -0.0148602 -0.0168348 -0.0192875 -0.0224595 -0.0255253 -0.0291474 -0.0333073 -0.0379426 -0.0429437 -0.0481582 -0.053402 -0.0584778 -0.0631953 -0.0673887 -0.0709169 -0.073335 -0.0752866 -0.0764201 -0.0767346 -0.0762475 -0.0749867 -0.0729868 -0.0702886 -0.0669449 -0.0630316 -0.0586662 -0.0540769 -0.0482068 -0.0417539 -0.0355664 -0.0300607 -0.0255738 -0.0222894 -0.020207 -0.0191673 -0.0189176 -0.0191873 -0.0197428 -0.0204127 -0.0210892 -0.0217162 -0.0118218 -0.0120466 -0.0122909 -0.0125842 -0.0129684 -0.0134943 -0.0142182 -0.0151995 -0.0164991 -0.0181785 -0.0202983 -0.022922 -0.0262964 -0.029567 -0.0334122 -0.0378051 -0.0426721 -0.0478907 -0.0532953 -0.058692 -0.0638781 -0.068664 -0.0728904 -0.0764321 -0.0790018 -0.0809708 -0.0821304 -0.0824918 -0.0820832 -0.0809411 -0.0791053 -0.0766162 -0.0735172 -0.0698614 -0.0657244 -0.0612429 -0.0550447 -0.0486717 -0.0422521 -0.0362238 -0.0310148 -0.0269423 -0.0241395 -0.0225401 -0.0219256 -0.0220091 -0.0225133 -0.0232187 -0.0239786 -0.0247117 -0.0149781 -0.0151451 -0.0153472 -0.0156154 -0.0159925 -0.0165303 -0.0172859 -0.0183193 -0.0196915 -0.0214637 -0.0236954 -0.0264475 -0.0299572 -0.0333811 -0.037388 -0.0419441 -0.0469665 -0.0523225 -0.0578379 -0.0633127 -0.0685423 -0.0733399 -0.077554 -0.0810733 -0.0837316 -0.0856952 -0.0868589 -0.087243 -0.0868848 -0.085829 -0.0841219 -0.0818078 -0.0789277 -0.0755208 -0.071632 -0.0673266 -0.0612744 -0.0551763 -0.0487805 -0.042484 -0.0367472 -0.0319884 -0.0284767 -0.0262686 -0.0252179 -0.0250502 -0.0254578 -0.0261739 -0.027008 -0.0278484 -0.0181101 -0.0182161 -0.0183713 -0.0186076 -0.0189684 -0.0195058 -0.0202771 -0.0213422 -0.0227615 -0.0245951 -0.0269003 -0.0297339 -0.0332973 -0.0368186 -0.0409238 -0.0455736 -0.0506791 -0.0561016 -0.0616618 -0.0671569 -0.0723829 -0.0771567 -0.0813333 -0.0848122 -0.0875244 -0.0894692 -0.0906238 -0.0910133 -0.0906812 -0.0896788 -0.0880596 -0.0858739 -0.0831657 -0.0799702 -0.0763153 -0.0722228 -0.066644 -0.0609422 -0.0547773 -0.0484625 -0.042433 -0.0371574 -0.0330177 -0.030204 -0.0286745 -0.0282008 -0.0284664 -0.0291647 -0.0300598 -0.0310049 -0.0211174 -0.0211623 -0.0212679 -0.0214663 -0.0218011 -0.0223244 -0.0230932 -0.0241667 -0.0256045 -0.0274645 -0.0298019 -0.0326679 -0.0361946 -0.039756 -0.0438966 -0.0485751 -0.0536997 -0.0591293 -0.0646833 -0.0701587 -0.0753532 -0.0800868 -0.0842183 -0.0876539 -0.0904068 -0.0923282 -0.0934681 -0.0938526 -0.0935283 -0.0925514 -0.0909819 -0.0888774 -0.0862885 -0.0832541 -0.0797983 -0.0759266 -0.0709844 -0.0657275 -0.0599292 -0.0538015 -0.0477117 -0.0421249 -0.0374946 -0.0341322 -0.0321185 -0.0313031 -0.0313874 -0.0320388 -0.0329788 -0.034023 -0.0239144 -0.023901 -0.0239562 -0.0241121 -0.0244119 -0.0249068 -0.0256534 -0.02671 -0.0281348 -0.0299841 -0.0323104 -0.0351593 -0.0385556 -0.0420998 -0.0462166 -0.0508648 -0.0559537 -0.0613435 -0.0668548 -0.0722864 -0.0774377 -0.0821298 -0.0862226 -0.0896238 -0.0924172 -0.0943181 -0.0954441 -0.0958193 -0.0954907 -0.0945179 -0.0929663 -0.0909012 -0.088382 -0.0854561 -0.0821544 -0.0784857 -0.0742104 -0.0693863 -0.0640142 -0.0582096 -0.0522507 -0.0465561 -0.041602 -0.0377909 -0.0353255 -0.0341563 -0.0340307 -0.034609 -0.035577 -0.0367127 -0.0264365 -0.02637 -0.0263763 -0.0264868 -0.0267433 -0.0271959 -0.0279 -0.0289129 -0.0302917 -0.0320913 -0.0343623 -0.0371452 -0.0403171 -0.0437892 -0.047827 -0.052393 -0.0574008 -0.0627147 -0.0681592 -0.0735357 -0.0786442 -0.0833051 -0.0873754 -0.0907597 -0.0935995 -0.0954887 -0.0966064 -0.0969729 -0.0966335 -0.0956495 -0.0940911 -0.0920311 -0.0895382 -0.0866713 -0.0834733 -0.0799697 -0.0763087 -0.0718601 -0.0669065 -0.0614851 -0.0557835 -0.0501475 -0.0450337 -0.0408955 -0.03804 -0.0365279 -0.0361767 -0.0366606 -0.037641 -0.0388601 -0.0286431 -0.028531 -0.028492 -0.0285559 -0.0287624 -0.0291594 -0.0298007 -0.0307424 -0.0320409 -0.0337505 -0.0359212 -0.0385897 -0.0414464 -0.0447936 -0.0487021 -0.0531407 -0.0580302 -0.0632417 -0.0686049 -0.0739241 -0.078999 -0.0836465 -0.0877174 -0.0911083 -0.0940012 -0.0958923 -0.0970115 -0.0973737 -0.0970214 -0.0960165 -0.094433 -0.0923505 -0.0898471 -0.0869934 -0.0838472 -0.0804558 -0.0773183 -0.0731588 -0.0685644 -0.0635171 -0.0581258 -0.0526558 -0.0475144 -0.0431671 -0.0399963 -0.0381687 -0.0375875 -0.0379617 -0.038941 -0.0402367 -0.0305179 -0.0303693 -0.0302905 -0.0303086 -0.03046 -0.0307895 -0.0313482 -0.0321909 -0.0333737 -0.0349517 -0.0369762 -0.0394825 -0.0419377 -0.0451098 -0.0488433 -0.0531157 -0.057857 -0.0629472 -0.068222 -0.0734883 -0.0785443 -0.083201 -0.0872997 -0.090725 -0.093675 -0.0955856 -0.0967195 -0.0970854 -0.0967222 -0.0956912 -0.0940694 -0.0919424 -0.0893969 -0.0865145 -0.0833668 -0.080025 -0.0773134 -0.0733393 -0.0690094 -0.0642717 -0.0591751 -0.0539099 -0.0488206 -0.0443544 -0.0409376 -0.0388273 -0.0380184 -0.0382716 -0.0392393 -0.0406071 -0.0320663 -0.0318916 -0.0317802 -0.0317552 -0.0318483 -0.0320996 -0.0325566 -0.0332723 -0.0343032 -0.0357067 -0.0375381 -0.0398347 -0.0418076 -0.0447574 -0.0482748 -0.0523482 -0.0569184 -0.0618748 -0.0670598 -0.0722823 -0.0773375 -0.0820285 -0.0861847 -0.0896749 -0.0926809 -0.0946322 -0.0957971 -0.0961782 -0.0958098 -0.0947518 -0.0930832 -0.0908944 -0.0882793 -0.0853287 -0.0821261 -0.0787637 -0.07639 -0.072489 -0.0683061 -0.0637726 -0.0588966 -0.0538077 -0.0487875 -0.044247 -0.0406295 -0.0382612 -0.0372263 -0.0373485 -0.0382955 -0.0397341 -0.0333116 -0.033122 -0.0329865 -0.0329228 -0.032956 -0.0331198 -0.0334565 -0.0340169 -0.0348586 -0.0360435 -0.037634 -0.0396734 -0.0410905 -0.0437737 -0.0470395 -0.0508875 -0.0552704 -0.0600869 -0.0651856 -0.0703767 -0.0754513 -0.0802029 -0.084447 -0.0880345 -0.0910878 -0.0931041 -0.09432 -0.0947315 -0.0943677 -0.0932863 -0.0915668 -0.0893029 -0.0865942 -0.0835379 -0.0802264 -0.0767681 -0.0746585 -0.070713 -0.0665449 -0.0620808 -0.057305 -0.0523035 -0.0473042 -0.0426775 -0.0388652 -0.0362423 -0.0349732 -0.0349505 -0.0358676 -0.0373784 -0.0342899 -0.0340977 -0.0339478 -0.033851 -0.0338239 -0.0338915 -0.0340893 -0.0344653 -0.0350792 -0.0360001 -0.0373013 -0.039037 -0.0398331 -0.04221 -0.0451944 -0.0487983 -0.0529849 -0.057662 -0.0626832 -0.0678587 -0.0729742 -0.0778129 -0.0821752 -0.085893 -0.0889751 -0.0910833 -0.0923734 -0.0928343 -0.0924895 -0.0913929 -0.0896232 -0.0872756 -0.0844524 -0.081255 -0.0777803 -0.0741465 -0.0722378 -0.0681265 -0.0638299 -0.0592778 -0.0544445 -0.0493893 -0.0443009 -0.0395143 -0.0354629 -0.0325555 -0.031025 -0.0308337 -0.0317085 -0.0332948 -0.0350457 -0.0348641 -0.0347106 -0.0345873 -0.0344999 -0.0344621 -0.0345011 -0.0346617 -0.0350076 -0.035618 -0.0365818 -0.0379694 -0.0380901 -0.040127 -0.0428083 -0.0461575 -0.0501477 -0.0546932 -0.0596509 -0.0648299 -0.0700094 -0.0749613 -0.0794709 -0.0833516 -0.0864331 -0.0886616 -0.090052 -0.0905851 -0.0902779 -0.0891793 -0.0873653 -0.0849298 -0.0819754 -0.0786037 -0.0749116 -0.0710193 -0.0692516 -0.0648479 -0.0602692 -0.0554525 -0.0503724 -0.0450769 -0.039732 -0.0346494 -0.0302572 -0.0269917 -0.0251448 -0.0247453 -0.0255584 -0.027224 -0.0356279 -0.0354717 -0.0353269 -0.0351843 -0.0350356 -0.0348808 -0.0347377 -0.0346487 -0.0346836 -0.0349366 -0.035517 -0.0365165 -0.035921 -0.0375924 -0.0399584 -0.0430529 -0.0468559 -0.0512857 -0.0561999 -0.0614046 -0.0666724 -0.0717634 -0.0764477 -0.0805219 -0.083562 -0.0859396 -0.087458 -0.0880891 -0.0878418 -0.0867588 -0.0849109 -0.0823882 -0.0792897 -0.0757136 -0.0717515 -0.0675157 -0.0658229 -0.0609943 -0.0559683 -0.0506912 -0.0451456 -0.0393814 -0.0335589 -0.0279825 -0.0230862 -0.0193378 -0.0170833 -0.0164139 -0.0171348 -0.0188823 -0.0360874 -0.0359747 -0.0358527 -0.0356975 -0.03