# vtk DataFile Version 2.0
Velocidades
ASCII

DATASET STRUCTURED_GRID
DIMENSIONS   50   50   20

POINTS   50000   double
0.00568455   0.00568455   0.025
0.0174023   0.00568455   0.025
0.0298294   0.00568455   0.025
0.0429888   0.00568455   0.025
0.0569012   0.00568455   0.025
0.0715849   0.00568455   0.025
0.0870549   0.00568455   0.025
0.103323   0.00568455   0.025
0.120395   0.00568455   0.025
0.138275   0.00568455   0.025
0.156961   0.00568455   0.025
0.176443   0.00568455   0.025
0.196707   0.00568455   0.025
0.217734   0.00568455   0.025
0.239496   0.00568455   0.025
0.261959   0.00568455   0.025
0.285082   0.00568455   0.025
0.308818   0.00568455   0.025
0.333113   0.00568455   0.025
0.357906   0.00568455   0.025
0.383132   0.00568455   0.025
0.408719   0.00568455   0.025
0.434592   0.00568455   0.025
0.460672   0.00568455   0.025
0.486877   0.00568455   0.025
0.513123   0.00568455   0.025
0.539328   0.00568455   0.025
0.565408   0.00568455   0.025
0.591281   0.00568455   0.025
0.616868   0.00568455   0.025
0.642094   0.00568455   0.025
0.666887   0.00568455   0.025
0.691182   0.00568455   0.025
0.714918   0.00568455   0.025
0.738041   0.00568455   0.025
0.760504   0.00568455   0.025
0.782266   0.00568455   0.025
0.803293   0.00568455   0.025
0.823557   0.00568455   0.025
0.843039   0.00568455   0.025
0.861725   0.00568455   0.025
0.879605   0.00568455   0.025
0.896677   0.00568455   0.025
0.912945   0.00568455   0.025
0.928415   0.00568455   0.025
0.943099   0.00568455   0.025
0.957011   0.00568455   0.025
0.970171   0.00568455   0.025
0.982598   0.00568455   0.025
0.994315   0.00568455   0.025
0.00568455   0.0174023   0.025
0.0174023   0.0174023   0.025
0.0298294   0.0174023   0.025
0.0429888   0.0174023   0.025
0.0569012   0.0174023   0.025
0.0715849   0.0174023   0.025
0.0870549   0.0174023   0.025
0.103323   0.0174023   0.025
0.120395   0.0174023   0.025
0.138275   0.0174023   0.025
0.156961   0.0174023   0.025
0.176443   0.0174023   0.025
0.196707   0.0174023   0.025
0.217734   0.0174023   0.025
0.239496   0.0174023   0.025
0.261959   0.0174023   0.025
0.285082   0.0174023   0.025
0.308818   0.0174023   0.025
0.333113   0.0174023   0.025
0.357906   0.0174023   0.025
0.383132   0.0174023   0.025
0.408719   0.0174023   0.025
0.434592   0.0174023   0.025
0.460672   0.0174023   0.025
0.486877   0.0174023   0.025
0.513123   0.0174023   0.025
0.539328   0.0174023   0.025
0.565408   0.0174023   0.025
0.591281   0.0174023   0.025
0.616868   0.0174023   0.025
0.642094   0.0174023   0.025
0.666887   0.0174023   0.025
0.691182   0.0174023   0.025
0.714918   0.0174023   0.025
0.738041   0.0174023   0.025
0.760504   0.0174023   0.025
0.782266   0.0174023   0.025
0.803293   0.0174023   0.025
0.823557   0.0174023   0.025
0.843039   0.0174023   0.025
0.861725   0.0174023   0.025
0.879605   0.0174023   0.025
0.896677   0.0174023   0.025
0.912945   0.0174023   0.025
0.928415   0.0174023   0.025
0.943099   0.0174023   0.025
0.957011   0.0174023   0.025
0.970171   0.0174023   0.025
0.982598   0.0174023   0.025
0.994315   0.0174023   0.025
0.00568455   0.0298294   0.025
0.0174023   0.0298294   0.025
0.0298294   0.0298294   0.025
0.0429888   0.0298294   0.025
0.0569012   0.0298294   0.025
0.0715849   0.0298294   0.025
0.0870549   0.0298294   0.025
0.103323   0.0298294   0.025
0.120395   0.0298294   0.025
0.138275   0.0298294   0.025
0.156961   0.0298294   0.025
0.176443   0.0298294   0.025
0.196707   0.0298294   0.025
0.217734   0.0298294   0.025
0.239496   0.0298294   0.025
0.261959   0.0298294   0.025
0.285082   0.0298294   0.025
0.308818   0.0298294   0.025
0.333113   0.0298294   0.025
0.357906   0.0298294   0.025
0.383132   0.0298294   0.025
0.408719   0.0298294   0.025
0.434592   0.0298294   0.025
0.460672   0.0298294   0.025
0.486877   0.0298294   0.025
0.513123   0.0298294   0.025
0.539328   0.0298294   0.025
0.565408   0.0298294   0.025
0.591281   0.0298294   0.025
0.616868   0.0298294   0.025
0.642094   0.0298294   0.025
0.666887   0.0298294   0.025
0.691182   0.0298294   0.025
0.714918   0.0298294   0.025
0.738041   0.0298294   0.025
0.760504   0.0298294   0.025
0.782266   0.0298294   0.025
0.803293   0.0298294   0.025
0.823557   0.0298294   0.025
0.843039   0.0298294   0.025
0.861725   0.0298294   0.025
0.879605   0.0298294   0.025
0.896677   0.0298294   0.025
0.912945   0.0298294   0.025
0.928415   0.0298294   0.025
0.943099   0.0298294   0.025
0.957011   0.0298294   0.025
0.970171   0.0298294   0.025
0.982598   0.0298294   0.025
0.994315   0.0298294   0.025
0.00568455   0.0429888   0.025
0.0174023   0.0429888   0.025
0.0298294   0.0429888   0.025
0.0429888   0.0429888   0.025
0.0569012   0.0429888   0.025
0.0715849   0.0429888   0.025
0.0870549   0.0429888   0.025
0.103323   0.0429888   0.025
0.120395   0.0429888   0.025
0.138275   0.0429888   0.025
0.156961   0.0429888   0.025
0.176443   0.0429888   0.025
0.196707   0.0429888   0.025
0.217734   0.0429888   0.025
0.239496   0.0429888   0.025
0.261959   0.0429888   0.025
0.285082   0.0429888   0.025
0.308818   0.0429888   0.025
0.333113   0.0429888   0.025
0.357906   0.0429888   0.025
0.383132   0.0429888   0.025
0.408719   0.0429888   0.025
0.434592   0.0429888   0.025
0.460672   0.0429888   0.025
0.486877   0.0429888   0.025
0.513123   0.0429888   0.025
0.539328   0.0429888   0.025
0.565408   0.0429888   0.025
0.591281   0.0429888   0.025
0.616868   0.0429888   0.025
0.642094   0.0429888   0.025
0.666887   0.0429888   0.025
0.691182   0.0429888   0.025
0.714918   0.0429888   0.025
0.738041   0.0429888   0.025
0.760504   0.0429888   0.025
0.782266   0.0429888   0.025
0.803293   0.0429888   0.025
0.823557   0.0429888   0.025
0.843039   0.0429888   0.025
0.861725   0.0429888   0.025
0.879605   0.0429888   0.025
0.896677   0.0429888   0.025
0.912945   0.0429888   0.025
0.928415   0.0429888   0.025
0.943099   0.0429888   0.025
0.957011   0.0429888   0.025
0.970171   0.0429888   0.025
0.982598   0.0429888   0.025
0.994315   0.0429888   0.025
0.00568455   0.0569012   0.025
0.0174023   0.0569012   0.025
0.0298294   0.0569012   0.025
0.0429888   0.0569012   0.025
0.0569012   0.0569012   0.025
0.0715849   0.0569012   0.025
0.0870549   0.0569012   0.025
0.103323   0.0569012   0.025
0.120395   0.0569012   0.025
0.138275   0.0569012   0.025
0.156961   0.0569012   0.025
0.176443   0.0569012   0.025
0.196707   0.0569012   0.025
0.217734   0.0569012   0.025
0.239496   0.0569012   0.025
0.261959   0.0569012   0.025
0.285082   0.0569012   0.025
0.308818   0.0569012   0.025
0.333113   0.0569012   0.025
0.357906   0.0569012   0.025
0.383132   0.0569012   0.025
0.408719   0.0569012   0.025
0.434592   0.0569012   0.025
0.460672   0.0569012   0.025
0.486877   0.0569012   0.025
0.513123   0.0569012   0.025
0.539328   0.0569012   0.025
0.565408   0.0569012   0.025
0.591281   0.0569012   0.025
0.616868   0.0569012   0.025
0.642094   0.0569012   0.025
0.666887   0.0569012   0.025
0.691182   0.0569012   0.025
0.714918   0.0569012   0.025
0.738041   0.0569012   0.025
0.760504   0.0569012   0.025
0.782266   0.0569012   0.025
0.803293   0.0569012   0.025
0.823557   0.0569012   0.025
0.843039   0.0569012   0.025
0.861725   0.0569012   0.025
0.879605   0.0569012   0.025
0.896677   0.0569012   0.025
0.912945   0.0569012   0.025
0.928415   0.0569012   0.025
0.943099   0.0569012   0.025
0.957011   0.0569012   0.025
0.970171   0.0569012   0.025
0.982598   0.0569012   0.025
0.994315   0.0569012   0.025
0.00568455   0.0715849   0.025
0.0174023   0.0715849   0.025
0.0298294   0.0715849   0.025
0.0429888   0.0715849   0.025
0.0569012   0.0715849   0.025
0.0715849   0.0715849   0.025
0.0870549   0.0715849   0.025
0.103323   0.0715849   0.025
0.120395   0.0715849   0.025
0.138275   0.0715849   0.025
0.156961   0.0715849   0.025
0.176443   0.0715849   0.025
0.196707   0.0715849   0.025
0.217734   0.0715849   0.025
0.239496   0.0715849   0.025
0.261959   0.0715849   0.025
0.285082   0.0715849   0.025
0.308818   0.0715849   0.025
0.333113   0.0715849   0.025
0.357906   0.0715849   0.025
0.383132   0.0715849   0.025
0.408719   0.0715849   0.025
0.434592   0.0715849   0.025
0.460672   0.0715849   0.025
0.486877   0.0715849   0.025
0.513123   0.0715849   0.025
0.539328   0.0715849   0.025
0.565408   0.0715849   0.025
0.591281   0.0715849   0.025
0.616868   0.0715849   0.025
0.642094   0.0715849   0.025
0.666887   0.0715849   0.025
0.691182   0.0715849   0.025
0.714918   0.0715849   0.025
0.738041   0.0715849   0.025
0.760504   0.0715849   0.025
0.782266   0.0715849   0.025
0.803293   0.0715849   0.025
0.823557   0.0715849   0.025
0.843039   0.0715849   0.025
0.861725   0.0715849   0.025
0.879605   0.0715849   0.025
0.896677   0.0715849   0.025
0.912945   0.0715849   0.025
0.928415   0.0715849   0.025
0.943099   0.0715849   0.025
0.957011   0.0715849   0.025
0.970171   0.0715849   0.025
0.982598   0.0715849   0.025
0.994315   0.0715849   0.025
0.00568455   0.0870549   0.025
0.0174023   0.0870549   0.025
0.0298294   0.0870549   0.025
0.0429888   0.0870549   0.025
0.0569012   0.0870549   0.025
0.0715849   0.0870549   0.025
0.0870549   0.0870549   0.025
0.103323   0.0870549   0.025
0.120395   0.0870549   0.025
0.138275   0.0870549   0.025
0.156961   0.0870549   0.025
0.176443   0.0870549   0.025
0.196707   0.0870549   0.025
0.217734   0.0870549   0.025
0.239496   0.0870549   0.025
0.261959   0.0870549   0.025
0.285082   0.0870549   0.025
0.308818   0.0870549   0.025
0.333113   0.0870549   0.025
0.357906   0.0870549   0.025
0.383132   0.0870549   0.025
0.408719   0.0870549   0.025
0.434592   0.0870549   0.025
0.460672   0.0870549   0.025
0.486877   0.0870549   0.025
0.513123   0.0870549   0.025
0.539328   0.0870549   0.025
0.565408   0.0870549   0.025
0.591281   0.0870549   0.025
0.616868   0.0870549   0.025
0.642094   0.0870549   0.025
0.666887   0.0870549   0.025
0.691182   0.0870549   0.025
0.714918   0.0870549   0.025
0.738041   0.0870549   0.025
0.760504   0.0870549   0.025
0.782266   0.0870549   0.025
[...]
POINT_DATA   50000
VECTORS Velocidades double

5.9716e-05 0.00114107 0
0.000163325 0.00224369 0
0.000225073 0.00290988 0
0.000238635 0.00336297 0
0.000214179 0.00368907 0
0.000163104 0.00392656 0
9.43303e-05 0.00409476 0
1.44993e-05 0.00420465 0
-7.14495e-05 0.00426359 0
-0.000160057 0.00427771 0
-0.000249536 0.00425383 0
-0.000301675 0.00420429 0
-0.000348162 0.00416816 0
-0.000428233 0.00405768 0
-0.000508526 0.00389765 0
-0.000585564 0.00369517 0
-0.000658917 0.00345305 0
-0.000728409 0.00317294 0
-0.000793726 0.00285637 0
-0.000854381 0.00250524 0
-0.000909761 0.00212215 0
-0.000959232 0.00171048 0
-0.00100239 0.00127464 0
-0.00102985 0.000821042 0
-0.00104814 0.000365635 0
-0.00106541 -0.000106217 0
-0.00107324 -0.000583042 0
-0.00107076 -0.00105749 0
-0.00105766 -0.00152294 0
-0.00103384 -0.00197323 0
-0.000999386 -0.00240269 0
-0.000954532 -0.00280645 0
-0.000899568 -0.00318068 0
-0.000834657 -0.00352316 0
-0.000759421 -0.00383447 0
-0.000717331 -0.00412263 0
-0.000670299 -0.00442538 0
-0.000572853 -0.00464233 0
-0.000465122 -0.0047992 0
-0.00035192 -0.00490053 0
-0.000235723 -0.00494579 0
-0.000119634 -0.00493253 0
-7.82758e-06 -0.00485726 0
9.43754e-05 -0.00471555 0
0.000180487 -0.00450128 0
0.000242647 -0.00420438 0
0.000271128 -0.00380589 0
0.000254298 -0.00326631 0
0.000182888 -0.00249506 0
6.63878e-05 -0.00125473 0
0.000202661 0.00206705 0
0.000548346 0.00434435 0
0.000741533 0.00577242 0
0.000772538 0.00674302 0
0.000686551 0.00743455 0
0.000520559 0.0079325 0
0.000301091 0.00828101 0
4.78856e-05 0.0085055 0
-0.000224046 0.00862318 0
-0.000503905 0.00864836 0
-0.000785721 0.00859679 0
-0.000939161 0.00849535 0
-0.00108557 0.00841459 0
-0.00134919 0.00818845 0
-0.00160265 0.00786283 0
-0.001844 0.00745252 0
-0.00207262 0.00696328 0
-0.00228796 0.00639824 0
-0.00248898 0.00576027 0
-0.00267412 0.00505309 0
-0.00284147 0.00428178 0
-0.00298909 0.00345312 0
-0.00311557 0.00257612 0
-0.00319121 0.00166405 0
-0.00323963 0.000745353 0
-0.00328577 -0.000205303 0
-0.00330106 -0.00116619 0
-0.0032845 -0.00212255 0
-0.00323562 -0.00306114 0
-0.00315449 -0.00396952 0
-0.0030417 -0.00483634 0
-0.00289824 -0.00565184 0
-0.00272523 -0.00640844 0
-0.00252342 -0.00710195 0
-0.00229198 -0.00773423 0
-0.00217131 -0.00832261 0
-0.00202656 -0.00893392 0
-0.00172023 -0.00937747 0
-0.00139391 -0.00970005 0
-0.0010531 -0.00991066 0
-0.000704118 -0.0100075 0
-0.000355703 -0.00998436 0
-1.97553e-05 -0.00983263 0
0.000288579 -0.00954151 0
0.000550942 -0.00909637 0
0.000745237 -0.00847385 0
0.000843598 -0.00763074 0
0.00080863 -0.00647957 0
0.0005957 -0.00483341 0
0.000219498 -0.0022765 0
0.000153668 0.00167911 0
0.000485463 0.00401255 0
0.000764727 0.00562394 0
0.000875521 0.00675097 0
0.000816953 0.00755199 0
0.000621372 0.00811992 0
0.000324874 0.00850881 0
-4.06145e-05 0.00875232 0
-0.000449052 0.00887435 0
-0.000880912 0.00889499 0
-0.0013238 0.0088354 0
-0.00156363 0.00872647 0
-0.00179261 0.00862428 0
-0.00220988 0.00838405 0
-0.00261159 0.00804405 0
-0.00299556 0.00761973 0
-0.00335994 0.00711706 0
-0.00370298 0.0065389 0
-0.00402249 0.00588776 0
-0.00431571 0.00516706 0
-0.00457948 0.00438168 0
-0.00481067 0.00353846 0
-0.00500676 0.00264676 0
-0.00512204 0.00172032 0
-0.00519319 0.000781307 0
-0.0052588 -0.00018808 0
-0.00527526 -0.00116837 0
-0.00524127 -0.00214476 0
-0.00515623 -0.00310385 0
-0.00502043 -0.00403306 0
-0.00483492 -0.00492095 0
-0.0046013 -0.00575774 0
-0.00432124 -0.00653611 0
-0.00399569 -0.00725254 0
-0.00362386 -0.0079104 0
-0.0034313 -0.00852824 0
-0.00320554 -0.00915504 0
-0.00272885 -0.00962247 0
-0.00222571 -0.00996727 0
-0.0017042 -0.0101972 0
-0.0011758 -0.0103082 0
-0.000656062 -0.0102906 0
-0.000165463 -0.0101311 0
0.000270516 -0.00981377 0
0.000621648 -0.00931767 0
0.000853443 -0.00861184 0
0.000928792 -0.00764388 0
0.000815963 -0.00631983 0
0.000519125 -0.00447517 0
0.000164481 -0.00185853 0
9.53239e-05 0.0013928 0
0.000339757 0.00365655 0
0.000598244 0.00540705 0
0.000736285 0.00671317 0
0.00070682 0.00766804 0
0.000514396 0.0083485 0
0.000186155 0.00881052 0
-0.000244344 0.00909496 0
-0.00074508 0.00923407 0
-0.0012895 0.00925608 0
-0.00185812 0.00918932 0
-0.00216514 0.0090682 0
-0.00246058 0.00893708 0
-0.0030055 0.00867604 0
-0.003532 0.0083158 0
-0.00403738 0.00787129 0
-0.00451823 0.00734866 0
-0.00497122 0.00675058 0
-0.0053927 0.00607921 0
-0.00577857 0.00533762 0
-0.00612444 0.00453052 0
-0.00642596 0.00366476 0
-0.00667934 0.00274999 0
-0.00682684 0.00179983 0
-0.0069153 0.00083162 0
-0.00699371 -0.000166008 0
-0.00700727 -0.00117545 0
-0.00695439 -0.00218188 0
-0.00683445 -0.00317164 0
-0.00664795 -0.00413197 0
-0.00639639 -0.00505127 0
-0.0060819 -0.00591984 0
-0.00570668 -0.00673075 0
-0.00527225 -0.00748136 0
-0.00477919 -0.00817624 0
-0.00452481 -0.0088325 0
-0.00423246 -0.00948213 0
-0.00361809 -0.0099812 0
-0.0029755 -0.0103557 0
-0.00231585 -0.0106098 0
-0.00165586 -0.0107355 0
-0.00101758 -0.010718 0
-0.000428764 -0.0105374 0
7.77588e-05 -0.0101703 0
0.000465858 -0.00958862 0
0.00069987 -0.008755 0
0.000752356 -0.00761633 0
0.000620348 -0.00609645 0
0.00035518 -0.00409994 0
0.000100148 -0.00155432 0
5.41129e-05 0.00121129 0
0.000208576 0.00337045 0
0.000392235 0.00519818 0
0.000498202 0.00666055 0
0.000463838 0.00778007 0
0.00026978 0.00859899 0
-7.3734e-05 0.00916191 0
-0.000540845 0.00951047 0
-0.0011005 0.00968317 0
-0.00172314 0.00971646 0
-0.002384 0.00964632 0
-0.00273906 0.00951057 0
-0.00308602 0.00934626 0
-0.00373539 0.00905941 0
-0.0043656 0.00867415 0
-0.00497293 0.00820421 0
-0.00555244 0.00765571 0
-0.00609905 0.00703126 0
-0.00660754 0.00633274 0
-0.00707239 0.00556294 0
-0.0074879 0.0047264 0
-0.00784852 0.00382999 0
-0.00814913 0.0028835 0
-0.00832299 0.00190011 0
-0.008425 0.000894287 0
-0.00851209 -0.000140827 0
-0.00852082 -0.00118893 0
-0.0084494 -0.0022351 0
-0.00829721 -0.00326541 0
-0.00806501 -0.00426679 0
-0.00775472 -0.00522752 0
-0.00736905 -0.00613796 0
-0.0069109 -0.00699162 0
-0.00638295 -0.00778662 0
-0.00578814 -0.00852782 0
-0.00548247 -0.00922888 0
-0.0051361 -0.00990794 0
-0.00441157 -0.0104439 0
-0.00366095 -0.0108521 0
-0.00289863 -0.0111313 0
-0.0021457 -0.0112682 0
-0.00142903 -0.0112411 0
-0.000780624 -0.0110229 0
-0.000235703 -0.0105831 0
0.000171132 -0.0098883 0
0.000412412 -0.00890175 0
0.0004779 -0.00758294 0
0.000388471 -0.00589211 0
0.000210079 -0.00380779 0
5.50435e-05 -0.00136592 0
2.7015e-05 0.00110742 0
0.000107624 0.0031846 0
0.000203846 0.00505479 0
0.000243647 0.00663975 0
0.000170595 0.00791113 0
-4.48491e-05 0.00887415 0
-0.000406326 0.00955336 0
-0.000898738 0.00998368 0
-0.00149676 0.0102053 0
-0.00217204 0.0102608 0
-0.00289767 0.0101928 0
-0.00328467 0.0100428 0
-0.00367028 0.00984472 0
-0.00440405 0.00952889 0
-0.00511988 0.0091149 0
-0.00581246 0.00861511 0
-0.00647526 0.00803552 0
-0.00710152 0.00737871 0
-0.00768438 0.00664645 0
-0.00821689 0.0058413 0
-0.00869205 0.00496769 0
-0.00910306 0.00403252 0
-0.00944356 0.00304561 0
-0.00963961 0.00201976 0
-0.00975293 0.000968213 0
-0.00984684 -0.000113393 0
-0.00985073 -0.00120943 0
-0.00976259 -0.00230484 0
-0.00958186 -0.00338528 0
-0.00930954 -0.00443738 0
-0.00894801 -0.00544919 0
-0.00850062 -0.00641112 0
-0.00797127 -0.00731699 0
-0.00736429 -0.00816529 0
-0.0066853 -0.0089602 0
-0.00633778 -0.00971109 0
-0.00594774 -0.0104258 0
-0.00513512 -0.0110019 0
-0.00430085 -0.0114448 0
-0.00346236 -0.0117471 0
-0.00264378 -0.0118888 0
-0.00187442 -0.0118415 0
-0.00118706 -0.011571 0
-0.000614783 -0.0110418 0
-0.000185892 -0.0102201 0
8.3084e-05 -0.00907677 0
0.000195551 -0.00759249 0
0.000181848 -0.00576586 0
0.00010029 -0.00362835 0
2.57382e-05 -0.00126259 0
8.91314e-06 0.00105914 0
3.29012e-05 0.00309781 0
4.83405e-05 0.00500407 0
1.09072e-05 0.0066872 0
-0.000121573 0.00809027 0
-0.000377723 0.00918931 0
-0.000767972 0.00998757 0
-0.00128595 0.0105087 0
-0.00191335 0.01079 0
-0.00262569 0.0108768 0
-0.00339691 0.0108169 0
-0.00380447 0.0106552 0
-0.00421892 0.0104257 0
-0.00502099 0.0100797 0
-0.00580799 0.00963427 0
-0.00657253 0.009101 0
-0.00730644 0.00848575 0
-0.00800134 0.00779115 0
-0.00864883 0.00701893 0
-0.0092405 0.00617159 0
-0.00976807 0.0052535 0
-0.0102235 0.00427157 0
-0.0105994 0.00323568 0
-0.0108152 0.0021585 0
-0.0109389 0.00105331 0
-0.0110397 -8.36086e-05 0
-0.0110402 -0.00123672 0
-0.0109383 -0.00239068 0
-0.0107334 -0.0035307 0
-0.0104266 -0.00464297 0
-0.0100209 -0.00571527 0
-0.00952044 -0.0067379 0
-0.00893026 -0.00770473 0
-0.00825659 -0.00861408 0
-0.00750765 -0.00946875 0
-0.00712573 -0.0102739 0
-0.00669979 -0.0110302 0
-0.00581511 -0.0116482 0
-0.00491386 -0.0121253 0
-0.00401608 -0.0124469 0
-0.00314748 -0.0125868 0
-0.00233756 -0.01251 0
-0.0016172 -0.0121773 0
-0.00101486 -0.0115509 0
-0.000551504 -0.0106008 0
-0.00023506 -0.00931014 0
-5.5763e-05 -0.00768146 0
1.51043e-05 -0.00574346 0
2.05955e-05 -0.00355739 0
6.50972e-06 -0.00121937 0
-3.56538e-06 0.0010519 0
-2.21267e-05 0.00309868 0
-7.47106e-05 0.00505259 0
-0.000186946 0.00682346 0
-0.000386737 0.00834128 0
-0.000696288 0.00956318 0
-0.00112668 0.0104748 0
-0.00167626 0.0110875 0
-0.00233247 0.0114333 0
-0.00307545 0.0115574 0
-0.00388186 0.0115103 0
-0.00430379 0.0113405 0
-0.00474081 0.0110841 0
-0.00559982 0.0107081 0
-0.00644763 0.0102296 0
-0.00727466 0.00965994 0
-0.00807108 0.00900505 0
-0.00882698 0.00826772 0
-0.00953249 0.00744977 0
-0.0101778 0.00655372 0
-0.0107535 0.00558396 0
-0.0112502 0.00454748 0
-0.0116596 0.0034543 0
-0.0118941 0.00231728 0
-0.0120283 0.00115053 0
-0.0121376 -5.04364e-05 0
-0.0121375 -0.00126973 0
-0.0120254 -0.00249155 0
-0.0118007 -0.00370058 0
-0.0114649 -0.00488248 0
-0.0110213 -0.00602459 0
-0.0104749 -0.0071169 0
-0.00983213 -0.00815295 0
-0.00910108 -0.0091304 0
-0.00829222 -0.0100503 0
-0.00788101 -0.0109142 0
-0.00742415 -0.0117181 0
-0.00647708 -0.0123795 0
-0.00551787 -0.0128893 0
-0.00456852 -0.0132266 0
-0.00365514 -0.0133593 0
-0.00280598 -0.0132471 0
-0.00204872 -0.0128474 0
-0.0014069 -0.0121234 0
-0.000895738 -0.0110511 0
-0.000518647 -0.00962625 0
-0.000265542 -0.00786953 0
-0.000114469 -0.00582926 0
-3.7023e-05 -0.00358062 0
-6.49047e-06 -0.00121979 0
-1.24228e-05 0.0010762 0
-6.29403e-05 0.00317454 0
-0.000170605 0.00519664 0
-0.000349425 0.0070565 0
-0.000615984 0.00867953 0
-0.000984749 0.0100122 0
-0.00146385 0.011028 0
-0.00205276 0.0117279 0
-0.0027423 0.0121379 0
-0.00351653 0.0123013 0
-0.00435546 0.0122701 0
-0.00479023 0.0120955 0
-0.0052471 0.0118171 0
-0.00615671 0.0114125 0
-0.00705931 0.0109 0
-0.0079433 0.0102916 0
-0.00879728 0.00959354 0
-0.00960994 0.00880898 0
-0.01037 0.00793989 0
-0.0110665 0.00698892 0
-0.0116886 0.00596055 0
-0.012226 0.00486194 0
-0.0126693 0.00370336 0
-0.0129228 0.0024982 0
-0.0130685 0.00126184 0
-0.0131892 -1.19723e-05 0
-0.0131918 -0.00130668 0
-0.0130733 -0.00260586 0
-0.0128333 -0.00389356 0
-0.0124731 -0.00515476 0
-0.0119966 -0.00637617 0
-0.0114096 -0.00754718 0
-0.0107199 -0.00866066 0
-0.00993734 -0.0097132 0
-0.00907411 -0.010704 0
-0.00863639 -0.0116316 0
-0.00815081 -0.0124892 0
-0.00714489 -0.013196 0
-0.00612974 -0.0137378 0
-0.00512877 -0.0140885 0
-0.00416778 -0.0142108 0
-0.00327326 -0.0140606 0
-0.0024698 -0.0135941 0
-0.00177716 -0.0127762 0
-0.00120737 -0.0115898 0
-0.000762914 -0.0100413 0
-0.000436746 -0.00816413 0
-0.000214613 -0.00601799 0
-7.93198e-05 -0.00368349 0
-1.5603e-05 -0.00125329 0
-1.88993e-05 0.00112566 0
-9.37245e-05 0.00331443 0
-0.000245575 0.00542885 0
-0.000481612 0.00738691 0
-0.000810402 0.00911319 0
-0.00123947 0.010549 0
-0.00177265 0.0116601 0
-0.00240815 0.0124407 0
-0.00313797 0.0129112 0
-0.00394873 0.0131129 0
-0.00482342 0.0130986 0
-0.00527308 0.0129218 0
-0.00575012 0.0126258 0
-0.00670876 0.0121939 0
-0.00766429 0.0116468 0
-0.00860349 0.0109976 0
-0.00951358 0.0102532 0
-0.010382 0.00941719 0
-0.0111961 0.00849181 0
-0.0119439 0.00747991 0
-0.0126132 0.00638617 0
-0.0131928 0.00521798 0
-0.0136723 0.00398602 0
-0.0139461 0.00270445 0
-0.0141051 0.00139016 0
-0.0142406 3.44577e-05 0
-0.0142497 -0.0013452 0
-0.0141289 -0.00273165 0
-0.0138773 -0.00410812 0
-0.0134967 -0.00545878 0
-0.012991 -0.00676948 0
-0.0123668 -0.00802871 0
-0.0116332 -0.0092283 0
-0.0108015 -0.0103635 0
-0.00988522 -0.0114316 0
-0.00942162 -0.0124291 0
-0.00890703 -0.0133472 0
-0.00784031 -0.0141026 0
-0.00676541 -0.0146772 0
-0.00570675 -0.0150408 0
-0.00468977 -0.0151522 0
-0.00373943 -0.0149645 0
-0.00287819 -0.0144334 0
-0.0021238 -0.0135266 0
-0.00148744 -0.0122324 0
-0.000972985 -0.0105651 0
-0.000577559 -0.00856636 0
-0.000293556 -0.00630198 0
-0.000111414 -0.00385441 0
-2.22921e-05 -0.00131311 0
-2.38226e-05 0.00119601 0
-0.000117665 0.0035099 0
-0.000305467 0.00574177 0
-0.000590544 0.00781219 0
-0.000976152 0.00964602 0
-0.00146438 0.0111823 0
-0.00205475 0.012383 0
-0.00274307 0.0132378 0
-0.00352092 0.0137639 0
-0.00437607 0.0140013 0
-0.00529359 0.014003 0
-0.0057625 0.0138251 0
-0.0062623 0.0135144 0
-0.00727253 0.0130563 0
-0.00828283 0.0124739 0
-0.00927884 0.0117819 0
-0.0102466 0.010988 0
-0.0111725 0.0100965 0
-0.0120429 0.00910973 0
-0.0128443 0.00803098 0
-0.0135638 0.00686514 0
-0.0141889 0.00561995 0
-0.0147084 0.0043066 0
-0.0150045 0.00294021 0
-0.0151788 0.00153927 0
-0.0153335 9.2218e-05 0
-0.0153532 -0.00138245 0
-0.0152339 -0.00286667 0
-0.0149744 -0.00434276 0
-0.0145762 -0.00579384 0
-0.0140436 -0.00720468 0
-0.0133839 -0.00856255 0
-0.0126069 -0.00985797 0
-0.0117253 -0.0110846 0
-0.0107537 -0.0122381 0
-0.0102631 -0.0133129 0
-0.00971714 -0.0142994 0
-0.00858317 -0.0151082 0
-0.0074402 -0.0157186 0
-0.00631359 -0.016097 0
-0.00522875 -0.0161991 0
-0.00420994 -0.0159761 0
-0.00327878 -0.0153836 0
-0.00245268 -0.0143914 0
-0.00174369 -0.0129917 0
-0.00115815 -0.0112042 0
-0.000697277 -0.00907555 0
-0.000358506 -0.00667485 0
-0.000137086 -0.00408543 0
-2.75177e-05 -0.00139515 0
-2.77747e-05 0.00128453 0
-0.000137198 0.00375513 0
-0.00035531 0.00612966 0
-0.000683383 0.00832963 0
-0.00112131 0.01028 0
-0.0016672 0.0119191 0
-0.00231687 0.0132071 0
-0.0030634 0.0141317 0
-0.00389704 0.0147089 0
-0.00480555 0.0149783 0
-0.00577508 0.0149942 0
-0.00626871 0.0148149 0
-0.00679538 0.0144909 0
-0.00786291 0.0140065 0
-0.00893285 0.0133877 0
-0.00999007 0.0126506 0
-0.0110198 0.0118041 0
-0.0120073 0.0108527 0
-0.0129381 0.00979952 0
-0.0137976 0.00864794 0
-0.0145718 0.0074032 0
-0.0152472 0.00607344 0
-0.0158117 0.0046705 0
-0.0161327 0.00321057 0
-0.0163249 0.00171376 0
-0.0165034 0.000165344 0
-0.0165381 -0.00141508 0
-0.0164243 -0.00300844 0
-0.0161601 -0.00459595 0
-0.0157467 -0.00615954 0
-0.0151886 -0.00768261 0
-0.0144933 -0.00915095 0
-0.0136715 -0.0105535 0
-0.0127367 -0.0118822 0
-0.0117047 -0.0131309 0
-0.0111845 -0.0142926 0
-0.0106031 -0.0153568 0
-0.00939192 -0.016226 0
-0.00816927 -0.0168774 0
-0.00696166 -0.0172745 0
-0.00579507 -0.0173706 0
-0.00469412 -0.0171153 0
-0.00368085 -0.0164637 0
-0.00277367 -0.0153869 0
-0.00198651 -0.0138796 0
-0.00132854 -0.0119647 0
-0.000804468 -0.00969206 0
-0.000415282 -0.00713303 0
-0.00015909 -0.00437206 0
-3.19275e-05 -0.00149716 0
-3.11739e-05 0.00138968 0
-0.000154169 0.00404675 0
-0.000399198 0.00658918 0
-0.000766528 0.00893788 0
-0.00125397 0.0110174 0
-0.00185682 0.0127656 0
-0.0025679 0.0141423 0
-0.00337768 0.015135 0
-0.00427463 0.01576 0
-0.00524574 0.0160582 0
-0.00627732 0.0160856 0
-0.00680152 0.0159036 0
-0.00735999 0.0155656 0
-0.00849277 0.0150539 0
-0.00962947 0.0143968 0
-0.0107545 0.013612 0
-0.0118523 0.0127091 0
-0.0129076 0.0116935 0
-0.0139047 0.0105686 0
-0.0148283 0.00933799 0
-0.0156632 0.00800734 0
-0.0163949 0.0065852 0
-0.0170104 0.00508416 0
-0.0173594 0.00352154 0
-0.0175725 0.0019191 0
-0.0177802 0.000258604 0
-0.0178348 -0.00143917 0
-0.0177306 -0.00315405 0
-0.0174648 -0.00486602 0
-0.0170383 -0.00655562 0
-0.0164553 -0.00820465 0
-0.0157234 -0.00979714 0
-0.0148538 -0.0113202 0
-0.0138607 -0.0127638 0
-0.0127609 -0.0141201 0
-0.0122076 -0.0153807 0
-0.0115855 -0.016534 0
-0.0102846 -0.0174727 0
-0.00896824 -0.0181723 0
-0.00766463 -0.018594 0
-0.00640113 -0.0186886 0
-0.00520367 -0.0184037 0
-0.00409586 -0.0176937 0
-0.00309806 -0.0165299 0
-0.00222663 -0.0149084 0
-0.00149353 -0.012854 0
-0.000906313 -0.0104187 0
-0.000468371 -0.00767626 0
-0.000179412 -0.00471287 0
-3.59636e-05 -0.0016183 0
-3.43186e-05 0.00151087 0
-0.000169947 0.00438355 0
-0.000440312 0.00711951 0
-0.000845257 0.00963776 0
-0.00138129 0.0118617 0
-0.00204171 0.0137286 0
-0.00281695 0.0151986 0
-0.00369512 0.0162602 0
-0.00466276 0.0169316 0
-0.00570561 0.0172559 0
-0.00680945 0.0172922 0
-0.00736995 0.0171051 0
-0.00796554 0.0167514 0
-0.00917295 0.0162102 0
-0.0103851 0.0155121 0
-0.0115862 0.0146761 0
-0.01276 0.0137129 0
-0.0138906 0.0126282 0
-0.0149615 0.0114258 0
-0.0159564 0.0101097 0
-0.0168591 0.00868578 0
-0.0176543 0.00716312 0
-0.0183277 0.00555505 0
-0.0187084 0.0038801 0
-0.0189458 0.0021617 0
-0.0191889 0.000377663 0
-0.0192689 -0.00145002 0
-0.019179 -0.00329999 0
-0.0189153 -0.00515092 0
-0.0184779 -0.00698175 0
-0.0178703 -0.00877245 0
-0.0171002 -0.0105051 0
-0.0161789 -0.0121645 0
-0.0151213 -0.0137387 0
-0.0139449 -0.0152179 0
-0.0133541 -0.0165919 0
-0.0126852 -0.0178482 0
-0.0112798 -0.0188681 0
-0.00985386 -0.0196255 0
-0.00843767 -0.0200791 0
-0.00706085 -0.020177 0
-0.00575164 -0.0198647 0
-0.0045361 -0.019095 0
-0.0034372 -0.0178387 0
-0.00247404 -0.0160922 0
-0.00166122 -0.0138817 0
-0.00100858 -0.0112615 0
-0.000521161 -0.00830747 0
-0.000199479 -0.00510894 0
-3.99307e-05 -0.00175878 0
-3.74195e-05 0.00164824 0
-0.000185526 0.00476613 0
-0.000481044 0.00772215 0
-0.000923691 0.0104323 0
-0.00150913 0.0128181 0
-0.00222916 0.014816 0
-0.00307225 0.0163867 0
-0.00402439 0.0175204 0
-0.00507016 0.0182383 0
-0.00619378 0.018587 0
-0.00738001 0.0186296 0
-0.00798231 0.0184347 0
-0.00862048 0.0180622 0
-0.00991275 0.0174884 0
-0.0112102 0.0167457 0
-0.0124967 0.0158545 0
-0.0137556 0.0148262 0
-0.0149702 0.0136671 0
-0.0161234 0.0123812 0
-0.017198 0.0109727 0
-0.018177 0.0094479 0
-0.0190437 0.0078162 0
-0.0197832 0.00609176 0
-0.0201997 0.00429436 0
-0.0204652 0.00244913 0
-0.020751 0.00052932 0
-0.0208631 -0.00144184 0
-0.0207932 -0.00344178 0
-0.0205361 -0.00544777 0
-0.0200905 -0.00743703 0
-0.0194592 -0.00938748 0
-0.0186493 -0.0112789 0
-0.0176722 -0.0130937 0
-0.0165429 -0.0148175 0
-0.01528 -0.0164381 0
-0.0146471 -0.0179435 0
-0.0139244 -0.0193194 0
-0.0123981 -0.0204348 0
-0.0108448 -0.0212618 0
-0.00929773 -0.021756 0
-0.00778968 -0.0218626 0
-0.00635206 -0.0215242 0
-0.00501411 -0.0206914 0
-0.00380199 -0.0193338 0
-0.00273771 -0.0174478 0
-0.00183843 -0.0150609 0
-0.00111587 -0.0122293 0
-0.000576239 -0.00903251 0
-0.000220334 -0.0055635 0
-4.40439e-05 -0.00191964 0
-4.06243e-05 0.00180249 0
-0.000201619 0.0051965 0
-0.000523151 0.00840057 0
-0.00100497 0.0113268 0
-0.00164211 0.0138938 0
-0.00242513 0.0160372 0
-0.00334081 0.017718 0
-0.00437316 0.0189291 0
-0.00550481 0.0196951 0
-0.00671826 0.0200674 0
-0.00799694 0.020114 0
-0.00864634 0.0199081 0
-0.00933261 0.0195132 0
-0.0107205 0.0189027 0
-0.0121138 0.0181111 0
-0.0134958 0.0171599 0
-0.0148498 0.0160613 0
-0.0161581 0.014822 0
-0.0174032 0.0134461 0
-0.018567 0.011938 0
-0.0196314 0.0103042 0
-0.0205791 0.00855463 0
-0.0213937 0.00670412 0
-0.0218508 0.00477374 0
-0.0221491 0.00279036 0
-0.0224862 0.00072183 0
-0.0226385 -0.00140737 0
-0.0225957 -0.00357351 0
-0.0223509 -0.00575243 0
-0.0219012 -0.00791952 0
-0.021248 -0.0100505 0
-0.0203974 -0.0121225 0
-0.0193604 -0.0141152 0
-0.0181522 -0.0160113 0
-0.0167923 -0.0177959 0
-0.0161125 -0.0194542 0
-0.0153285 -0.0209699 0
-0.0136628 -0.0221984 0
-0.0119623 -0.0231091 0
-0.0102641 -0.0236542 0
-0.00860478 -0.0237751 0
-0.00701993 -0.023411 0
-0.00554275 -0.0225097 0
-0.00420302 -0.021039 0
-0.00302593 -0.0189954 0
-0.00203113 -0.0164076 0
-0.00123203 -0.0133346 0
-0.000635662 -0.00985989 0
-0.00024278 -0.00608153 0
-4.84639e-05 -0.00210253 0
-4.40389e-05 0.00197473 0
-0.000218745 0.0056778 0
-0.000567944 0.00915987 0