# vtk DataFile Version 2.0
Velocidades
ASCII

DATASET STRUCTURED_GRID
DIMENSIONS   50   50   20

POINTS   50000   double
0.00568455   0.00568455   0.025
0.0174023   0.00568455   0.025
0.0298294   0.00568455   0.025
0.0429888   0.00568455   0.025
0.0569012   0.00568455   0.025
0.0715849   0.00568455   0.025
0.0870549   0.00568455   0.025
0.103323   0.00568455   0.025
0.120395   0.00568455   0.025
0.138275   0.00568455   0.025
0.156961   0.00568455   0.025
0.176443   0.00568455   0.025
0.196707   0.00568455   0.025
0.217734   0.00568455   0.025
0.239496   0.00568455   0.025
0.261959   0.00568455   0.025
0.285082   0.00568455   0.025
0.308818   0.00568455   0.025
0.333113   0.00568455   0.025
0.357906   0.00568455   0.025
0.383132   0.00568455   0.025
0.408719   0.00568455   0.025
0.434592   0.00568455   0.025
0.460672   0.00568455   0.025
0.486877   0.00568455   0.025
0.513123   0.00568455   0.025
0.539328   0.00568455   0.025
0.565408   0.00568455   0.025
0.591281   0.00568455   0.025
0.616868   0.00568455   0.025
0.642094   0.00568455   0.025
0.666887   0.00568455   0.025
0.691182   0.00568455   0.025
0.714918   0.00568455   0.025
0.738041   0.00568455   0.025
0.760504   0.00568455   0.025
0.782266   0.00568455   0.025
0.803293   0.00568455   0.025
0.823557   0.00568455   0.025
0.843039   0.00568455   0.025
0.861725   0.00568455   0.025
0.879605   0.00568455   0.025
0.896677   0.00568455   0.025
0.912945   0.00568455   0.025
0.928415   0.00568455   0.025
0.943099   0.00568455   0.025
0.957011   0.00568455   0.025
0.970171   0.00568455   0.025
0.982598   0.00568455   0.025
0.994315   0.00568455   0.025
0.00568455   0.0174023   0.025
0.0174023   0.0174023   0.025
0.0298294   0.0174023   0.025
0.0429888   0.0174023   0.025
0.0569012   0.0174023   0.025
0.0715849   0.0174023   0.025
0.0870549   0.0174023   0.025
0.103323   0.0174023   0.025
0.120395   0.0174023   0.025
0.138275   0.0174023   0.025
0.156961   0.0174023   0.025
0.176443   0.0174023   0.025
0.196707   0.0174023   0.025
0.217734   0.0174023   0.025
0.239496   0.0174023   0.025
0.261959   0.0174023   0.025
0.285082   0.0174023   0.025
0.308818   0.0174023   0.025
0.333113   0.0174023   0.025
0.357906   0.0174023   0.025
0.383132   0.0174023   0.025
0.408719   0.0174023   0.025
0.434592   0.0174023   0.025
0.460672   0.0174023   0.025
0.486877   0.0174023   0.025
0.513123   0.0174023   0.025
0.539328   0.0174023   0.025
0.565408   0.0174023   0.025
0.591281   0.0174023   0.025
0.616868   0.0174023   0.025
0.642094   0.0174023   0.025
0.666887   0.0174023   0.025
0.691182   0.0174023   0.025
0.714918   0.0174023   0.025
0.738041   0.0174023   0.025
0.760504   0.0174023   0.025
0.782266   0.0174023   0.025
0.803293   0.0174023   0.025
0.823557   0.0174023   0.025
0.843039   0.0174023   0.025
0.861725   0.0174023   0.025
0.879605   0.0174023   0.025
0.896677   0.0174023   0.025
0.912945   0.0174023   0.025
0.928415   0.0174023   0.025
0.943099   0.0174023   0.025
0.957011   0.0174023   0.025
0.970171   0.0174023   0.025
0.982598   0.0174023   0.025
0.994315   0.0174023   0.025
0.00568455   0.0298294   0.025
0.0174023   0.0298294   0.025
0.0298294   0.0298294   0.025
0.0429888   0.0298294   0.025
0.0569012   0.0298294   0.025
0.0715849   0.0298294   0.025
0.0870549   0.0298294   0.025
0.103323   0.0298294   0.025
0.120395   0.0298294   0.025
0.138275   0.0298294   0.025
0.156961   0.0298294   0.025
0.176443   0.0298294   0.025
0.196707   0.0298294   0.025
0.217734   0.0298294   0.025
0.239496   0.0298294   0.025
0.261959   0.0298294   0.025
0.285082   0.0298294   0.025
0.308818   0.0298294   0.025
0.333113   0.0298294   0.025
0.357906   0.0298294   0.025
0.383132   0.0298294   0.025
0.408719   0.0298294   0.025
0.434592   0.0298294   0.025
0.460672   0.0298294   0.025
0.486877   0.0298294   0.025
0.513123   0.0298294   0.025
0.539328   0.0298294   0.025
0.565408   0.0298294   0.025
0.591281   0.0298294   0.025
0.616868   0.0298294   0.025
0.642094   0.0298294   0.025
0.666887   0.0298294   0.025
0.691182   0.0298294   0.025
0.714918   0.0298294   0.025
0.738041   0.0298294   0.025
0.760504   0.0298294   0.025
0.782266   0.0298294   0.025
0.803293   0.0298294   0.025
0.823557   0.0298294   0.025
0.843039   0.0298294   0.025
0.861725   0.0298294   0.025
0.879605   0.0298294   0.025
0.896677   0.0298294   0.025
0.912945   0.0298294   0.025
0.928415   0.0298294   0.025
0.943099   0.0298294   0.025
0.957011   0.0298294   0.025
0.970171   0.0298294   0.025
0.982598   0.0298294   0.025
0.994315   0.0298294   0.025
0.00568455   0.0429888   0.025
0.0174023   0.0429888   0.025
0.0298294   0.0429888   0.025
0.0429888   0.0429888   0.025
0.0569012   0.0429888   0.025
0.0715849   0.0429888   0.025
0.0870549   0.0429888   0.025
0.103323   0.0429888   0.025
0.120395   0.0429888   0.025
0.138275   0.0429888   0.025
0.156961   0.0429888   0.025
0.176443   0.0429888   0.025
0.196707   0.0429888   0.025
0.217734   0.0429888   0.025
0.239496   0.0429888   0.025
0.261959   0.0429888   0.025
0.285082   0.0429888   0.025
0.308818   0.0429888   0.025
0.333113   0.0429888   0.025
0.357906   0.0429888   0.025
0.383132   0.0429888   0.025
0.408719   0.0429888   0.025
0.434592   0.0429888   0.025
0.460672   0.0429888   0.025
0.486877   0.0429888   0.025
0.513123   0.0429888   0.025
0.539328   0.0429888   0.025
0.565408   0.0429888   0.025
0.591281   0.0429888   0.025
0.616868   0.0429888   0.025
0.642094   0.0429888   0.025
0.666887   0.0429888   0.025
0.691182   0.0429888   0.025
0.714918   0.0429888   0.025
0.738041   0.0429888   0.025
0.760504   0.0429888   0.025
0.782266   0.0429888   0.025
0.803293   0.0429888   0.025
0.823557   0.0429888   0.025
0.843039   0.0429888   0.025
0.861725   0.0429888   0.025
0.879605   0.0429888   0.025
0.896677   0.0429888   0.025
0.912945   0.0429888   0.025
0.928415   0.0429888   0.025
0.943099   0.0429888   0.025
0.957011   0.0429888   0.025
0.970171   0.0429888   0.025
0.982598   0.0429888   0.025
0.994315   0.0429888   0.025
0.00568455   0.0569012   0.025
0.0174023   0.0569012   0.025
0.0298294   0.0569012   0.025
0.0429888   0.0569012   0.025
0.0569012   0.0569012   0.025
0.0715849   0.0569012   0.025
0.0870549   0.0569012   0.025
0.103323   0.0569012   0.025
0.120395   0.0569012   0.025
0.138275   0.0569012   0.025
0.156961   0.0569012   0.025
0.176443   0.0569012   0.025
0.196707   0.0569012   0.025
0.217734   0.0569012   0.025
0.239496   0.0569012   0.025
0.261959   0.0569012   0.025
0.285082   0.0569012   0.025
0.308818   0.0569012   0.025
0.333113   0.0569012   0.025
0.357906   0.0569012   0.025
0.383132   0.0569012   0.025
0.408719   0.0569012   0.025
0.434592   0.0569012   0.025
0.460672   0.0569012   0.025
0.486877   0.0569012   0.025
0.513123   0.0569012   0.025
0.539328   0.0569012   0.025
0.565408   0.0569012   0.025
0.591281   0.0569012   0.025
0.616868   0.0569012   0.025
0.642094   0.0569012   0.025
0.666887   0.0569012   0.025
0.691182   0.0569012   0.025
0.714918   0.0569012   0.025
0.738041   0.0569012   0.025
0.760504   0.0569012   0.025
0.782266   0.0569012   0.025
0.803293   0.0569012   0.025
0.823557   0.0569012   0.025
0.843039   0.0569012   0.025
0.861725   0.0569012   0.025
0.879605   0.0569012   0.025
0.896677   0.0569012   0.025
0.912945   0.0569012   0.025
0.928415   0.0569012   0.025
0.943099   0.0569012   0.025
0.957011   0.0569012   0.025
0.970171   0.0569012   0.025
0.982598   0.0569012   0.025
0.994315   0.0569012   0.025
0.00568455   0.0715849   0.025
0.0174023   0.0715849   0.025
0.0298294   0.0715849   0.025
0.0429888   0.0715849   0.025
0.0569012   0.0715849   0.025
0.0715849   0.0715849   0.025
0.0870549   0.0715849   0.025
0.103323   0.0715849   0.025
0.120395   0.0715849   0.025
0.138275   0.0715849   0.025
0.156961   0.0715849   0.025
0.176443   0.0715849   0.025
0.196707   0.0715849   0.025
0.217734   0.0715849   0.025
0.239496   0.0715849   0.025
0.261959   0.0715849   0.025
0.285082   0.0715849   0.025
0.308818   0.0715849   0.025
0.333113   0.0715849   0.025
0.357906   0.0715849   0.025
0.383132   0.0715849   0.025
0.408719   0.0715849   0.025
0.434592   0.0715849   0.025
0.460672   0.0715849   0.025
0.486877   0.0715849   0.025
0.513123   0.0715849   0.025
0.539328   0.0715849   0.025
0.565408   0.0715849   0.025
0.591281   0.0715849   0.025
0.616868   0.0715849   0.025
0.642094   0.0715849   0.025
0.666887   0.0715849   0.025
0.691182   0.0715849   0.025
0.714918   0.0715849   0.025
0.738041   0.0715849   0.025
0.760504   0.0715849   0.025
0.782266   0.0715849   0.025
0.803293   0.0715849   0.025
0.823557   0.0715849   0.025
0.843039   0.0715849   0.025
0.861725   0.0715849   0.025
0.879605   0.0715849   0.025
0.896677   0.0715849   0.025
0.912945   0.0715849   0.025
0.928415   0.0715849   0.025
0.943099   0.0715849   0.025
0.957011   0.0715849   0.025
0.970171   0.0715849   0.025
0.982598   0.0715849   0.025
0.994315   0.0715849   0.025
0.00568455   0.0870549   0.025
0.0174023   0.0870549   0.025
0.0298294   0.0870549   0.025
0.0429888   0.0870549   0.025
0.0569012   0.0870549   0.025
0.0715849   0.0870549   0.025
0.0870549   0.0870549   0.025
0.103323   0.0870549   0.025
0.120395   0.0870549   0.025
0.138275   0.0870549   0.025
0.156961   0.0870549   0.025
0.176443   0.0870549   0.025
0.196707   0.0870549   0.025
0.217734   0.0870549   0.025
0.239496   0.0870549   0.025
0.261959   0.0870549   0.025
0.285082   0.0870549   0.025
0.308818   0.0870549   0.025
0.333113   0.0870549   0.025
0.357906   0.0870549   0.025
0.383132   0.0870549   0.025
0.408719   0.0870549   0.025
0.434592   0.0870549   0.025
0.460672   0.0870549   0.025
0.486877   0.0870549   0.025
0.513123   0.0870549   0.025
0.539328   0.0870549   0.025
0.565408   0.0870549   0.025
0.591281   0.0870549   0.025
0.616868   0.0870549   0.025
0.642094   0.0870549   0.025
0.666887   0.0870549   0.025
0.691182   0.0870549   0.025
0.714918   0.0870549   0.025
0.738041   0.0870549   0.025
0.760504   0.0870549   0.025
0.782266   0.0870549   0.025
[...]
POINT_DATA   50000
VECTORS Velocidades double

5.98497e-05 0.00115055 0
0.000162717 0.00226665 0
0.000220889 0.00294864 0
0.00022655 0.0034219 0
0.000188526 0.00377283 0
0.000116858 0.00403925 0
1.91191e-05 0.00423933 0
-9.92626e-05 0.00438256 0
-0.000234332 0.00447484 0
-0.000383416 0.00452158 0
-0.000545731 0.0045311 0
-0.000636909 0.00452402 0
-0.000731509 0.00457332 0
-0.000918007 0.00447524 0
-0.00111679 0.00428553 0
-0.00131674 0.00402187 0
-0.00151455 0.00369252 0
-0.00170797 0.00330262 0
-0.00189453 0.00285643 0
-0.00207112 0.00235842 0
-0.00223389 0.00181395 0
-0.00237831 0.00122961 0
-0.00249954 0.000613253 0
-0.00258317 -2.57828e-05 0
-0.00262609 -0.000671621 0
-0.00262858 -0.0013148 0
-0.00258007 -0.00193095 0
-0.0024784 -0.0024997 0
-0.00232484 -0.00300276 0
-0.00212424 -0.00342508 0
-0.00188482 -0.00375627 0
-0.00161735 -0.00399181 0
-0.00133397 -0.00413376 0
-0.00104653 -0.00419132 0
-0.000764484 -0.00418217 0
-0.000599382 -0.00413999 0
-0.000465047 -0.00415373 0
-0.000257563 -0.00401197 0
-7.62691e-05 -0.00380169 0
6.84962e-05 -0.00355749 0
0.000176729 -0.00329932 0
0.000251123 -0.00303987 0
0.000295473 -0.00278675 0
0.000313942 -0.0025433 0
0.000310509 -0.00230861 0
0.00028842 -0.00207682 0
0.000249564 -0.00183495 0
0.000194143 -0.00155743 0
0.00012237 -0.00119094 0
4.12644e-05 -0.000606523 0
0.000204224 0.00208432 0
0.000549332 0.00439239 0
0.000732014 0.00585781 0
0.000738113 0.00687562 0
0.000608843 0.00762464 0
0.000377063 0.00818912 0
6.51976e-05 0.0086107 0
-0.000310702 0.0089115 0
-0.000738528 0.00910542 0
-0.00120966 0.00920519 0
-0.0017208 0.0092301 0
-0.00198361 0.00922516 0
-0.00228214 0.00932268 0
-0.00289573 0.00912653 0
-0.00352183 0.00874221 0
-0.00414573 0.00820782 0
-0.0047586 0.00754088 0
-0.00535319 0.00675176 0
-0.00592146 0.00584866 0
-0.00645355 0.00484007 0
-0.00693748 0.00373624 0
-0.00735938 0.00254993 0
-0.00770419 0.00129667 0
-0.0079313 -5.1151e-06 0
-0.00803333 -0.00133125 0
-0.0080096 -0.00265253 0
-0.00783051 -0.00392152 0
-0.00749312 -0.00509601 0
-0.00700351 -0.00613742 0
-0.00637783 -0.00701352 0
-0.00564153 -0.00770159 0
-0.00482701 -0.00819115 0
-0.00397002 -0.00848571 0
-0.00310525 -0.00860408 0
-0.00226053 -0.00858365 0
-0.00178989 -0.00849562 0
-0.00138763 -0.00850257 0
-0.00074216 -0.00819883 0
-0.000198666 -0.00775154 0
0.000233262 -0.00723368 0
0.000555632 -0.00668741 0
0.000776683 -0.00613942 0
0.000907736 -0.00560573 0
0.000961271 -0.00509339 0
0.000949434 -0.00460052 0
0.000882466 -0.00411463 0
0.000766641 -0.00360773 0
0.000601649 -0.00302487 0
0.0003815 -0.00225702 0
0.000128338 -0.00107681 0
0.000153258 0.00169514 0
0.000477248 0.00407051 0
0.000730679 0.00573562 0
0.000790288 0.00692923 0
0.000648706 0.00780959 0
0.000331743 0.00846809 0
-0.000131061 0.00895576 0
-0.000713858 0.00930217 0
-0.00139567 0.009527 0
-0.00216094 0.00964831 0
-0.00300113 0.00969158 0
-0.0034327 0.00970781 0
-0.00391665 0.00980248 0
-0.00491384 0.00960524 0
-0.00593192 0.00920903 0
-0.0069508 0.00865638 0
-0.00795406 0.00796721 0
-0.00892721 0.00715224 0
-0.00985496 0.00621902 0
-0.0107197 0.00517494 0
-0.0115006 0.00402904 0
-0.0121743 0.00279305 0
-0.0127148 0.0014817 0
-0.0130655 0.000111866 0
-0.0132114 -0.0013053 0
-0.0131466 -0.00272104 0
-0.0128324 -0.00408903 0
-0.0122654 -0.00536297 0
-0.0114568 -0.00649891 0
-0.0104336 -0.00745901 0
-0.00923675 -0.00821557 0
-0.0079175 -0.00875447 0
-0.00653183 -0.00907766 0
-0.00513362 -0.00920509 0
-0.00376782 -0.00917861 0
-0.00300999 -0.00907496 0
-0.00237141 -0.00902668 0
-0.00134775 -0.00866656 0
-0.000488047 -0.00814845 0
0.000197352 -0.00755245 0
0.000710495 -0.00692614 0
0.0010624 -0.00629962 0
0.00126901 -0.00569098 0
0.00134823 -0.00510821 0
0.00131755 -0.00454924 0
0.00119225 -0.00399991 0
0.000984615 -0.00342922 0
0.000706952 -0.00278022 0
0.00038677 -0.00195663 0
0.000110597 -0.000816156 0
9.1531e-05 0.00141374 0
0.00031599 0.00374044 0
0.000525157 0.00557218 0
0.000575815 0.00697657 0
0.000412586 0.00804583 0
3.15573e-05 0.00885488 0
-0.000548684 0.00945602 0
-0.00130266 0.00988502 0
-0.00220524 0.0101687 0
-0.00323518 0.0103323 0
-0.00437667 0.0104084 0
-0.00496388 0.0104506 0
-0.00561755 0.0105409 0
-0.00696554 0.0103407 0
-0.00834399 0.00992914 0
-0.00972887 0.00935083 0
-0.0110963 0.00862818 0
-0.0124237 0.00777266 0
-0.0136873 0.00679118 0
-0.014861 0.00568975 0
-0.0159146 0.00447578 0
-0.0168147 0.00315944 0
-0.0175244 0.00175393 0
-0.0179815 0.000273291 0
-0.0181591 -0.00127959 0
-0.0180404 -0.00283958 0
-0.0175868 -0.00435833 0
-0.0167951 -0.00578299 0
-0.0156816 -0.00706152 0
-0.0142837 -0.00814785 0
-0.0126566 -0.00900703 0
-0.0108688 -0.00961985 0
-0.00899414 -0.00998614 0
-0.00710443 -0.0101272 0
-0.00526245 -0.0100894 0
-0.00424262 -0.00995063 0
-0.00339385 -0.0098177 0
-0.00203845 -0.00936856 0
-0.000903288 -0.00874474 0
2.18591e-06 -0.00803239 0
0.000680539 -0.00728584 0
0.00114482 -0.00654005 0
0.00141458 -0.00581618 0
0.00151253 -0.00512385 0
0.00146228 -0.00446142 0
0.00128751 -0.00381475 0
0.00101394 -0.00315477 0
0.000676238 -0.00243539 0
0.000332722 -0.00159729 0
8.44328e-05 -0.000591211 0
4.60199e-05 0.00124685 0
0.000164551 0.00350539 0
0.000268246 0.00545657 0
0.000241118 0.00706367 0
1.12382e-05 0.00834763 0
-0.000450448 0.0093484 0
-0.00114358 0.0101063 0
-0.00205174 0.0106567 0
-0.0031519 0.0110312 0
-0.00442028 0.0112616 0
-0.00583463 0.0113866 0
-0.00656135 0.0114597 0
-0.00736995 0.0115451 0
-0.00904156 0.0113402 0
-0.0107527 0.0109108 0
-0.0124764 0.0103005 0
-0.0141821 0.00953364 0
-0.0158392 0.0086224 0
-0.0174152 0.00757315 0
-0.0188746 0.00639035 0
-0.0201778 0.00507946 0
-0.0212809 0.00364868 0
-0.0221367 0.00210918 0
-0.0226861 0.000472339 0
-0.0228861 -0.00126208 0
-0.0227041 -0.00301745 0
-0.0221084 -0.00473999 0
-0.0210962 -0.00636758 0
-0.0196895 -0.00783735 0
-0.0179352 -0.00909236 0
-0.0159023 -0.0100883 0
-0.0136752 -0.0107992 0
-0.0113451 -0.0112223 0
-0.00900147 -0.0113798 0
-0.00672518 -0.0113214 0
-0.00546833 -0.0111236 0
-0.00443151 -0.0108753 0
-0.00278156 -0.0103024 0
-0.00140518 -0.00953679 0
-0.000309585 -0.00866973 0
0.000509865 -0.00776297 0
0.00106911 -0.00685752 0
0.00139198 -0.00597894 0
0.00150717 -0.00513993 0
0.00144652 -0.00434162 0
0.00124521 -0.00357408 0
0.000944564 -0.00281757 0
0.000597486 -0.00204664 0
0.000274653 -0.00124136 0
6.47098e-05 -0.000409301 0
1.38548e-05 0.00117052 0
3.94096e-05 0.00340478 0
1.88354e-05 0.00545967 0
-0.00012874 0.00725363 0
-0.000469229 0.00875659 0
-0.00104229 0.00997131 0
-0.00186199 0.0109176 0
-0.00292319 0.0116228 0
-0.00420888 0.0121184 0
-0.00569609 0.0124399 0
-0.00735871 0.0126299 0
-0.00821012 0.0127405 0
-0.00916027 0.012823 0
-0.0111319 0.0126122 0
-0.0131519 0.0121623 0
-0.0151899 0.011514 0
-0.01721 0.0106922 0
-0.0191738 0.00970968 0
-0.0210403 0.00857202 0
-0.0227644 0.007282 0
-0.0242969 0.00584287 0
-0.0255838 0.00426057 0
-0.0265681 0.00254429 0
-0.027199 0.000703896 0
-0.0274155 -0.00125939 0
-0.0271653 -0.003263 0
-0.0264277 -0.0052441 0
-0.0252004 -0.00712843 0
-0.0235104 -0.00883941 0
-0.0214143 -0.0103065 0
-0.0189941 -0.0114736 0
-0.0163499 -0.0123066 0
-0.0135903 -0.0127986 0
-0.0108228 -0.0129725 0
-0.00814627 -0.01288 0
-0.0066729 -0.0125965 0
-0.00546541 -0.0122018 0
-0.00354956 -0.0114679 0
-0.00195868 -0.0105219 0
-0.000697043 -0.00946049 0
0.00024383 -0.00835357 0
0.000884472 -0.00724936 0
0.00125457 -0.00617942 0
0.00139038 -0.00516185 0
0.00133339 -0.00420376 0
0.00113047 -0.00330388 0
0.000835374 -0.00245639 0
0.000510333 -0.00165741 0
0.000225229 -0.000914955 0
5.08933e-05 -0.000260401 0
-9.9667e-06 0.00116594 0
-6.27923e-05 0.00344641 0
-0.000206145 0.0056223 0
-0.000492495 0.00759992 0
-0.00097301 0.00932105 0
-0.00168609 0.0107595 0
-0.00265229 0.0119135 0
-0.00387488 0.012798 0
-0.00534332 0.0134394 0
-0.00703742 0.0138733 0
-0.00892991 0.014143 0
-0.00989464 0.0142986 0
-0.0109752 0.0143824 0
-0.0132269 0.0141652 0
-0.0155354 0.0136918 0
-0.017867 0.0129994 0
-0.0201808 0.0121121 0
-0.0224316 0.0110425 0
-0.0245701 0.00979497 0
-0.0265421 0.0083705 0
-0.0282888 0.00676986 0
-0.0297463 0.00499669 0
-0.0308487 0.00305862 0
-0.031555 0.00096582 0
-0.0317859 -0.00127537 0
-0.0314692 -0.00358222 0
-0.0305948 -0.00587914 0
-0.0291603 -0.00807657 0
-0.0271972 -0.0100811 0
-0.024771 -0.0118057 0
-0.0219765 -0.0131799 0
-0.0189298 -0.014159 0
-0.0157575 -0.014731 0
-0.0125857 -0.014918 0
-0.00953142 -0.0147743 0
-0.00785481 -0.0143762 0
-0.00648791 -0.0138032 0
-0.00432489 -0.0128683 0
-0.0025371 -0.0117001 0
-0.00112546 -0.010403 0
-7.60944e-05 -0.00905574 0
0.000637928 -0.00771529 0
0.00105374 -0.00642113 0
0.00121622 -0.00519916 0
0.00117645 -0.00406536 0
0.000990982 -0.00302967 0
0.000721183 -0.00210065 0
0.000431666 -0.00129114 0
0.00018629 -0.000623973 0
4.1201e-05 -0.000135358 0
-2.86691e-05 0.00122175 0
-0.000147826 0.00362765 0
-0.00040516 0.00596436 0
-0.000833436 0.00813981 0
-0.00146851 0.0100838 0
-0.00234133 0.0117519 0
-0.00347205 0.0131247 0
-0.00486754 0.0142041 0
-0.00652173 0.015009 0
-0.00841746 0.0155713 0
-0.0105281 0.0159328 0
-0.0115989 0.0161409 0
-0.0128018 0.0162322 0
-0.0153172 0.0160086 0
-0.0178982 0.0155088 0
-0.020507 0.0147659 0
-0.0230985 0.0138024 0
-0.0256214 0.0126296 0
-0.0280188 0.0112506 0
-0.0302282 0.00966373 0
-0.0321812 0.00786719 0
-0.0338049 0.00586238 0
-0.0350249 0.00365613 0
-0.0358057 0.00126089 0
-0.0360542 -0.00130896 0
-0.0356818 -0.00397666 0
-0.0346832 -0.00664994 0
-0.0330547 -0.00922064 0
-0.0308311 -0.0115752 0
-0.0280858 -0.0136066 0
-0.0249258 -0.0152267 0
-0.0214837 -0.0163778 0
-0.0179048 -0.0170404 0
-0.0143352 -0.0172355 0
-0.0109101 -0.0170204 0
-0.00903431 -0.0164768 0
-0.00751144 -0.015692 0
-0.00510734 -0.014513 0
-0.00312866 -0.0130775 0
-0.00157268 -0.0115007 0
-0.000418957 -0.00987209 0
0.000367199 -0.00825904 0
0.000831431 -0.00671079 0
0.00102752 -0.00526305 0
0.00101515 -0.00394228 0
0.000857952 -0.00276996 0
0.000621195 -0.00176664 0
0.000368524 -0.000955632 0
0.000157518 -0.000365028 0
3.45454e-05 -2.71401e-05 0
-4.40688e-05 0.00133139 0
-0.000220256 0.00394388 0
-0.000581183 0.00649443 0
-0.00114677 0.00889673 0
-0.0019401 0.0110776 0
-0.00298278 0.0129833 0
-0.00429034 0.0145827 0
-0.005869 0.0158668 0
-0.00771428 0.0168461 0
-0.00981105 0.0175476 0
-0.0121341 0.0180099 0
-0.0133075 0.0182772 0
-0.0146272 0.0183822 0
-0.017395 0.0181531 0
-0.0202369 0.017624 0
-0.0231119 0.0168243 0
-0.0259708 0.0157741 0
-0.0287573 0.0144827 0
-0.0314079 0.0129508 0
-0.0338525 0.0111738 0
-0.036014 0.0091469 0
-0.0378108 0.00686939 0
-0.0391603 0.0043481 0
-0.0400214 0.00159963 0
-0.0402974 -0.00135123 0
-0.039893 -0.00444029 0
-0.0387947 -0.00755469 0
-0.0369951 -0.0105641 0
-0.0345301 -0.0133313 0
-0.0314792 -0.0157251 0
-0.0279607 -0.017636 0
-0.0241232 -0.0189895 0
-0.0201322 -0.0197562 0
-0.0161553 -0.0199546 0
-0.0123477 -0.0196467 0
-0.0102657 -0.0189243 0
-0.00858046 -0.0178914 0
-0.00592471 -0.0164213 0
-0.00374599 -0.0146695 0
-0.00203776 -0.0127656 0
-0.000772425 -0.0108127 0
9.31717e-05 -0.00889015 0
0.00061358 -0.00705867 0
0.000851205 -0.00536501 0
0.000873208 -0.00384648 0
0.00074849 -0.00253486 0
0.000544424 -0.00145942 0
0.000323221 -0.000648677 0
0.000138161 -0.000130414 0
3.0326e-05 7.0197e-05 0
-5.71999e-05 0.00149096 0
-0.000283262 0.00439096 0
-0.000737903 0.00721561 0
-0.00143287 0.00988451 0
-0.00238151 0.0123257 0
-0.00359652 0.0144822 0
-0.00508699 0.0163164 0
-0.00685571 0.0178116 0
-0.00889724 0.0189721 0
-0.011197 0.0198193 0
-0.013731 0.0203881 0
-0.0150062 0.02072 0
-0.0164402 0.0208448 0
-0.0194536 0.0206112 0
-0.0225502 0.0200502 0
-0.025686 0.019188 0
-0.0288089 0.0180417 0
-0.0318586 0.0166175 0
-0.0347661 0.0149128 0
-0.0374546 0.0129194 0
-0.0398395 0.0106293 0
-0.0418309 0.00803921 0
-0.0433383 0.00515681 0
-0.0442938 0.0020044 0
-0.044616 -0.00138092 0
-0.0442215 -0.0049548 0
-0.0430656 -0.00858 0
-0.0411339 -0.0121007 0
-0.0384596 -0.0153519 0
-0.0351249 -0.018174 0
-0.031257 -0.0204309 0
-0.0270197 -0.0220266 0
-0.0225993 -0.0229179 0
-0.0181876 -0.0231192 0
-0.0139633 -0.0226983 0
-0.0116549 -0.0217626 0
-0.00978822 -0.0204415 0
-0.00684797 -0.0186289 0
-0.00443946 -0.0165066 0
-0.00255249 -0.0142238 0
-0.00115255 -0.0118996 0
-0.000188109 -0.00962736 0
0.000404147 -0.00748071 0
0.000694873 -0.00551807 0
0.000758084 -0.00378721 0
0.000667384 -0.00232849 0
0.000492316 -0.00117691 0
0.000294956 -0.00036271 0
0.000127051 8.94062e-05 0
2.81047e-05 0.000162086 0
-6.8685e-05 0.00169809 0
-0.000339029 0.00496566 0
-0.000878633 0.00812848 0
-0.00169406 0.0111108 0
-0.00279155 0.0138435 0
-0.0041762 0.0162698 0
-0.00585045 0.0183496 0
-0.0078123 0.0200626 0
-0.0100536 0.0214086 0
-0.0125591 0.0224054 0
-0.0153054 0.0230844 0
-0.0166832 0.0234849 0
-0.0182312 0.0236347 0
-0.0214885 0.0233982 0
-0.0248389 0.0228039 0
-0.0282368 0.0218749 0
-0.0316282 0.0206248 0
-0.0349498 0.0190561 0
-0.038129 0.0171619 0
-0.0410836 0.0149295 0
-0.0437224 0.0123466 0
-0.0459483 0.00940742 0
-0.0476628 0.00612056 0
-0.048737 0.00251503 0
-0.0491364 -0.00135815 0
-0.04882 -0.00548256 0
-0.0476753 -0.00969346 0
-0.045676 -0.0138066 0
-0.0428473 -0.0176253 0
-0.0392679 -0.0209567 0
-0.0350694 -0.0236317 0
-0.0304279 -0.0255265 0
-0.0255508 -0.026578 0
-0.020657 -0.0267928 0
-0.0159543 -0.0262448 0
-0.0133834 -0.0250618 0
-0.0113001 -0.0234079 0
-0.00801209 -0.0211964 0
-0.00531504 -0.018644 0
-0.00319624 -0.015924 0
-0.00161563 -0.0131744 0
-0.00051434 -0.0105051 0
0.000179142 -0.00800386 0
0.000543578 -0.00574153 0
0.000660071 -0.00377581 0
0.000607674 -0.00215415 0
0.000459581 -0.00091522 0
0.000280065 -8.90514e-05 0
0.000122332 0.000303776 0
2.74098e-05 0.000253376 0
-7.89219e-05 0.00195121 0
-0.000389084 0.00566542 0
-0.00100608 0.00923238 0
-0.00193318 0.0125795 0
-0.0031715 0.0156406 0
-0.00472004 0.0183608 0
-0.00657519 0.020701 0
-0.0087299 0.0226401 0
-0.0111726 0.0241762 0
-0.0138861 0.0253253 0
-0.0168473 0.0261172 0
-0.0183292 0.0265898 0
-0.0199925 0.0267696 0
-0.0234965 0.0265324 0
-0.0271055 0.0259051 0
-0.0307736 0.0249077 0
-0.0344463 0.0235499 0
-0.0380594 0.0218295 0
-0.041538 0.0197344 0
-0.0447965 0.0172463 0
-0.047739 0.0143476 0
-0.0502622 0.0110292 0
-0.0522598 0.00730035 0
-0.0534903 0.00319682 0
-0.054014 -0.00121549 0
-0.0538807 -0.00595638 0
-0.0528554 -0.0108322 0
-0.0508933 -0.0156286 0
-0.0480022 -0.0201144 0
-0.0442484 -0.0240576 0
-0.039759 -0.0272491 0
-0.0347171 -0.0295279 0
-0.0293494 -0.0308021 0
-0.0239052 -0.0310635 0
-0.0186298 -0.0303888 0
-0.015741 -0.0289295 0
-0.0133844 -0.0268941 0
-0.00964331 -0.0242229 0
-0.00655744 -0.0211749 0
-0.00411454 -0.0179509 0
-0.00227239 -0.014711 0
-0.000967136 -0.0115845 0
-0.000120007 -0.00867604 0
0.000356131 -0.00606989 0
0.000550696 -0.00383387 0
0.000550179 -0.00202182 0
0.000434037 -0.000675051 0
0.000271772 0.000177463 0
0.000121176 0.000519427 0
2.76251e-05 0.000347772 0
-8.81744e-05 0.00224918 0
-0.000434506 0.00648802 0
-0.00112237 0.0105258 0
-0.00215291 0.0142916 0
-0.00352359 0.0177219 0
-0.00522866 0.020765 0
-0.00725943 0.0233841 0
-0.00960415 0.0255603 0
-0.0122476 0.0272928 0
-0.0151708 0.028598 0
-0.0183498 0.0295057 0
-0.0199373 0.0300543 0
-0.0217181 0.0302692 0
-0.0254757 0.0300356 0
-0.0293534 0.0293787 0
-0.0333066 0.0283155 0
-0.0372823 0.0268515 0
-0.0412174 0.0249792 0
-0.0450374 0.0226802 0
-0.048656 0.0199295 0
-0.0519749 0.0167028 0
-0.0548863 0.0129865 0
-0.0572774 0.00878871 0
-0.0587178 0.0041512 0
-0.0594349 -0.000845681 0
-0.0596411 -0.006265 0
-0.0588999 -0.0118865 0
-0.0571385 -0.0174671 0
-0.0543343 -0.0227391 0
-0.0505267 -0.0274269 0
-0.0458241 -0.0312724 0
-0.040406 -0.0340647 0
-0.0345138 -0.0356692 0
-0.0284305 -0.0360497 0
-0.0224496 -0.0352776 0
-0.0191645 -0.0335267 0
-0.0164499 -0.0310584 0
-0.012092 -0.0278659 0
-0.00845723 -0.0242519 0
-0.0055404 -0.0204462 0
-0.00330386 -0.0166347 0
-0.00168311 -0.0129713 0
-0.000593621 -0.00958166 0
6.09019e-05 -0.0065665 0
0.00038052 -0.00400518 0
0.000462419 -0.00195832 0
0.000396016 -0.000469687 0
0.000259787 0.000432919 0
0.000119557 0.000737353 0
2.79237e-05 0.000446879 0
-9.66145e-05 0.00259103 0
-0.000476028 0.00743128 0
-0.00122903 0.0120066 0
-0.0023554 0.0162464 0
-0.00384997 0.0200894 0
-0.00570344 0.0234874 0
-0.00790302 0.0264078 0
-0.010433 0.0288354 0
-0.013275 0.030773 0
-0.0164078 0.03224 0
-0.0198073 0.0332684 0
-0.0215011 0.0338983 0
-0.0234026 0.0341553 0
-0.0274237 0.0339325 0
-0.0315846 0.033254 0
-0.0358442 0.0321339 0
-0.0401532 0.0305734 0
-0.0444526 0.0285593 0
-0.0486715 0.0260659 0
-0.0527264 0.0230604 0
-0.0565205 0.0195104 0
-0.0599451 0.0153956 0
-0.0628828 0.0107205 0
-0.0646071 0.00552945 0
-0.0656149 -8.57626e-05 0
-0.0663857 -0.00623414 0
-0.0661706 -0.0126784 0
-0.0648554 -0.0191522 0
-0.0623689 -0.0253534 0
-0.0587016 -0.030959 0
-0.0539225 -0.0356514 0
-0.04819 -0.0391535 0
-0.0417511 -0.0412665 0
-0.0349234 -0.0419044 0
-0.0280611 -0.0411156 0
-0.0242762 -0.0390868 0
-0.0210832 -0.0361364 0
-0.0158654 -0.0323684 0
-0.0114376 -0.0281173 0
-0.00781474 -0.0236386 0
-0.00497613 -0.0191506 0
-0.00286394 -0.0148406 0
-0.00139016 -0.0108635 0
-0.000447904 -0.00734233 0
7.71516e-05 -0.00437147 0
0.000297608 -0.00201997 0
0.000317843 -0.00033469 0
0.00023003 0.000657622 0
0.000112127 0.000948967 0
2.72364e-05 0.000548963 0
-0.000104341 0.00297574 0
-0.000514087 0.00849261 0
-0.001327 0.0136713 0
-0.002542 0.0184407 0
-0.00415209 0.0227415 0
-0.00614533 0.0265291 0
-0.00850584 0.0297759 0
-0.0112148 0.0324726 0
-0.0142512 0.0346275 0
-0.0175924 0.0362651 0
-0.0212139 0.0374218 0
-0.0230139 0.0381413 0
-0.025039 0.0384502 0
-0.0293354 0.0382501 0
-0.0337975 0.0375644 0
-0.03839 0.0364051 0
-0.0430704 0.0347692 0
-0.0477873 0.0326375 0
-0.0524779 0.0299771 0
-0.0570667 0.026746 0
-0.0614642 0.0229025 0
-0.0655661 0.0184167 0
-0.0692545 0.0132853 0
-0.0713601 0.00754846 0
-0.0727907 0.00130142 0
-0.074438 -0.00560427 0
-0.0750888 -0.0129359 0
-0.0745703 -0.0204169 0
-0.0727376 -0.0277175 0
-0.0695028 -0.034466 0
-0.0648657 -0.0402741 0
-0.058939 -0.0447763 0
-0.0519594 -0.0476796 0
-0.0442761 -0.0488142 0
-0.0363164 -0.048174 0
-0.0319056 -0.0459359 0
-0.0280727 -0.0424678 0
-0.0216486 -0.0380952 0
-0.0160705 -0.0331423 0
-0.0113982 -0.0278828 0
-0.0076485 -0.0225792 0
-0.00478157 -0.0174688 0
-0.00270914 -0.0127502 0
-0.0013116 -0.0085792 0
-0.000455168 -0.00507142 0
-5.30112e-06 -0.00230762 0
0.000164012 -0.000339051 0
0.000164774 0.000808516 0
9.22809e-05 0.00113177 0
2.42703e-05 0.000647555 0
-0.000111388 0.003402 0
-0.000548828 0.00966855 0
-0.00141658 0.0155151 0
-0.00271309 0.0208694 0
-0.00443013 0.0256735 0
-0.00655393 0.0298869 0
-0.00906641 0.033488 0
-0.0119465 0.0364744 0
-0.0151715 0.0388621 0
-0.0187177 0.0406827 0
-0.0225609 0.0419791 0
-0.0244657 0.0428004 0
-0.0266169 0.0431752 0
-0.0312008 0.0430158 0
-0.0359836 0.0423461 0
-0.0409387 0.0411766 0
-0.0460342 0.039501 0
-0.0512307 0.0372951 0
-0.0564798 0.0345187 0
-0.0617209 0.0311209 0
-0.0668796 0.0270492 0
-0.0718645 0.0222609 0
-0.0765635 0.0167383 0
-0.0791729 0.0105055 0
-0.0811979 0.00364495 0
-0.0841324 -0.00400966 0
-0.0861 -0.0122703 0
-0.0868471 -0.0208726 0
-0.0861233 -0.0294727 0
-0.0837262 -0.0376527 0
-0.0795495 -0.0449411 0
-0.0736282 -0.0508567 0
-0.0661655 -0.0549722 0
-0.0575327 -0.0569866 0
-0.0482367 -0.0567901 0
-0.0430677 -0.0545058 0
-0.038393 -0.0505242 0
-0.0302916 -0.0455729 0
-0.0230655 -0.0398708 0
-0.0168622 -0.0337019 0
-0.0117669 -0.027396 0
-0.00777333 -0.021269 0
-0.00479732 -0.0155872 0
-0.00270389 -0.0105556 0
-0.00133299 -0.00632144 0
-0.000519625 -0.00298268 0
-0.000107418 -0.000596808 0
4.34828e-05 0.000811532 0
5.25361e-05 0.00124512 0
1.75953e-05 0.000730174 0
-0.000117723 0.00386798 0
-0.000580106 0.0109542 0
-0.00149741 0.0175308 0
-0.0028679 0.0235236 0
-0.00468268 0.0288763 0
-0.00692681 0.0335526 0
-0.00958085 0.0375376 0
-0.0126224 0.0408372 0
-0.0160277 0.0434766 0
-0.0197729 0.0454965 0
-0.0238348 0.0469482 0
-0.0258414 0.0478883 0
-0.0281198 0.0483484 0
-0.0330015 0.0482554 0
-0.0381234 0.0476351 0