# vtk DataFile Version 2.0
Presion
ASCII

DATASET STRUCTURED_GRID
DIMENSIONS   50   50   20

POINTS   50000   double
0.00568455   0.00568455   0.025
0.0174023   0.00568455   0.025
0.0298294   0.00568455   0.025
0.0429888   0.00568455   0.025
0.0569012   0.00568455   0.025
0.0715849   0.00568455   0.025
0.0870549   0.00568455   0.025
0.103323   0.00568455   0.025
0.120395   0.00568455   0.025
0.138275   0.00568455   0.025
0.156961   0.00568455   0.025
0.176443   0.00568455   0.025
0.196707   0.00568455   0.025
0.217734   0.00568455   0.025
0.239496   0.00568455   0.025
0.261959   0.00568455   0.025
0.285082   0.00568455   0.025
0.308818   0.00568455   0.025
0.333113   0.00568455   0.025
0.357906   0.00568455   0.025
0.383132   0.00568455   0.025
0.408719   0.00568455   0.025
0.434592   0.00568455   0.025
0.460672   0.00568455   0.025
0.486877   0.00568455   0.025
0.513123   0.00568455   0.025
0.539328   0.00568455   0.025
0.565408   0.00568455   0.025
0.591281   0.00568455   0.025
0.616868   0.00568455   0.025
0.642094   0.00568455   0.025
0.666887   0.00568455   0.025
0.691182   0.00568455   0.025
0.714918   0.00568455   0.025
0.738041   0.00568455   0.025
0.760504   0.00568455   0.025
0.782266   0.00568455   0.025
0.803293   0.00568455   0.025
0.823557   0.00568455   0.025
0.843039   0.00568455   0.025
0.861725   0.00568455   0.025
0.879605   0.00568455   0.025
0.896677   0.00568455   0.025
0.912945   0.00568455   0.025
0.928415   0.00568455   0.025
0.943099   0.00568455   0.025
0.957011   0.00568455   0.025
0.970171   0.00568455   0.025
0.982598   0.00568455   0.025
0.994315   0.00568455   0.025
0.00568455   0.0174023   0.025
0.0174023   0.0174023   0.025
0.0298294   0.0174023   0.025
0.0429888   0.0174023   0.025
0.0569012   0.0174023   0.025
0.0715849   0.0174023   0.025
0.0870549   0.0174023   0.025
0.103323   0.0174023   0.025
0.120395   0.0174023   0.025
0.138275   0.0174023   0.025
0.156961   0.0174023   0.025
0.176443   0.0174023   0.025
0.196707   0.0174023   0.025
0.217734   0.0174023   0.025
0.239496   0.0174023   0.025
0.261959   0.0174023   0.025
0.285082   0.0174023   0.025
0.308818   0.0174023   0.025
0.333113   0.0174023   0.025
0.357906   0.0174023   0.025
0.383132   0.0174023   0.025
0.408719   0.0174023   0.025
0.434592   0.0174023   0.025
0.460672   0.0174023   0.025
0.486877   0.0174023   0.025
0.513123   0.0174023   0.025
0.539328   0.0174023   0.025
0.565408   0.0174023   0.025
0.591281   0.0174023   0.025
0.616868   0.0174023   0.025
0.642094   0.0174023   0.025
0.666887   0.0174023   0.025
0.691182   0.0174023   0.025
0.714918   0.0174023   0.025
0.738041   0.0174023   0.025
0.760504   0.0174023   0.025
0.782266   0.0174023   0.025
0.803293   0.0174023   0.025
0.823557   0.0174023   0.025
0.843039   0.0174023   0.025
0.861725   0.0174023   0.025
0.879605   0.0174023   0.025
0.896677   0.0174023   0.025
0.912945   0.0174023   0.025
0.928415   0.0174023   0.025
0.943099   0.0174023   0.025
0.957011   0.0174023   0.025
0.970171   0.0174023   0.025
0.982598   0.0174023   0.025
0.994315   0.0174023   0.025
0.00568455   0.0298294   0.025
0.0174023   0.0298294   0.025
0.0298294   0.0298294   0.025
0.0429888   0.0298294   0.025
0.0569012   0.0298294   0.025
0.0715849   0.0298294   0.025
0.0870549   0.0298294   0.025
0.103323   0.0298294   0.025
0.120395   0.0298294   0.025
0.138275   0.0298294   0.025
0.156961   0.0298294   0.025
0.176443   0.0298294   0.025
0.196707   0.0298294   0.025
0.217734   0.0298294   0.025
0.239496   0.0298294   0.025
0.261959   0.0298294   0.025
0.285082   0.0298294   0.025
0.308818   0.0298294   0.025
0.333113   0.0298294   0.025
0.357906   0.0298294   0.025
0.383132   0.0298294   0.025
0.408719   0.0298294   0.025
0.434592   0.0298294   0.025
0.460672   0.0298294   0.025
0.486877   0.0298294   0.025
0.513123   0.0298294   0.025
0.539328   0.0298294   0.025
0.565408   0.0298294   0.025
0.591281   0.0298294   0.025
0.616868   0.0298294   0.025
0.642094   0.0298294   0.025
0.666887   0.0298294   0.025
0.691182   0.0298294   0.025
0.714918   0.0298294   0.025
0.738041   0.0298294   0.025
0.760504   0.0298294   0.025
0.782266   0.0298294   0.025
0.803293   0.0298294   0.025
0.823557   0.0298294   0.025
0.843039   0.0298294   0.025
0.861725   0.0298294   0.025
0.879605   0.0298294   0.025
0.896677   0.0298294   0.025
0.912945   0.0298294   0.025
0.928415   0.0298294   0.025
0.943099   0.0298294   0.025
0.957011   0.0298294   0.025
0.970171   0.0298294   0.025
0.982598   0.0298294   0.025
0.994315   0.0298294   0.025
0.00568455   0.0429888   0.025
0.0174023   0.0429888   0.025
0.0298294   0.0429888   0.025
0.0429888   0.0429888   0.025
0.0569012   0.0429888   0.025
0.0715849   0.0429888   0.025
0.0870549   0.0429888   0.025
0.103323   0.0429888   0.025
0.120395   0.0429888   0.025
0.138275   0.0429888   0.025
0.156961   0.0429888   0.025
0.176443   0.0429888   0.025
0.196707   0.0429888   0.025
0.217734   0.0429888   0.025
0.239496   0.0429888   0.025
0.261959   0.0429888   0.025
0.285082   0.0429888   0.025
0.308818   0.0429888   0.025
0.333113   0.0429888   0.025
0.357906   0.0429888   0.025
0.383132   0.0429888   0.025
0.408719   0.0429888   0.025
0.434592   0.0429888   0.025
0.460672   0.0429888   0.025
0.486877   0.0429888   0.025
0.513123   0.0429888   0.025
0.539328   0.0429888   0.025
0.565408   0.0429888   0.025
0.591281   0.0429888   0.025
0.616868   0.0429888   0.025
0.642094   0.0429888   0.025
0.666887   0.0429888   0.025
0.691182   0.0429888   0.025
0.714918   0.0429888   0.025
0.738041   0.0429888   0.025
0.760504   0.0429888   0.025
0.782266   0.0429888   0.025
0.803293   0.0429888   0.025
0.823557   0.0429888   0.025
0.843039   0.0429888   0.025
0.861725   0.0429888   0.025
0.879605   0.0429888   0.025
0.896677   0.0429888   0.025
0.912945   0.0429888   0.025
0.928415   0.0429888   0.025
0.943099   0.0429888   0.025
0.957011   0.0429888   0.025
0.970171   0.0429888   0.025
0.982598   0.0429888   0.025
0.994315   0.0429888   0.025
0.00568455   0.0569012   0.025
0.0174023   0.0569012   0.025
0.0298294   0.0569012   0.025
0.0429888   0.0569012   0.025
0.0569012   0.0569012   0.025
0.0715849   0.0569012   0.025
0.0870549   0.0569012   0.025
0.103323   0.0569012   0.025
0.120395   0.0569012   0.025
0.138275   0.0569012   0.025
0.156961   0.0569012   0.025
0.176443   0.0569012   0.025
0.196707   0.0569012   0.025
0.217734   0.0569012   0.025
0.239496   0.0569012   0.025
0.261959   0.0569012   0.025
0.285082   0.0569012   0.025
0.308818   0.0569012   0.025
0.333113   0.0569012   0.025
0.357906   0.0569012   0.025
0.383132   0.0569012   0.025
0.408719   0.0569012   0.025
0.434592   0.0569012   0.025
0.460672   0.0569012   0.025
0.486877   0.0569012   0.025
0.513123   0.0569012   0.025
0.539328   0.0569012   0.025
0.565408   0.0569012   0.025
0.591281   0.0569012   0.025
0.616868   0.0569012   0.025
0.642094   0.0569012   0.025
0.666887   0.0569012   0.025
0.691182   0.0569012   0.025
0.714918   0.0569012   0.025
0.738041   0.0569012   0.025
0.760504   0.0569012   0.025
0.782266   0.0569012   0.025
0.803293   0.0569012   0.025
0.823557   0.0569012   0.025
0.843039   0.0569012   0.025
0.861725   0.0569012   0.025
0.879605   0.0569012   0.025
0.896677   0.0569012   0.025
0.912945   0.0569012   0.025
0.928415   0.0569012   0.025
0.943099   0.0569012   0.025
0.957011   0.0569012   0.025
0.970171   0.0569012   0.025
0.982598   0.0569012   0.025
0.994315   0.0569012   0.025
0.00568455   0.0715849   0.025
0.0174023   0.0715849   0.025
0.0298294   0.0715849   0.025
0.0429888   0.0715849   0.025
0.0569012   0.0715849   0.025
0.0715849   0.0715849   0.025
0.0870549   0.0715849   0.025
0.103323   0.0715849   0.025
0.120395   0.0715849   0.025
0.138275   0.0715849   0.025
0.156961   0.0715849   0.025
0.176443   0.0715849   0.025
0.196707   0.0715849   0.025
0.217734   0.0715849   0.025
0.239496   0.0715849   0.025
0.261959   0.0715849   0.025
0.285082   0.0715849   0.025
0.308818   0.0715849   0.025
0.333113   0.0715849   0.025
0.357906   0.0715849   0.025
0.383132   0.0715849   0.025
0.408719   0.0715849   0.025
0.434592   0.0715849   0.025
0.460672   0.0715849   0.025
0.486877   0.0715849   0.025
0.513123   0.0715849   0.025
0.539328   0.0715849   0.025
0.565408   0.0715849   0.025
0.591281   0.0715849   0.025
0.616868   0.0715849   0.025
0.642094   0.0715849   0.025
0.666887   0.0715849   0.025
0.691182   0.0715849   0.025
0.714918   0.0715849   0.025
0.738041   0.0715849   0.025
0.760504   0.0715849   0.025
0.782266   0.0715849   0.025
0.803293   0.0715849   0.025
0.823557   0.0715849   0.025
0.843039   0.0715849   0.025
0.861725   0.0715849   0.025
0.879605   0.0715849   0.025
0.896677   0.0715849   0.025
0.912945   0.0715849   0.025
0.928415   0.0715849   0.025
0.943099   0.0715849   0.025
0.957011   0.0715849   0.025
0.970171   0.0715849   0.025
0.982598   0.0715849   0.025
0.994315   0.0715849   0.025
0.00568455   0.0870549   0.025
0.0174023   0.0870549   0.025
0.0298294   0.0870549   0.025
0.0429888   0.0870549   0.025
0.0569012   0.0870549   0.025
0.0715849   0.0870549   0.025
0.0870549   0.0870549   0.025
0.103323   0.0870549   0.025
0.120395   0.0870549   0.025
0.138275   0.0870549   0.025
0.156961   0.0870549   0.025
0.176443   0.0870549   0.025
0.196707   0.0870549   0.025
0.217734   0.0870549   0.025
0.239496   0.0870549   0.025
0.261959   0.0870549   0.025
0.285082   0.0870549   0.025
0.308818   0.0870549   0.025
0.333113   0.0870549   0.025
0.357906   0.0870549   0.025
0.383132   0.0870549   0.025
0.408719   0.0870549   0.025
0.434592   0.0870549   0.025
0.460672   0.0870549   0.025
0.486877   0.0870549   0.025
0.513123   0.0870549   0.025
0.539328   0.0870549   0.025
0.565408   0.0870549   0.025
0.591281   0.0870549   0.025
0.616868   0.0870549   0.025
0.642094   0.0870549   0.025
0.666887   0.0870549   0.025
0.691182   0.0870549   0.025
0.714918   0.0870549   0.025
0.738041   0.0870549   0.025
0.760504   0.0870549   0.025
0.782266   0.0870549   0.025
[...]
POINT_DATA   50000
SCALARS Presion double
LOOKUP_TABLE   Presion

0 0 0 0 0 0 0 0 0 0 0 0 0 0 0 0 0 0 0 0 0 0 0 0 0 0 0 0 0 0 0 0 0 0 0 0 0 0 0 0 0 0 0 0 0 0 0 0 0 0 0.00166138 0.00180873 0.0019866 0.00211526 0.00218021 0.00218259 0.00212701 0.00201858 0.00186217 0.00166205 0.0014216 0.00114255 0.0006831 0.000404058 0.000155017 -6.19606e-05 -0.000241762 -0.000375992 -0.000454851 -0.000469537 -0.00041468 -0.000290363 -0.000103089 0.000134528 0.000385314 0.000635041 0.000850006 0.00100325 0.0010733 0.0010463 0.00091758 0.000692351 0.000385353 1.97081e-05 -0.000374964 -0.000763902 -0.00101257 -0.00137462 -0.00171162 -0.00200606 -0.00224747 -0.00243018 -0.00255126 -0.00260928 -0.00260348 -0.00253336 -0.00239897 -0.00220383 -0.00196839 -0.00178525 0.00218085 0.00216973 0.0022197 0.00227058 0.00229263 0.00227359 0.00220975 0.0021014 0.00195074 0.001761 0.00153652 0.00128132 0.000760884 0.000508476 0.000273352 6.26776e-05 -0.000116155 -0.000254094 -0.000341396 -0.00036951 -0.000333198 -0.000232379 -7.31264e-05 0.000130856 0.000353757 0.000572174 0.000758099 0.00088602 0.000935644 0.000893953 0.000756739 0.000529191 0.000225416 -0.00013309 -0.000520087 -0.000905441 -0.00108228 -0.00144138 -0.0017675 -0.00204921 -0.00227928 -0.00245397 -0.002572 -0.00263384 -0.0026416 -0.00259955 -0.00251613 -0.0024087 -0.00231344 -0.00229986 0.00253293 0.00248301 0.00246843 0.00246306 0.00244538 0.00240176 0.00232505 0.00221244 0.00206402 0.00188193 0.00167062 0.00143337 0.000843293 0.000613335 0.000390603 0.000184304 3.32935e-06 -0.00014261 -0.000243542 -0.000290722 -0.000278473 -0.00020593 -7.82549e-05 8.96616e-05 0.000289331 0.000482419 0.000646821 0.00075794 0.000795577 0.000746278 0.000605151 0.000376623 7.39247e-05 -0.000282751 -0.000669407 -0.00105739 -0.0011584 -0.00151966 -0.00184047 -0.00211413 -0.00233684 -0.00250722 -0.00262591 -0.00269532 -0.00271984 -0.00270656 -0.00266679 -0.00261827 -0.00258694 -0.0026038 0.00282594 0.00276627 0.00271981 0.0026778 0.00262854 0.00256187 0.00247071 0.00235117 0.00220202 0.0020245 0.00182263 0.00159773 0.000932744 0.000719059 0.000504486 0.000298399 0.000110287 -4.96778e-05 -0.000171096 -0.000244566 -0.000263319 -0.000224941 -0.00013291 -2.58112e-06 0.000175785 0.000349652 0.00050031 0.000603755 0.000638905 0.000590651 0.00045224 0.000226432 -7.48699e-05 -0.000432631 -0.00082414 -0.00122015 -0.00124532 -0.00161279 -0.00193273 -0.00220254 -0.00242169 -0.00259122 -0.00271356 -0.00279263 -0.00283398 -0.00284526 -0.00283667 -0.00282111 -0.00281278 -0.0028228 0.00310937 0.00304138 0.00297507 0.00290806 0.00283462 0.00274813 0.00264292 0.00251507 0.00236278 0.00218652 0.00198961 0.00177089 0.00102861 0.000823411 0.000610139 0.00039743 0.000194667 1.22358e-05 -0.00013887 -0.0002481 -0.000306861 -0.000310288 -0.000259132 -0.000168061 -1.08861e-05 0.000149168 0.000293813 0.000399404 0.00044309 0.000406899 0.000280918 6.50938e-05 -0.000230777 -0.000589004 -0.000987572 -0.00139514 -0.00134798 -0.00172434 -0.0020465 -0.00231579 -0.00253475 -0.00270649 -0.00283484 -0.00292451 -0.00298122 -0.00301172 -0.0030237 -0.00302522 -0.00302327 -0.00302148 0.00340291 0.00332122 0.00323725 0.00315038 0.00305752 0.00295426 0.00283607 0.00269931 0.00254175 0.00236316 0.00216595 0.00194617 0.00112674 0.000920457 0.000698892 0.000469627 0.000241506 2.49672e-05 -0.000168207 -0.000325784 -0.000436535 -0.000492126 -0.000489343 -0.000440812 -0.000304717 -0.000154945 -9.10767e-06 0.000109209 0.000174537 0.000164783 6.53724e-05 -0.000128078 -0.00040912 -0.000762086 -0.00116556 -0.00158517 -0.00147278 -0.00185836 -0.00218385 -0.00245477 -0.0026763 -0.002853 -0.00298941 -0.00309036 -0.00316101 -0.00320672 -0.00323282 -0.00324408 -0.00324406 -0.0032342 0.00371068 0.00360912 0.00350584 0.0034004 0.00329049 0.00317249 0.00304228 0.00289604 0.00273098 0.00254594 0.00234218 0.00211274 0.00121832 0.000999271 0.000756822 0.000497485 0.000229393 -3.69798e-05 -0.000288786 -0.000511514 -0.000690428 -0.000812626 -0.000869588 -0.000870443 -0.000752772 -0.000613158 -0.000460195 -0.000317897 -0.000215198 -0.000179665 -0.000232325 -0.000383896 -0.000633141 -0.000967771 -0.00136754 -0.00179466 -0.00162864 -0.00201976 -0.00234683 -0.00261995 -0.00284614 -0.00303041 -0.00317714 -0.00329059 -0.00337494 -0.00343417 -0.00347187 -0.00349101 -0.00349374 -0.00348122 0.00402688 0.00390002 0.00377469 0.00365016 0.00352395 0.00339217 0.00325021 0.00309348 0.0029181 0.00272159 0.00250368 0.00225429 0.00128847 0.0010424 0.000763102 0.000456066 0.000128731 -0.000208256 -0.000540592 -0.000850825 -0.00111979 -0.0013289 -0.00146294 -0.00152602 -0.00141886 -0.00129453 -0.0011309 -0.000953119 -0.000794388 -0.000689187 -0.000667113 -0.000747793 -0.000937853 -0.00123062 -0.00160844 -0.00203063 -0.00182882 -0.00221533 -0.00253806 -0.00281179 -0.00304391 -0.00323843 -0.00339836 -0.00352664 -0.00362614 -0.0036996 -0.00374942 -0.00377768 -0.00378609 -0.00377606 0.00433762 0.00418105 0.00403099 0.00388626 0.00374359 0.00359808 0.00344382 0.00327472 0.00308517 0.00287086 0.00262948 0.00234774 0.00131455 0.00102424 0.000688306 0.000311272 -0.000100016 -0.000534458 -0.000975806 -0.00140294 -0.00179133 -0.00211553 -0.00235236 -0.00249922 -0.00238763 -0.00229091 -0.00211705 -0.00189302 -0.00165692 -0.00145155 -0.0013174 -0.00128616 -0.00137585 -0.00158872 -0.00191232 -0.00230489 -0.00209386 -0.00245562 -0.00276212 -0.0030318 -0.00327 -0.00347746 -0.00365426 -0.00380103 -0.00391893 -0.00400941 -0.00407404 -0.00411442 -0.00413221 -0.0041292 0.00462101 0.00443148 0.00425461 0.00408858 0.00392889 0.00376897 0.00360093 0.00341641 0.00320748 0.00296731 0.00269101 0.00236205 0.00126466 0.000909511 0.000492923 1.83719e-05 -0.000507733 -0.00107348 -0.00166011 -0.00224204 -0.00278839 -0.00326574 -0.00364173 -0.00390504 -0.00376794 -0.00372013 -0.00354238 -0.00326381 -0.00292758 -0.00258586 -0.00229234 -0.00209421 -0.0020252 -0.00210109 -0.0023186 -0.00263886 -0.00245649 -0.0027586 -0.00302837 -0.00328479 -0.00352713 -0.00374974 -0.00394761 -0.00411775 -0.00425885 -0.00437086 -0.0044545 -0.00451104 -0.00454222 -0.00455016 0.00484692 0.00462241 0.00441748 0.00422939 0.00405198 0.00387639 0.00369208 0.0034878 0.00325256 0.00297646 0.00265135 0.00225752 0.00109653 0.000652306 0.000126474 -0.000478722 -0.00115718 -0.00189578 -0.00267259 -0.00345673 -0.00420993 -0.0048896 -0.00545311 -0.00587784 -0.0056935 -0.00572565 -0.00555821 -0.00522175 -0.00476385 -0.00424635 -0.00373766 -0.00330372 -0.00299873 -0.00285757 -0.00289179 -0.00307241 -0.00296905 -0.00315572 -0.00335587 -0.00358254 -0.00382308 -0.00406125 -0.00428409 -0.00448306 -0.00465329 -0.00479259 -0.00490057 -0.00497808 -0.00502686 -0.00504934 0.00497679 0.00471671 0.00448345 0.00427305 0.00407716 0.0038841 0.00368001 0.00345014 0.00317986 0.00285552 0.00246511 0.00198573 0.000757334 0.000196101 -0.000472176 -0.0012468 -0.00212186 -0.00308258 -0.00410315 -0.00514639 -0.00616545 -0.0071073 -0.00791788 -0.00856006 -0.00831727 -0.00846915 -0.00833526 -0.0079454 -0.00734985 -0.00661886 -0.00583572 -0.00508709 -0.00445178 -0.00398989 -0.00373484 -0.0036785 -0.00371302 -0.00370067 -0.00378066 -0.0039493 -0.00417458 -0.00442441 -0.00467408 -0.00490686 -0.00511252 -0.00528565 -0.00542411 -0.00552801 -0.00559895 -0.00563955 0.00496424 0.00466962 0.00440889 0.00417645 0.00396132 0.0037484 0.00352 0.00325726 0.00294132 0.00255423 0.00207946 0.00149091 0.000184961 -0.000524545 -0.00137264 -0.00236053 -0.00348235 -0.00472111 -0.00604621 -0.00741299 -0.00876455 -0.0100359 -0.0111602 -0.0120821 -0.0117955 -0.0121119 -0.0120432 -0.0116149 -0.0108768 -0.0099044 -0.00879362 -0.00765136 -0.00658319 -0.00567964 -0.00500368 -0.00458323 -0.00480822 -0.00447965 -0.00436437 -0.00442829 -0.00461188 -0.0048612 -0.00513487 -0.00540418 -0.00565087 -0.00586451 -0.00604014 -0.0061765 -0.0062747 -0.00633747 0.00475674 0.00443043 0.00414428 0.00389067 0.0036555 0.00341981 0.00316154 0.00285725 0.00248339 0.00201711 0.00143677 0.00071286 -0.000688545 -0.00158001 -0.00264828 -0.0038967 -0.00531919 -0.00689577 -0.00858981 -0.0103476 -0.0121003 -0.0137691 -0.0152731 -0.0165343 -0.0162591 -0.016783 -0.0168165 -0.016376 -0.0155068 -0.0142847 -0.0128131 -0.0112148 -0.00962103 -0.00815493 -0.00691577 -0.00598599 -0.00641508 -0.00561842 -0.00520135 -0.00508741 -0.00518308 -0.0054062 -0.00569268 -0.00599664 -0.00628782 -0.00654802 -0.00676771 -0.0069432 -0.00707462 -0.00716449 0.00429869 0.00394552 0.00363725 0.00336393 0.00310796 0.00284609 0.00255157 0.00219601 0.00175071 0.00118748 0.000479048 -0.000407894 -0.00193102 -0.00303889 -0.00436847 -0.00592526 -0.00770231 -0.00967546 -0.0118004 -0.0140122 -0.0162279 -0.0183531 -0.0202904 -0.0219374 -0.021773 -0.0225374 -0.0227093 -0.0222927 -0.0213235 -0.0198717 -0.0180406 -0.0159617 -0.0137849 -0.0116643 -0.00973898 -0.0081642 -0.00872038 -0.00727898 -0.00641975 -0.00602218 -0.00595706 -0.00610896 -0.00638429 -0.00671341 -0.00704856 -0.00735973 -0.00763011 -0.00785199 -0.00802361 -0.00814689 0.00353609 0.00316287 0.00283707 0.00254612 0.00226866 0.00197697 0.00163935 0.00122222 0.000691505 1.33262e-05 -0.000845653 -0.00192307 -0.00360161 -0.00495861 -0.00658816 -0.00849743 -0.0106775 -0.0130982 -0.0157053 -0.0184201 -0.0211435 -0.023763 -0.0261639 -0.0282184 -0.0282955 -0.0293156 -0.0296544 -0.0293019 -0.0282814 -0.0266517 -0.0245075 -0.0219786 -0.0192238 -0.0164198 -0.0137443 -0.011438 -0.0119001 -0.00963939 -0.00817297 -0.00735376 -0.00702447 -0.00703554 -0.0072583 -0.00759192 -0.00796417 -0.0083277 -0.00865451 -0.00893038 -0.00915026 -0.00931479 0.00242244 0.00203785 0.00170033 0.0013945 0.00109519 0.000770108 0.000382616 -0.000106088 -0.000735577 -0.00154554 -0.00257553 -0.00386815 -0.0057403 -0.00737432 -0.00933592 -0.0116328 -0.0142523 -0.017156 -0.020277 -0.0235203 -0.0267683 -0.0298896 -0.0327517 -0.0352048 -0.035653 -0.0369225 -0.0374426 -0.0371911 -0.036178 -0.0344477 -0.0320804 -0.0291937 -0.0259425 -0.0225144 -0.0191176 -0.0160776 -0.0160675 -0.0128579 -0.0106204 -0.00922097 -0.00849559 -0.00826882 -0.00837572 -0.00867806 -0.00907132 -0.00948373 -0.00987074 -0.010208 -0.0104851 -0.0107003 0.00092537 0.000539658 0.000197315 -0.000119876 -0.000440859 -0.00080229 -0.00124557 -0.00181457 -0.00255418 -0.00350979 -0.00472699 -0.00625383 -0.00835734 -0.0102881 -0.0126028 -0.015308 -0.0183851 -0.0217846 -0.0254244 -0.0291909 -0.0329468 -0.036542 -0.039828 -0.0426399 -0.0435488 -0.0450414 -0.04574 -0.0456149 -0.0446656 -0.0429232 -0.0404505 -0.0373461 -0.0337496 -0.0298444 -0.0258556 -0.0221731 -0.0212292 -0.0170325 -0.0139 -0.0117648 -0.0104934 -0.00990602 -0.00980938 -0.0100258 -0.0104114 -0.0108619 -0.0113095 -0.0117146 -0.0120582 -0.0123346 -0.000967023 -0.00134253 -0.00168191 -0.00200616 -0.0023477 -0.00274722 -0.00325048 -0.00390599 -0.00476358 -0.00587389 -0.00728796 -0.00905932 -0.0114249 -0.0136607 -0.0163348 -0.0194504 -0.0229804 -0.0268618 -0.0309948 -0.0352464 -0.0394598 -0.0434685 -0.0471113 -0.0502179 -0.0516103 -0.0532858 -0.0541437 -0.0541534 -0.0533102 -0.0516358 -0.0491775 -0.046013 -0.0422589 -0.0380809 -0.0337016 -0.029536 -0.0272725 -0.0221681 -0.0180949 -0.0151038 -0.0131384 -0.012051 -0.0116401 -0.0116948 -0.0120284 -0.0124965 -0.0129994 -0.0134763 -0.0138953 -0.0142441 -0.0032413 -0.00359486 -0.00392293 -0.00424905 -0.00460877 -0.00504626 -0.00561108 -0.00635573 -0.0073343 -0.00860187 -0.010214 -0.0122291 -0.0148735 -0.0174093 -0.0204321 -0.0239394 -0.0278934 -0.0322158 -0.0367884 -0.0414585 -0.0460523 -0.0503904 -0.0543046 -0.0576281 -0.0594585 -0.0612705 -0.0622567 -0.0623925 -0.0616756 -0.0601247 -0.0577769 -0.0546914 -0.0509598 -0.0467202 -0.0421728 -0.0377074 -0.033982 -0.0281596 -0.0232011 -0.0193014 -0.0165244 -0.0147983 -0.0139476 -0.0137452 -0.0139652 -0.0144177 -0.0149633 -0.0155122 -0.0160139 -0.0164461 -0.00585645 -0.00617669 -0.00648487 -0.00680687 -0.00718084 -0.00765382 -0.0082784 -0.00911032 -0.010207 -0.0116269 -0.0134287 -0.0156745 -0.018595 -0.0214115 -0.024755 -0.0286155 -0.032943 -0.0376434 -0.0425802 -0.0475835 -0.0524656 -0.0570391 -0.0611347 -0.0645961 -0.066773 -0.0686757 -0.0697537 -0.0699935 -0.069401 -0.0679976 -0.0658164 -0.0629042 -0.0593301 -0.0552003 -0.050677 -0.0460812 -0.0410689 -0.0347903 -0.0291017 -0.0243319 -0.0206863 -0.0182098 -0.0167941 -0.0162268 -0.0162557 -0.016646 -0.0172125 -0.0178279 -0.0184167 -0.0189424 -0.00874511 -0.00902179 -0.00930179 -0.00961299 -0.0099956 -0.0104989 -0.0111776 -0.01209 -0.0132955 -0.0148548 -0.0168285 -0.0192802 -0.0224512 -0.025516 -0.029137 -0.0332961 -0.0379307 -0.0429315 -0.048146 -0.0533902 -0.0584669 -0.0631854 -0.06738 -0.0709095 -0.0733285 -0.0752811 -0.0764154 -0.0767306 -0.0762438 -0.0749832 -0.0729834 -0.0702851 -0.0669411 -0.0630274 -0.0586618 -0.0540722 -0.0482023 -0.0417491 -0.0355615 -0.030056 -0.0255693 -0.0222852 -0.0202032 -0.0191636 -0.0189141 -0.019184 -0.0197395 -0.0204094 -0.0210859 -0.0217128 -0.0118184 -0.0120432 -0.0122874 -0.0125807 -0.0129648 -0.0134904 -0.0142139 -0.0151948 -0.0164938 -0.0181724 -0.0202913 -0.022914 -0.0262876 -0.0295572 -0.0334014 -0.0377937 -0.0426603 -0.0478787 -0.0532837 -0.0586811 -0.0638683 -0.0686554 -0.0728833 -0.0764265 -0.0789972 -0.0809673 -0.0821277 -0.0824897 -0.0820815 -0.0809397 -0.0791038 -0.0766145 -0.0735152 -0.069859 -0.0657216 -0.0612397 -0.0550412 -0.0486678 -0.0422478 -0.0362194 -0.0310103 -0.026938 -0.0241355 -0.0225362 -0.0219219 -0.0220056 -0.0225099 -0.0232153 -0.0239752 -0.0247083 -0.0149739 -0.0151409 -0.015343 -0.0156111 -0.0159882 -0.0165257 -0.017281 -0.0183139 -0.0196855 -0.0214569 -0.0236878 -0.026439 -0.0299479 -0.0333709 -0.0373772 -0.0419327 -0.0469548 -0.052311 -0.0578271 -0.0633028 -0.0685337 -0.0733328 -0.0775484 -0.0810693 -0.0837288 -0.0856935 -0.0868582 -0.0872429 -0.0868851 -0.0858293 -0.0841221 -0.0818078 -0.0789273 -0.07552 -0.0716308 -0.0673249 -0.061272 -0.0551734 -0.048777 -0.0424802 -0.0367431 -0.0319843 -0.0284727 -0.0262647 -0.0252142 -0.0250466 -0.0254543 -0.0261704 -0.0270046 -0.0278449 -0.0181052 -0.0182112 -0.0183665 -0.0186028 -0.0189634 -0.0195006 -0.0202716 -0.0213362 -0.0227551 -0.0245879 -0.0268924 -0.0297252 -0.0332878 -0.0368084 -0.040913 -0.0455625 -0.050668 -0.0560908 -0.0616518 -0.067148 -0.0723755 -0.077151 -0.0813292 -0.0848097 -0.0875232 -0.0894692 -0.0906247 -0.0910148 -0.090683 -0.0896808 -0.0880614 -0.0858755 -0.0831669 -0.0799709 -0.0763154 -0.0722224 -0.0666428 -0.0609403 -0.0547747 -0.0484595 -0.0424295 -0.0371537 -0.0330139 -0.0302002 -0.0286708 -0.0281972 -0.0284629 -0.0291612 -0.0300563 -0.0310015 -0.021112 -0.021157 -0.0212626 -0.021461 -0.0217957 -0.0223188 -0.0230873 -0.0241604 -0.0255977 -0.0274571 -0.0297938 -0.032659 -0.0361852 -0.0397459 -0.043886 -0.0485643 -0.053689 -0.0591192 -0.0646741 -0.0701508 -0.0753469 -0.0800822 -0.0842155 -0.0876527 -0.090407 -0.0923296 -0.0934704 -0.0938555 -0.0935316 -0.0925548 -0.0909851 -0.0888802 -0.0862909 -0.0832559 -0.0797996 -0.0759273 -0.0709842 -0.0657266 -0.0599277 -0.0537993 -0.0477089 -0.0421217 -0.0374912 -0.0341287 -0.032115 -0.0312996 -0.031384 -0.0320355 -0.0329755 -0.0340197 -0.0239086 -0.0238953 -0.0239505 -0.0241065 -0.0244062 -0.024901 -0.0256473 -0.0267035 -0.0281279 -0.0299766 -0.0323023 -0.0351506 -0.0385463 -0.04209 -0.0462064 -0.0508545 -0.0559436 -0.061334 -0.0668464 -0.0722794 -0.0774323 -0.0821262 -0.0862208 -0.0896237 -0.0924185 -0.0943207 -0.0954475 -0.0958234 -0.0954951 -0.0945224 -0.0929705 -0.0909051 -0.0883854 -0.085459 -0.0821566 -0.0784873 -0.0742111 -0.0693863 -0.0640135 -0.0582082 -0.0522488 -0.0465536 -0.0415991 -0.0377878 -0.0353223 -0.0341531 -0.0340276 -0.0346058 -0.0355739 -0.0367096 -0.0264305 -0.0263641 -0.0263705 -0.026481 -0.0267374 -0.0271899 -0.0278938 -0.0289064 -0.0302848 -0.0320839 -0.0343543 -0.0371366 -0.0403081 -0.0437797 -0.0478172 -0.0523832 -0.0573913 -0.0627059 -0.0681515 -0.0735294 -0.0786396 -0.0833022 -0.0873744 -0.0907604 -0.0936017 -0.095492 -0.0966107 -0.0969778 -0.0966387 -0.0956548 -0.0940962 -0.0920357 -0.0895423 -0.0866748 -0.0834762 -0.0799719 -0.07631 -0.0718608 -0.0669066 -0.0614845 -0.0557822 -0.0501457 -0.0450314 -0.0408929 -0.0380372 -0.0365251 -0.0361738 -0.0366578 -0.0376382 -0.0388573 -0.0286371 -0.0285251 -0.0284862 -0.0285501 -0.0287565 -0.0291535 -0.0297946 -0.0307361 -0.0320342 -0.0337433 -0.0359135 -0.0385815 -0.0414378 -0.0447846 -0.0486928 -0.0531314 -0.0580212 -0.0632334 -0.0685978 -0.0739183 -0.0789949 -0.0836442 -0.0877169 -0.0911095 -0.0940039 -0.0958962 -0.0970163 -0.0973792 -0.0970272 -0.0960223 -0.0944386 -0.0923556 -0.0898516 -0.0869974 -0.0838505 -0.0804585 -0.0773202 -0.07316 -0.068565 -0.0635171 -0.0581252 -0.0526546 -0.0475127 -0.043165 -0.039994 -0.0381662 -0.037585 -0.0379591 -0.0389385 -0.0402343 -0.030512 -0.0303634 -0.0302848 -0.0303029 -0.0304543 -0.0307837 -0.0313423 -0.0321847 -0.0333673 -0.0349448 -0.0369688 -0.0394747 -0.0419295 -0.0451013 -0.0488344 -0.0531068 -0.0578485 -0.0629394 -0.0682152 -0.0734829 -0.0785405 -0.0831989 -0.0872995 -0.0907265 -0.0936779 -0.0955897 -0.0967245 -0.0970911 -0.0967282 -0.0956972 -0.0940752 -0.0919477 -0.0894017 -0.0865186 -0.0833704 -0.0800279 -0.0773155 -0.0733408 -0.0690104 -0.0642722 -0.059175 -0.0539092 -0.0488194 -0.0443528 -0.0409358 -0.0388252 -0.0380163 -0.0382695 -0.0392372 -0.0406051 -0.0320606 -0.0318859 -0.0317746 -0.0317497 -0.0318428 -0.0320941 -0.0325509 -0.0332664 -0.034297 -0.0357002 -0.0375311 -0.0398273 -0.0417999 -0.0447493 -0.0482665 -0.0523399 -0.0569104 -0.0618674 -0.0670533 -0.072277 -0.0773338 -0.0820265 -0.0861844 -0.0896763 -0.0926837 -0.0946362 -0.0958021 -0.0961839 -0.0958158 -0.0947578 -0.093089 -0.0908997 -0.0882841 -0.0853328 -0.0821296 -0.0787666 -0.0763922 -0.0724906 -0.0683073 -0.0637733 -0.0588968 -0.0538075 -0.0487867 -0.0442459 -0.0406281 -0.0382595 -0.0372245 -0.0373467 -0.0382937 -0.0397324 -0.0333061 -0.0331166 -0.0329812 -0.0329175 -0.0329508 -0.0331145 -0.0334512 -0.0340114 -0.0348529 -0.0360375 -0.0376275 -0.0396666 -0.0410834 -0.0437663 -0.0470317 -0.0508797 -0.0552627 -0.0600797 -0.0651793 -0.0703716 -0.0754476 -0.0802007 -0.0844466 -0.0880357 -0.0910903 -0.0931078 -0.0943247 -0.0947368 -0.0943734 -0.093292 -0.0915723 -0.089308 -0.0865987 -0.0835418 -0.0802297 -0.0767708 -0.0746606 -0.0707147 -0.0665461 -0.0620815 -0.0573053 -0.0523035 -0.0473038 -0.0426767 -0.0388641 -0.0362411 -0.0349719 -0.0349491 -0.0358662 -0.037377 -0.0342847 -0.0340926 -0.0339427 -0.033846 -0.033819 -0.0338866 -0.0340843 -0.0344602 -0.035074 -0.0359946 -0.0372954 -0.0390307 -0.0398266 -0.0422031 -0.0451872 -0.0487909 -0.0529776 -0.0576551 -0.0626769 -0.0678534 -0.0729703 -0.0778105 -0.0821744 -0.0858938 -0.0889771 -0.0910865 -0.0923775 -0.0928391 -0.0924946 -0.0913981 -0.0896283 -0.0872803 -0.0844565 -0.0812585 -0.0777832 -0.0741488 -0.0722397 -0.0681279 -0.063831 -0.0592785 -0.0544449 -0.0493894 -0.0443007 -0.0395139 -0.0354622 -0.0325546 -0.031024 -0.0308326 -0.0317074 -0.0332937 -0.0350408 -0.0348593 -0.0347059 -0.0345827 -0.0344954 -0.0344576 -0.0344965 -0.0346571 -0.0350028 -0.035613 -0.0365765 -0.0379638 -0.0380842 -0.0401207 -0.0428017 -0.0461507 -0.0501408 -0.0546865 -0.0596448 -0.0648245 -0.0700052 -0.0749585 -0.0794696 -0.0833518 -0.0864344 -0.0886641 -0.0900554 -0.0905893 -0.0902824 -0.0891839 -0.0873697 -0.0849339 -0.081979 -0.0786067 -0.074914 -0.0710213 -0.0692532 -0.0648491 -0.0602701 -0.0554531 -0.0503727 -0.045077 -0.0397319 -0.0346491 -0.0302567 -0.0269911 -0.0251441 -0.0247445 -0.0255576 -0.0272232 -0.0356234 -0.0354672 -0.0353226 -0.0351801 -0.0350314 -0.0348767 -0.0347336 -0.0346446 -0.0346794 -0.0349322 -0.0355123 -0.0365114 -0.0359159 -0.0375869 -0.0399524 -0.0430466 -0.0468493 -0.0512792 -0.0561937 -0.0613992 -0.0666679 -0.0717602 -0.0764459 -0.0805216 -0.0835625 -0.0859413 -0.0874606 -0.0880925 -0.0878456 -0.0867628 -0.0849147 -0.0823917 -0.0792928 -0.0757161 -0.0717534 -0.0675172 -0.0658242 -0.0609952 -0.055969 -0.0506917 -0.0451458 -0.0393816 -0.0335589 -0.0279823 -0.023086 -0.0193374 -0.0170828 -0.0164134 -0.0171344 -0.0188818 -0.0360833 -0.0359706 -0.0358487 -0.0356936 -0.0354797 -0.0351