# vtk DataFile Version 2.0
Presion
ASCII

DATASET STRUCTURED_GRID
DIMENSIONS   50   50   20

POINTS   50000   double
0.00568455   0.00568455   0.025
0.0174023   0.00568455   0.025
0.0298294   0.00568455   0.025
0.0429888   0.00568455   0.025
0.0569012   0.00568455   0.025
0.0715849   0.00568455   0.025
0.0870549   0.00568455   0.025
0.103323   0.00568455   0.025
0.120395   0.00568455   0.025
0.138275   0.00568455   0.025
0.156961   0.00568455   0.025
0.176443   0.00568455   0.025
0.196707   0.00568455   0.025
0.217734   0.00568455   0.025
0.239496   0.00568455   0.025
0.261959   0.00568455   0.025
0.285082   0.00568455   0.025
0.308818   0.00568455   0.025
0.333113   0.00568455   0.025
0.357906   0.00568455   0.025
0.383132   0.00568455   0.025
0.408719   0.00568455   0.025
0.434592   0.00568455   0.025
0.460672   0.00568455   0.025
0.486877   0.00568455   0.025
0.513123   0.00568455   0.025
0.539328   0.00568455   0.025
0.565408   0.00568455   0.025
0.591281   0.00568455   0.025
0.616868   0.00568455   0.025
0.642094   0.00568455   0.025
0.666887   0.00568455   0.025
0.691182   0.00568455   0.025
0.714918   0.00568455   0.025
0.738041   0.00568455   0.025
0.760504   0.00568455   0.025
0.782266   0.00568455   0.025
0.803293   0.00568455   0.025
0.823557   0.00568455   0.025
0.843039   0.00568455   0.025
0.861725   0.00568455   0.025
0.879605   0.00568455   0.025
0.896677   0.00568455   0.025
0.912945   0.00568455   0.025
0.928415   0.00568455   0.025
0.943099   0.00568455   0.025
0.957011   0.00568455   0.025
0.970171   0.00568455   0.025
0.982598   0.00568455   0.025
0.994315   0.00568455   0.025
0.00568455   0.0174023   0.025
0.0174023   0.0174023   0.025
0.0298294   0.0174023   0.025
0.0429888   0.0174023   0.025
0.0569012   0.0174023   0.025
0.0715849   0.0174023   0.025
0.0870549   0.0174023   0.025
0.103323   0.0174023   0.025
0.120395   0.0174023   0.025
0.138275   0.0174023   0.025
0.156961   0.0174023   0.025
0.176443   0.0174023   0.025
0.196707   0.0174023   0.025
0.217734   0.0174023   0.025
0.239496   0.0174023   0.025
0.261959   0.0174023   0.025
0.285082   0.0174023   0.025
0.308818   0.0174023   0.025
0.333113   0.0174023   0.025
0.357906   0.0174023   0.025
0.383132   0.0174023   0.025
0.408719   0.0174023   0.025
0.434592   0.0174023   0.025
0.460672   0.0174023   0.025
0.486877   0.0174023   0.025
0.513123   0.0174023   0.025
0.539328   0.0174023   0.025
0.565408   0.0174023   0.025
0.591281   0.0174023   0.025
0.616868   0.0174023   0.025
0.642094   0.0174023   0.025
0.666887   0.0174023   0.025
0.691182   0.0174023   0.025
0.714918   0.0174023   0.025
0.738041   0.0174023   0.025
0.760504   0.0174023   0.025
0.782266   0.0174023   0.025
0.803293   0.0174023   0.025
0.823557   0.0174023   0.025
0.843039   0.0174023   0.025
0.861725   0.0174023   0.025
0.879605   0.0174023   0.025
0.896677   0.0174023   0.025
0.912945   0.0174023   0.025
0.928415   0.0174023   0.025
0.943099   0.0174023   0.025
0.957011   0.0174023   0.025
0.970171   0.0174023   0.025
0.982598   0.0174023   0.025
0.994315   0.0174023   0.025
0.00568455   0.0298294   0.025
0.0174023   0.0298294   0.025
0.0298294   0.0298294   0.025
0.0429888   0.0298294   0.025
0.0569012   0.0298294   0.025
0.0715849   0.0298294   0.025
0.0870549   0.0298294   0.025
0.103323   0.0298294   0.025
0.120395   0.0298294   0.025
0.138275   0.0298294   0.025
0.156961   0.0298294   0.025
0.176443   0.0298294   0.025
0.196707   0.0298294   0.025
0.217734   0.0298294   0.025
0.239496   0.0298294   0.025
0.261959   0.0298294   0.025
0.285082   0.0298294   0.025
0.308818   0.0298294   0.025
0.333113   0.0298294   0.025
0.357906   0.0298294   0.025
0.383132   0.0298294   0.025
0.408719   0.0298294   0.025
0.434592   0.0298294   0.025
0.460672   0.0298294   0.025
0.486877   0.0298294   0.025
0.513123   0.0298294   0.025
0.539328   0.0298294   0.025
0.565408   0.0298294   0.025
0.591281   0.0298294   0.025
0.616868   0.0298294   0.025
0.642094   0.0298294   0.025
0.666887   0.0298294   0.025
0.691182   0.0298294   0.025
0.714918   0.0298294   0.025
0.738041   0.0298294   0.025
0.760504   0.0298294   0.025
0.782266   0.0298294   0.025
0.803293   0.0298294   0.025
0.823557   0.0298294   0.025
0.843039   0.0298294   0.025
0.861725   0.0298294   0.025
0.879605   0.0298294   0.025
0.896677   0.0298294   0.025
0.912945   0.0298294   0.025
0.928415   0.0298294   0.025
0.943099   0.0298294   0.025
0.957011   0.0298294   0.025
0.970171   0.0298294   0.025
0.982598   0.0298294   0.025
0.994315   0.0298294   0.025
0.00568455   0.0429888   0.025
0.0174023   0.0429888   0.025
0.0298294   0.0429888   0.025
0.0429888   0.0429888   0.025
0.0569012   0.0429888   0.025
0.0715849   0.0429888   0.025
0.0870549   0.0429888   0.025
0.103323   0.0429888   0.025
0.120395   0.0429888   0.025
0.138275   0.0429888   0.025
0.156961   0.0429888   0.025
0.176443   0.0429888   0.025
0.196707   0.0429888   0.025
0.217734   0.0429888   0.025
0.239496   0.0429888   0.025
0.261959   0.0429888   0.025
0.285082   0.0429888   0.025
0.308818   0.0429888   0.025
0.333113   0.0429888   0.025
0.357906   0.0429888   0.025
0.383132   0.0429888   0.025
0.408719   0.0429888   0.025
0.434592   0.0429888   0.025
0.460672   0.0429888   0.025
0.486877   0.0429888   0.025
0.513123   0.0429888   0.025
0.539328   0.0429888   0.025
0.565408   0.0429888   0.025
0.591281   0.0429888   0.025
0.616868   0.0429888   0.025
0.642094   0.0429888   0.025
0.666887   0.0429888   0.025
0.691182   0.0429888   0.025
0.714918   0.0429888   0.025
0.738041   0.0429888   0.025
0.760504   0.0429888   0.025
0.782266   0.0429888   0.025
0.803293   0.0429888   0.025
0.823557   0.0429888   0.025
0.843039   0.0429888   0.025
0.861725   0.0429888   0.025
0.879605   0.0429888   0.025
0.896677   0.0429888   0.025
0.912945   0.0429888   0.025
0.928415   0.0429888   0.025
0.943099   0.0429888   0.025
0.957011   0.0429888   0.025
0.970171   0.0429888   0.025
0.982598   0.0429888   0.025
0.994315   0.0429888   0.025
0.00568455   0.0569012   0.025
0.0174023   0.0569012   0.025
0.0298294   0.0569012   0.025
0.0429888   0.0569012   0.025
0.0569012   0.0569012   0.025
0.0715849   0.0569012   0.025
0.0870549   0.0569012   0.025
0.103323   0.0569012   0.025
0.120395   0.0569012   0.025
0.138275   0.0569012   0.025
0.156961   0.0569012   0.025
0.176443   0.0569012   0.025
0.196707   0.0569012   0.025
0.217734   0.0569012   0.025
0.239496   0.0569012   0.025
0.261959   0.0569012   0.025
0.285082   0.0569012   0.025
0.308818   0.0569012   0.025
0.333113   0.0569012   0.025
0.357906   0.0569012   0.025
0.383132   0.0569012   0.025
0.408719   0.0569012   0.025
0.434592   0.0569012   0.025
0.460672   0.0569012   0.025
0.486877   0.0569012   0.025
0.513123   0.0569012   0.025
0.539328   0.0569012   0.025
0.565408   0.0569012   0.025
0.591281   0.0569012   0.025
0.616868   0.0569012   0.025
0.642094   0.0569012   0.025
0.666887   0.0569012   0.025
0.691182   0.0569012   0.025
0.714918   0.0569012   0.025
0.738041   0.0569012   0.025
0.760504   0.0569012   0.025
0.782266   0.0569012   0.025
0.803293   0.0569012   0.025
0.823557   0.0569012   0.025
0.843039   0.0569012   0.025
0.861725   0.0569012   0.025
0.879605   0.0569012   0.025
0.896677   0.0569012   0.025
0.912945   0.0569012   0.025
0.928415   0.0569012   0.025
0.943099   0.0569012   0.025
0.957011   0.0569012   0.025
0.970171   0.0569012   0.025
0.982598   0.0569012   0.025
0.994315   0.0569012   0.025
0.00568455   0.0715849   0.025
0.0174023   0.0715849   0.025
0.0298294   0.0715849   0.025
0.0429888   0.0715849   0.025
0.0569012   0.0715849   0.025
0.0715849   0.0715849   0.025
0.0870549   0.0715849   0.025
0.103323   0.0715849   0.025
0.120395   0.0715849   0.025
0.138275   0.0715849   0.025
0.156961   0.0715849   0.025
0.176443   0.0715849   0.025
0.196707   0.0715849   0.025
0.217734   0.0715849   0.025
0.239496   0.0715849   0.025
0.261959   0.0715849   0.025
0.285082   0.0715849   0.025
0.308818   0.0715849   0.025
0.333113   0.0715849   0.025
0.357906   0.0715849   0.025
0.383132   0.0715849   0.025
0.408719   0.0715849   0.025
0.434592   0.0715849   0.025
0.460672   0.0715849   0.025
0.486877   0.0715849   0.025
0.513123   0.0715849   0.025
0.539328   0.0715849   0.025
0.565408   0.0715849   0.025
0.591281   0.0715849   0.025
0.616868   0.0715849   0.025
0.642094   0.0715849   0.025
0.666887   0.0715849   0.025
0.691182   0.0715849   0.025
0.714918   0.0715849   0.025
0.738041   0.0715849   0.025
0.760504   0.0715849   0.025
0.782266   0.0715849   0.025
0.803293   0.0715849   0.025
0.823557   0.0715849   0.025
0.843039   0.0715849   0.025
0.861725   0.0715849   0.025
0.879605   0.0715849   0.025
0.896677   0.0715849   0.025
0.912945   0.0715849   0.025
0.928415   0.0715849   0.025
0.943099   0.0715849   0.025
0.957011   0.0715849   0.025
0.970171   0.0715849   0.025
0.982598   0.0715849   0.025
0.994315   0.0715849   0.025
0.00568455   0.0870549   0.025
0.0174023   0.0870549   0.025
0.0298294   0.0870549   0.025
0.0429888   0.0870549   0.025
0.0569012   0.0870549   0.025
0.0715849   0.0870549   0.025
0.0870549   0.0870549   0.025
0.103323   0.0870549   0.025
0.120395   0.0870549   0.025
0.138275   0.0870549   0.025
0.156961   0.0870549   0.025
0.176443   0.0870549   0.025
0.196707   0.0870549   0.025
0.217734   0.0870549   0.025
0.239496   0.0870549   0.025
0.261959   0.0870549   0.025
0.285082   0.0870549   0.025
0.308818   0.0870549   0.025
0.333113   0.0870549   0.025
0.357906   0.0870549   0.025
0.383132   0.0870549   0.025
0.408719   0.0870549   0.025
0.434592   0.0870549   0.025
0.460672   0.0870549   0.025
0.486877   0.0870549   0.025
0.513123   0.0870549   0.025
0.539328   0.0870549   0.025
0.565408   0.0870549   0.025
0.591281   0.0870549   0.025
0.616868   0.0870549   0.025
0.642094   0.0870549   0.025
0.666887   0.0870549   0.025
0.691182   0.0870549   0.025
0.714918   0.0870549   0.025
0.738041   0.0870549   0.025
0.760504   0.0870549   0.025
0.782266   0.0870549   0.025
[...]
POINT_DATA   50000
SCALARS Presion double
LOOKUP_TABLE   Presion

0 0 0 0 0 0 0 0 0 0 0 0 0 0 0 0 0 0 0 0 0 0 0 0 0 0 0 0 0 0 0 0 0 0 0 0 0 0 0 0 0 0 0 0 0 0 0 0 0 0 0.00138127 0.00150178 0.00164613 0.00174899 0.00179916 0.00179834 0.00175097 0.00166165 0.00153445 0.00137259 0.00117816 0.000951556 0.000561752 0.000336845 0.000140299 -2.72281e-05 -0.000162556 -0.00025958 -0.000310773 -0.000309179 -0.000250483 -0.000134793 3.24249e-05 0.000240393 0.000462971 0.000679699 0.0008636 0.000991038 0.00104308 0.00100745 0.000880115 0.000665956 0.00037853 3.90128e-05 -0.000325567 -0.000683686 -0.00091404 -0.00124807 -0.00156018 -0.00183376 -0.00205864 -0.0022292 -0.0023425 -0.00239715 -0.00239248 -0.00232814 -0.00220436 -0.00202455 -0.00180766 -0.00163875 0.0018194 0.00180813 0.00184663 0.00188554 0.00190081 0.00188292 0.00182929 0.00174046 0.00161832 0.00146532 0.0012846 0.00107874 0.00063234 0.000430266 0.000245322 8.27565e-05 -5.21638e-05 -0.000152708 -0.000211383 -0.000221474 -0.000178844 -8.35474e-05 5.91972e-05 0.000237559 0.000435921 0.000624919 0.000782845 0.000887386 0.000920723 0.000871427 0.000735939 0.000519178 0.000234152 -9.94327e-05 -0.000457591 -0.000812874 -0.000977863 -0.0013096 -0.00161214 -0.00187437 -0.00208907 -0.00225243 -0.00236305 -0.0024213 -0.00242913 -0.00239057 -0.0023135 -0.002214 -0.00212536 -0.00211148 0.00212056 0.00207606 0.00206063 0.00205292 0.00203555 0.00199772 0.0019339 0.00184202 0.00172219 0.00157602 0.00140686 0.00121666 0.000705575 0.000522839 0.000348446 0.000189491 5.26308e-05 -5.47629e-05 -0.000124977 -0.000151157 -0.000128865 -5.75898e-05 5.81062e-05 0.00020538 0.000383369 0.000549917 0.00068828 0.000777052 0.000798623 0.000741324 0.000601127 0.000382375 9.73425e-05 -0.000235432 -0.000593987 -0.000952133 -0.00104726 -0.00138153 -0.00167982 -0.00193519 -0.00214353 -0.00230321 -0.00241463 -0.00247995 -0.00250322 -0.00249103 -0.00245389 -0.00240821 -0.00237787 -0.00239138 0.00237339 0.00231951 0.00227686 0.00223842 0.00219485 0.00213812 0.00206271 0.00196557 0.0018457 0.00170395 0.00154337 0.0013642 0.000783162 0.000614707 0.000447608 0.000289122 0.000146505 2.75965e-05 -5.95001e-05 -0.000107407 -0.000110843 -6.8104e-05 1.75553e-05 0.000132915 0.000292336 0.000441783 0.000567219 0.000647872 0.000665509 0.000607179 0.000467391 0.000249161 -3.63271e-05 -0.000371534 -0.000735651 -0.00110191 -0.00112602 -0.00146691 -0.00176537 -0.00201796 -0.0022236 -0.00238289 -0.00249793 -0.00257226 -0.00261103 -0.00262135 -0.00261269 -0.002597 -0.00258741 -0.00259418 0.00261795 0.00255581 0.00249573 0.00243596 0.00237208 0.00229895 0.00221215 0.00210859 0.00198674 0.0018468 0.00169126 0.00151809 0.00086417 0.000703765 0.000538621 0.000375347 0.000221176 8.41914e-05 -2.69868e-05 -0.00010406 -0.000140307 -0.000132082 -8.0457e-05 1.91691e-06 0.000143293 0.000280375 0.00039948 0.000480269 0.000503104 0.000452711 0.000321021 0.000108756 -0.000174615 -0.000512665 -0.000885174 -0.00126347 -0.00121837 -0.00156901 -0.00187094 -0.00212416 -0.00233037 -0.00249219 -0.00261304 -0.00269728 -0.00275021 -0.00277814 -0.00278823 -0.002788 -0.00278395 -0.00277948 0.00286971 0.00279487 0.00271907 0.00264206 0.00256164 0.00247446 0.00237707 0.00226654 0.002141 0.00200003 0.00184538 0.00167249 0.000944712 0.000784834 0.000614164 0.000438386 0.000264321 0.000100131 -4.49155e-05 -0.000161181 -0.000239842 -0.000274463 -0.000262879 -0.000216056 -9.20222e-05 3.58315e-05 0.00015476 0.000244614 0.000283596 0.000252993 0.000140855 -5.56824e-05 -0.000329906 -0.000667024 -0.00104728 -0.00143919 -0.00132977 -0.0016915 -0.00199862 -0.00225483 -0.00246437 -0.00263133 -0.00275993 -0.00285471 -0.0029205 -0.00296237 -0.00298531 -0.00299386 -0.00299133 -0.00297916 0.00313128 0.00303866 0.00294571 0.00285242 0.00275726 0.0026576 0.00255029 0.00243232 0.00230131 0.00215608 0.00199743 0.0018181 0.0010171 0.000848618 0.000662571 0.000463695 0.000258223 5.43304e-05 -0.000137887 -0.000306992 -0.000441346 -0.000530783 -0.000568729 -0.000563227 -0.000453564 -0.000334735 -0.000210913 -0.000102424 -3.40002e-05 -2.90068e-05 -0.000104866 -0.000269777 -0.000521374 -0.000847627 -0.00122968 -0.00163282 -0.00146789 -0.00183881 -0.00215041 -0.00241062 -0.00262563 -0.00280023 -0.00293869 -0.00304513 -0.00312359 -0.00317787 -0.00321141 -0.00322708 -0.00322693 -0.00321212 0.00339714 0.00328221 0.00316977 0.00305965 0.00295025 0.00283879 0.00272176 0.00259552 0.00245682 0.00230343 0.00213486 0.00194107 0.00106869 0.000880435 0.000666416 0.000430462 0.000178166 -8.22399e-05 -0.00033958 -0.000580112 -0.000788618 -0.000950208 -0.00105264 -0.00109967 -0.000996775 -0.000891409 -0.000759706 -0.000622701 -0.000508803 -0.000447363 -0.000463196 -0.000572147 -0.00077852 -0.00107497 -0.00144473 -0.00185015 -0.00164416 -0.00201693 -0.00232871 -0.00259201 -0.00281394 -0.00299876 -0.00314978 -0.00327006 -0.00336255 -0.00342994 -0.00347464 -0.00349866 -0.00350369 -0.00349112 0.00365499 0.00351404 0.0033798 0.00325182 0.00312795 0.00300465 0.00287743 0.00274144 0.00259205 0.00242554 0.00223978 0.00202183 0.00108048 0.0008588 0.000600993 0.000309972 -9.30031e-06 -0.000348416 -0.000694808 -0.00103187 -0.00134001 -0.00159856 -0.00178835 -0.00190721 -0.00179705 -0.00171623 -0.00157722 -0.00140232 -0.00122422 -0.00107962 -0.00100293 -0.00102054 -0.00114663 -0.00138149 -0.00171263 -0.00210087 -0.0018764 -0.002235 -0.00253734 -0.00280013 -0.00302946 -0.00322718 -0.00339426 -0.00353186 -0.00364146 -0.00372465 -0.00378307 -0.00381834 -0.00383209 -0.00382606 0.00388596 0.00371613 0.00355823 0.00341135 0.00327246 0.00313674 0.00299812 0.00284999 0.00268582 0.00249985 0.00228788 0.002034 0.00102574 0.000754017 0.000432837 6.40719e-05 -0.000347959 -0.000794521 -0.0012613 -0.00172822 -0.00217046 -0.00256049 -0.00287095 -0.00309178 -0.00295411 -0.0029176 -0.00277734 -0.0025572 -0.00229436 -0.00203399 -0.00182239 -0.00169987 -0.00169452 -0.00181843 -0.00206695 -0.00240255 -0.00219321 -0.00250839 -0.00278388 -0.00303853 -0.00327405 -0.00348711 -0.00367444 -0.00383409 -0.00396542 -0.00406874 -0.00414493 -0.00419534 -0.00422167 -0.00422597 0.00406422 0.00386363 0.00368083 0.0035143 0.00335972 0.00321053 0.00305856 0.00289484 0.00271038 0.00249692 0.00224759 0.00194349 0.000868852 0.00052706 0.000118626 -0.000355913 -0.000892958 -0.0014833 -0.00211049 -0.00275034 -0.00337184 -0.00393944 -0.00441639 -0.00478214 -0.00459457 -0.00463228 -0.00450447 -0.00423606 -0.00386826 -0.0034552 -0.00305694 -0.00273103 -0.00252419 -0.00246562 -0.00256365 -0.00278829 -0.00264081 -0.00286403 -0.00308395 -0.00331644 -0.00355362 -0.00378319 -0.00399496 -0.00418219 -0.00434112 -0.00447018 -0.00456932 -0.00463951 -0.00468249 -0.00470061 0.0041568 0.00392467 0.00371654 0.00352998 0.00335904 0.0031949 0.00302676 0.00284279 0.00263099 0.00237999 0.00207974 0.00170826 0.000564765 0.000129162 -0.00039509 -0.00100925 -0.00171059 -0.00248931 -0.00332636 -0.00419268 -0.00505 -0.00585344 -0.00655555 -0.00712201 -0.0068697 -0.00702159 -0.00692923 -0.00661672 -0.00612778 -0.00552481 -0.00488226 -0.00427751 -0.00378034 -0.00344315 -0.00329392 -0.0033199 -0.00329246 -0.00334876 -0.00346806 -0.00365392 -0.00388186 -0.00412562 -0.0043646 -0.00458481 -0.00477778 -0.00493912 -0.00506726 -0.00516253 -0.00522658 -0.00526198 0.0041239 0.00386075 0.00362774 0.00342127 0.00323328 0.00305225 0.00286424 0.00265403 0.00240609 0.0021054 0.00173808 0.00127898 5.95481e-05 -0.000497343 -0.00117068 -0.00196409 -0.00287594 -0.00389564 -0.00500097 -0.00615698 -0.00731682 -0.00842467 -0.00942088 -0.0102534 -0.00994394 -0.0102574 -0.0102328 -0.00989029 -0.00927322 -0.0084498 -0.00750748 -0.00654389 -0.00565493 -0.00492182 -0.00439981 -0.00410742 -0.0042588 -0.00403988 -0.00399041 -0.00408848 -0.00428486 -0.0045334 -0.00479848 -0.00505537 -0.00528847 -0.00548896 -0.00565279 -0.00577912 -0.00586923 -0.00592577 0.00392006 0.0036279 0.0033715 0.0031457 0.00293997 0.00273963 0.00252711 0.00228335 0.00198879 0.00162419 0.00117118 0.000601204 -0.000707352 -0.00141628 -0.00227605 -0.00329328 -0.00446755 -0.00578709 -0.00722564 -0.00874102 -0.010276 -0.0117618 -0.0131247 -0.0142909 -0.0139704 -0.014494 -0.0145765 -0.0142293 -0.0134918 -0.0124335 -0.0111506 -0.00975844 -0.00837866 -0.00712481 -0.00608657 -0.00533157 -0.00569363 -0.00505452 -0.00473748 -0.00468175 -0.00480595 -0.00503764 -0.00532028 -0.00561361 -0.00589121 -0.00613735 -0.00634391 -0.00650797 -0.00662994 -0.0067124 0.00349653 0.00317905 0.00290183 0.00265783 0.00243367 0.0022111 0.00196858 0.00168277 0.00132962 0.000885147 0.000325859 -0.000380615 -0.00179859 -0.00269241 -0.00377853 -0.00506699 -0.00655841 -0.00823913 -0.0100775 -0.012022 -0.0140029 -0.0159361 -0.0177315 -0.01929 -0.0190522 -0.0198273 -0.0200573 -0.0197409 -0.0189089 -0.0176267 -0.0159926 -0.0141326 -0.0121897 -0.0103091 -0.00861938 -0.00725641 -0.00778536 -0.00655053 -0.00583181 -0.00552383 -0.00550952 -0.00568439 -0.00596424 -0.00628684 -0.00660981 -0.00690674 -0.00716301 -0.00737212 -0.00753285 -0.00764728 0.00280493 0.0024676 0.00217326 0.00191273 0.00166949 0.00142145 0.00114279 0.000805582 0.000380925 -0.000160372 -0.00084748 -0.00171719 -0.00327189 -0.0043836 -0.0057359 -0.00734227 -0.00920377 -0.0113035 -0.0136022 -0.016037 -0.0185222 -0.0209562 -0.0232304 -0.0252183 -0.0251975 -0.0262487 -0.0266598 -0.0264149 -0.0255325 -0.024068 -0.0221141 -0.0197981 -0.017275 -0.0147151 -0.0122864 -0.0102077 -0.010725 -0.00871087 -0.00742638 -0.00673304 -0.00648279 -0.00653669 -0.00677657 -0.00711075 -0.00747412 -0.00782433 -0.00813659 -0.00839855 -0.00860607 -0.00876016 0.00180215 0.00145216 0.00114557 0.000870798 0.000608027 0.000331172 9.98953e-06 -0.0003882 -0.000897378 -0.00155227 -0.00238811 -0.00344679 -0.00517087 -0.00653084 -0.00818533 -0.0101507 -0.0124272 -0.0149924 -0.0177973 -0.0207638 -0.0237884 -0.0267491 -0.0295172 -0.031941 -0.0322831 -0.0336123 -0.034224 -0.0340884 -0.0332108 -0.0316335 -0.0294364 -0.0267378 -0.0236926 -0.0204853 -0.0173169 -0.0144931 -0.0146537 -0.0117098 -0.00968743 -0.00844953 -0.00783482 -0.00767542 -0.00781645 -0.00812988 -0.00851992 -0.00892141 -0.00929427 -0.0096169 -0.00988027 -0.0100833 0.000456057 0.000102171 -0.000210765 -0.000496815 -0.000779161 -0.00108785 -0.00145753 -0.00192562 -0.00253124 -0.00331472 -0.00431751 -0.00558717 -0.00751491 -0.00914754 -0.011132 -0.0134864 -0.0162078 -0.0192662 -0.022599 -0.0261107 -0.029677 -0.0331546 -0.0363952 -0.039227 -0.0400482 -0.041634 -0.0424465 -0.042447 -0.0416297 -0.0400237 -0.0376931 -0.0347395 -0.0313055 -0.0275755 -0.0237711 -0.0202699 -0.019611 -0.0156695 -0.0127672 -0.0108212 -0.00969078 -0.00919778 -0.00915598 -0.0093975 -0.00978827 -0.0102322 -0.0106671 -0.0110574 -0.0113862 -0.0116489 -0.00124872 -0.00159656 -0.00190901 -0.00220264 -0.00250389 -0.00284658 -0.00326953 -0.0038147 -0.00452615 -0.00544963 -0.00663254 -0.00812836 -0.0102902 -0.0122106 -0.0145404 -0.0172973 -0.0204732 -0.0240271 -0.0278802 -0.0319169 -0.0359915 -0.0399401 -0.0435969 -0.0467787 -0.0481295 -0.0499325 -0.0509274 -0.0510731 -0.0503588 -0.0488046 -0.0464594 -0.0434052 -0.0397636 -0.035705 -0.0314534 -0.0274226 -0.0255114 -0.0206224 -0.0167701 -0.0139799 -0.0121785 -0.0112109 -0.0108773 -0.010974 -0.0113239 -0.0117915 -0.0122848 -0.0127477 -0.0131514 -0.0134852 -0.00330597 -0.00363718 -0.00394164 -0.00423838 -0.0045568 -0.00493417 -0.00541311 -0.00603966 -0.00686236 -0.00793187 -0.00930086 -0.0110284 -0.0134445 -0.0156556 -0.0183302 -0.0214836 -0.0250996 -0.0291236 -0.0334588 -0.0379685 -0.042486 -0.0468299 -0.0508215 -0.0542757 -0.0561295 -0.0581005 -0.0592447 -0.0595262 -0.0589367 -0.0574932 -0.0552343 -0.0522242 -0.0485604 -0.0443881 -0.0399137 -0.0355374 -0.0321548 -0.0264877 -0.0217164 -0.0180087 -0.0154048 -0.0138172 -0.0130645 -0.012922 -0.0131714 -0.0136318 -0.0141723 -0.0147091 -0.0151957 -0.0156121 -0.00568513 -0.00598916 -0.00627781 -0.00657237 -0.0069049 -0.00731562 -0.00785035 -0.00855867 -0.00949286 -0.0107076 -0.0122599 -0.0142133 -0.0168872 -0.0193783 -0.0223802 -0.0259032 -0.0299213 -0.0343649 -0.0391179 -0.0440237 -0.0488972 -0.0535435 -0.0577773 -0.0614199 -0.0636899 -0.0657782 -0.0670313 -0.0674247 -0.066959 -0.0656542 -0.0635453 -0.0606838 -0.0571451 -0.0530435 -0.0485507 -0.0440057 -0.0392563 -0.0330661 -0.0275129 -0.0229047 -0.0194229 -0.0170913 -0.0157883 -0.0152969 -0.0153689 -0.015777 -0.0163444 -0.0169507 -0.0175256 -0.0180353 -0.0083314 -0.00859846 -0.00886354 -0.00914997 -0.009492 -0.00993227 -0.0105192 -0.011305 -0.012345 -0.0136966 -0.0154198 -0.0175813 -0.020496 -0.0232426 -0.0265376 -0.0303851 -0.034748 -0.0395411 -0.0446307 -0.0498422 -0.0549762 -0.0598294 -0.0642157 -0.0679681 -0.0705421 -0.0727014 -0.0740231 -0.0744971 -0.0741364 -0.0729688 -0.0710314 -0.0683694 -0.0650417 -0.0611325 -0.0567698 -0.0522016 -0.0464788 -0.0400529 -0.0339406 -0.0285495 -0.0241984 -0.0210497 -0.0190841 -0.0181314 -0.017937 -0.0182346 -0.018798 -0.0194631 -0.0201278 -0.0207395 -0.0111691 -0.0113909 -0.0116252 -0.011897 -0.0122424 -0.0127059 -0.0133376 -0.0141918 -0.0153256 -0.0167983 -0.0186711 -0.0210117 -0.0241281 -0.0270932 -0.0306337 -0.0347465 -0.0393837 -0.0444459 -0.0497839 -0.0552092 -0.0605127 -0.0654872 -0.0699499 -0.0737482 -0.0765209 -0.0787133 -0.0800689 -0.080592 -0.0803085 -0.0792558 -0.0774768 -0.0750168 -0.0719249 -0.0682614 -0.0641117 -0.0596295 -0.053467 -0.0470734 -0.0406712 -0.034702 -0.0295856 -0.0256228 -0.0229274 -0.0214169 -0.0208653 -0.0209853 -0.0215046 -0.0222103 -0.0229614 -0.0236808 -0.0141081 -0.0142785 -0.0144757 -0.0147263 -0.0150677 -0.0155454 -0.016211 -0.0171197 -0.0183295 -0.0199004 -0.0218936 -0.0243756 -0.0276343 -0.0307712 -0.0344997 -0.0388102 -0.0436452 -0.0488939 -0.0543954 -0.0599513 -0.0653468 -0.0703748 -0.0748575 -0.0786566 -0.0815495 -0.0837472 -0.0851112 -0.0856571 -0.0854216 -0.0844516 -0.0827977 -0.0805093 -0.0776329 -0.0742141 -0.0703054 -0.0659837 -0.0598865 -0.0537368 -0.0473122 -0.0410215 -0.0353274 -0.03064 -0.0272129 -0.0250853 -0.0240984 -0.0239725 -0.0244013 -0.0251228 -0.0259519 -0.0267811 -0.0170522 -0.0171674 -0.0173228 -0.0175458 -0.0178747 -0.0183557 -0.019041 -0.0199862 -0.0212493 -0.0228899 -0.0249682 -0.0275473 -0.0308725 -0.0341277 -0.0379815 -0.0424192 -0.0473762 -0.0527338 -0.0583234 -0.0639412 -0.0693699 -0.0744042 -0.0788719 -0.0826457 -0.0856114 -0.0877971 -0.0891538 -0.0897039 -0.0894915 -0.0885715 -0.0870024 -0.0848401 -0.0821344 -0.0789258 -0.0752481 -0.0711298 -0.0654624 -0.0596936 -0.0534696 -0.0471182 -0.041084 -0.0358365 -0.0317492 -0.0289973 -0.0275248 -0.0270937 -0.0273845 -0.0280928 -0.0289869 -0.0299239 -0.0199082 -0.0199674 -0.0200778 -0.0202675 -0.020575 -0.0210469 -0.0217353 -0.0226955 -0.0239851 -0.0256625 -0.027786 -0.0304144 -0.0337192 -0.0370355 -0.0409504 -0.0454462 -0.0504545 -0.0558526 -0.0614685 -0.0670962 -0.0725184 -0.0775319 -0.0819685 -0.0857079 -0.0887244 -0.0908905 -0.0922331 -0.0927765 -0.0925691 -0.0916713 -0.0901488 -0.0880656 -0.085478 -0.0824304 -0.0789513 -0.0750491 -0.0700049 -0.0646783 -0.0588067 -0.0526152 -0.0464835 -0.0408844 -0.0362706 -0.0329447 -0.0309742 -0.0301968 -0.0303074 -0.0309722 -0.031915 -0.0329546 -0.0225942 -0.0225991 -0.0226635 -0.0228153 -0.023093 -0.0235425 -0.0242154 -0.0251668 -0.026453 -0.0281311 -0.0302573 -0.0328852 -0.0360772 -0.0393962 -0.0433092 -0.0477984 -0.052795 -0.0581763 -0.0637704 -0.0693721 -0.074765 -0.0797473 -0.0841521 -0.0878613 -0.0909225 -0.0930698 -0.0943986 -0.0949315 -0.0947177 -0.0938214 -0.0923141 -0.0902681 -0.0877491 -0.0848101 -0.0814856 -0.077786 -0.0734144 -0.0685264 -0.0630799 -0.0571997 -0.0511759 -0.0454378 -0.0404675 -0.0366652 -0.0342245 -0.0330842 -0.0329829 -0.0335763 -0.0345505 -0.035685 -0.0250461 -0.0250011 -0.0250203 -0.0251312 -0.025371 -0.0257848 -0.0264231 -0.0273399 -0.0285906 -0.0302311 -0.0323157 -0.034893 -0.0378785 -0.0411425 -0.0449941 -0.0494178 -0.0543484 -0.0596664 -0.0652034 -0.0707564 -0.0761108 -0.0810641 -0.0854475 -0.0891405 -0.0922478 -0.0943837 -0.0957045 -0.0962284 -0.0960028 -0.0950939 -0.0935783 -0.0915358 -0.0890424 -0.0861627 -0.0829439 -0.079412 -0.0756694 -0.0711678 -0.066148 -0.0606521 -0.0548767 -0.0491785 -0.0440235 -0.039869 -0.0370184 -0.0355233 -0.0351916 -0.0356908 -0.0366797 -0.0379008 -0.027221 -0.0271326 -0.0271097 -0.0271783 -0.0273737 -0.0277389 -0.028323 -0.0291786 -0.0303603 -0.031923 -0.0339206 -0.0363974 -0.0390852 -0.0422385 -0.0459732 -0.0502793 -0.0550978 -0.060316 -0.0657707 -0.0712631 -0.0765792 -0.0815143 -0.0858946 -0.0895919 -0.0927478 -0.094885 -0.0962078 -0.0967282 -0.0964904 -0.0955608 -0.09402 -0.091955 -0.0894515 -0.0865866 -0.0834224 -0.0800081 -0.0768069 -0.0726075 -0.0679606 -0.062849 -0.0573869 -0.0518484 -0.0466512 -0.0422686 -0.0390849 -0.0372617 -0.0366936 -0.0370816 -0.0380709 -0.0393714 -0.0290984 -0.0289749 -0.0289147 -0.0289414 -0.0290873 -0.0293923 -0.0299029 -0.0306702 -0.0317481 -0.0331919 -0.0350561 -0.037383 -0.0396869 -0.0426761 -0.0462434 -0.0503864 -0.055055 -0.0601452 -0.0655013 -0.0709284 -0.076213 -0.0811464 -0.0855463 -0.089273 -0.0924771 -0.0946326 -0.0959707 -0.0964967 -0.0962502 -0.0952967 -0.0937195 -0.091612 -0.0890687 -0.0861781 -0.0830173 -0.0796596 -0.0769026 -0.0729028 -0.0685367 -0.0637503 -0.0585943 -0.0532648 -0.0481156 -0.0436032 -0.0401602 -0.0380428 -0.0372402 -0.0375049 -0.0384833 -0.0398581 -0.0306782 -0.0305293 -0.0304384 -0.0304254 -0.0305183 -0.0307525 -0.031171 -0.0318226 -0.0327613 -0.0340438 -0.0357275 -0.0378559 -0.0396961 -0.0424712 -0.0458259 -0.0497672 -0.0542559 -0.059198 -0.0644458 -0.0698089 -0.0750732 -0.0800243 -0.0844693 -0.0882533 -0.0914993 -0.0936935 -0.0950637 -0.0956077 -0.0953597 -0.0943833 -0.0927634 -0.0905983 -0.0879899 -0.0850363 -0.0818272 -0.0784576 -0.0760567 -0.0721445 -0.0679426 -0.0633787 -0.0584599 -0.0533185 -0.0482429 -0.0436536 -0.0400022 -0.0376182 -0.0365833 -0.0367144 -0.0376722 -0.0391195 -0.0319777 -0.0318142 -0.0317005 -0.0316517 -0.0316897 -0.0318438 -0.0321518 -0.0326601 -0.0334232 -0.0345011 -0.0359569 -0.0378386 -0.0391438 -0.0416587 -0.0447614 -0.0484701 -0.0527569 -0.0575383 -0.0626748 -0.0679798 -0.073238 -0.0782278 -0.0827444 -0.0866155 -0.0898889 -0.0921454 -0.0935675 -0.0941454 -0.0939072 -0.0929132 -0.0912487 -0.0890151 -0.0863199 -0.0832682 -0.0799586 -0.0765035 -0.0743847 -0.0704428 -0.0662732 -0.0617979 -0.0569984 -0.0519609 -0.0469172 -0.0422458 -0.0383976 -0.035754 -0.0344802 -0.0344637 -0.0353916 -0.0369122 -0.0330275 -0.032861 -0.0327337 -0.0326543 -0.0326365 -0.0327016 -0.0328808 -0.0332175 -0.0337674 -0.0345963 -0.0357767 -0.0373655 -0.0380739 -0.0402873 -0.0431061 -0.0465597 -0.0506314 -0.0552477 -0.0602763 -0.0655336 -0.0708021 -0.0758526 -0.0804673 -0.0844558 -0.0877323 -0.0900772 -0.0915743 -0.0922057 -0.0919926 -0.090991 -0.0892846 -0.0869759 -0.0841754 -0.0809923 -0.0775299 -0.073911 -0.0720116 -0.0679189 -0.0636383 -0.0590944 -0.0542575 -0.0491848 -0.0440669 -0.0392447 -0.0351601 -0.0322303 -0.0306919 -0.0305048 -0.0313901 -0.0329873 -0.0338667 -0.0337102 -0.0335797 -0.0334758 -0.0334018 -0.0333684 -0.0333991 -0.033534 -0.0338316 -0.0343667 -0.035225 -0.0364771 -0.0365385 -0.0384161 -0.0409275 -0.0441133 -0.0479666 -0.0524221 -0.057353 -0.0625777 -0.0678755 -0.073009 -0.0777475 -0.0818835 -0.0851279 -0.0875888 -0.0891867 -0.0898947 -0.0897262 -0.0887314 -0.0869906 -0.0846047 -0.0816842 -0.0783385 -0.074671 -0.0708066 -0.0690666 -0.0646972 -0.0601519 -0.0553626 -0.0502988 -0.0450051 -0.0396472 -0.0345407 -0.0301213 -0.0268344 -0.0249779 -0.0245811 -0.0254045 -0.027082 -0.0345402 -0.0344083 -0.0342866 -0.0341647 -0.034033 -0.0338894 -0.0337486 -0.0336481 -0.0336521 -0.033848 -0.0343399 -0.0352166 -0.0345947 -0.0361108 -0.0383017 -0.041218 -0.0448602 -0.0491686 -0.0540195 -0.0592313 -0.0645797 -0.0698191 -0.0747058 -0.0790176 -0.0821844 -0.0847892 -0.0865152 -0.0873255 -0.0872245 -0.0862551 -0.0844918 -0.0820311 -0.0789795 -0.0754426 -0.0715189 -0.0673253 -0.0656779 -0.0608999 -0.0559251 -0.0506941 -0.0451841 -0.0394406 -0.0336218 -0.0280341 -0.0231183 -0.0193509 -0.017086 -0.016418 -0.0171489 -0.0189093 -0.0350959 -0.03