# vtk DataFile Version 2.0
Velocidades
ASCII

DATASET STRUCTURED_GRID
DIMENSIONS   50   50   20

POINTS   50000   double
0.00568455   0.00568455   0.025
0.0174023   0.00568455   0.025
0.0298294   0.00568455   0.025
0.0429888   0.00568455   0.025
0.0569012   0.00568455   0.025
0.0715849   0.00568455   0.025
0.0870549   0.00568455   0.025
0.103323   0.00568455   0.025
0.120395   0.00568455   0.025
0.138275   0.00568455   0.025
0.156961   0.00568455   0.025
0.176443   0.00568455   0.025
0.196707   0.00568455   0.025
0.217734   0.00568455   0.025
0.239496   0.00568455   0.025
0.261959   0.00568455   0.025
0.285082   0.00568455   0.025
0.308818   0.00568455   0.025
0.333113   0.00568455   0.025
0.357906   0.00568455   0.025
0.383132   0.00568455   0.025
0.408719   0.00568455   0.025
0.434592   0.00568455   0.025
0.460672   0.00568455   0.025
0.486877   0.00568455   0.025
0.513123   0.00568455   0.025
0.539328   0.00568455   0.025
0.565408   0.00568455   0.025
0.591281   0.00568455   0.025
0.616868   0.00568455   0.025
0.642094   0.00568455   0.025
0.666887   0.00568455   0.025
0.691182   0.00568455   0.025
0.714918   0.00568455   0.025
0.738041   0.00568455   0.025
0.760504   0.00568455   0.025
0.782266   0.00568455   0.025
0.803293   0.00568455   0.025
0.823557   0.00568455   0.025
0.843039   0.00568455   0.025
0.861725   0.00568455   0.025
0.879605   0.00568455   0.025
0.896677   0.00568455   0.025
0.912945   0.00568455   0.025
0.928415   0.00568455   0.025
0.943099   0.00568455   0.025
0.957011   0.00568455   0.025
0.970171   0.00568455   0.025
0.982598   0.00568455   0.025
0.994315   0.00568455   0.025
0.00568455   0.0174023   0.025
0.0174023   0.0174023   0.025
0.0298294   0.0174023   0.025
0.0429888   0.0174023   0.025
0.0569012   0.0174023   0.025
0.0715849   0.0174023   0.025
0.0870549   0.0174023   0.025
0.103323   0.0174023   0.025
0.120395   0.0174023   0.025
0.138275   0.0174023   0.025
0.156961   0.0174023   0.025
0.176443   0.0174023   0.025
0.196707   0.0174023   0.025
0.217734   0.0174023   0.025
0.239496   0.0174023   0.025
0.261959   0.0174023   0.025
0.285082   0.0174023   0.025
0.308818   0.0174023   0.025
0.333113   0.0174023   0.025
0.357906   0.0174023   0.025
0.383132   0.0174023   0.025
0.408719   0.0174023   0.025
0.434592   0.0174023   0.025
0.460672   0.0174023   0.025
0.486877   0.0174023   0.025
0.513123   0.0174023   0.025
0.539328   0.0174023   0.025
0.565408   0.0174023   0.025
0.591281   0.0174023   0.025
0.616868   0.0174023   0.025
0.642094   0.0174023   0.025
0.666887   0.0174023   0.025
0.691182   0.0174023   0.025
0.714918   0.0174023   0.025
0.738041   0.0174023   0.025
0.760504   0.0174023   0.025
0.782266   0.0174023   0.025
0.803293   0.0174023   0.025
0.823557   0.0174023   0.025
0.843039   0.0174023   0.025
0.861725   0.0174023   0.025
0.879605   0.0174023   0.025
0.896677   0.0174023   0.025
0.912945   0.0174023   0.025
0.928415   0.0174023   0.025
0.943099   0.0174023   0.025
0.957011   0.0174023   0.025
0.970171   0.0174023   0.025
0.982598   0.0174023   0.025
0.994315   0.0174023   0.025
0.00568455   0.0298294   0.025
0.0174023   0.0298294   0.025
0.0298294   0.0298294   0.025
0.0429888   0.0298294   0.025
0.0569012   0.0298294   0.025
0.0715849   0.0298294   0.025
0.0870549   0.0298294   0.025
0.103323   0.0298294   0.025
0.120395   0.0298294   0.025
0.138275   0.0298294   0.025
0.156961   0.0298294   0.025
0.176443   0.0298294   0.025
0.196707   0.0298294   0.025
0.217734   0.0298294   0.025
0.239496   0.0298294   0.025
0.261959   0.0298294   0.025
0.285082   0.0298294   0.025
0.308818   0.0298294   0.025
0.333113   0.0298294   0.025
0.357906   0.0298294   0.025
0.383132   0.0298294   0.025
0.408719   0.0298294   0.025
0.434592   0.0298294   0.025
0.460672   0.0298294   0.025
0.486877   0.0298294   0.025
0.513123   0.0298294   0.025
0.539328   0.0298294   0.025
0.565408   0.0298294   0.025
0.591281   0.0298294   0.025
0.616868   0.0298294   0.025
0.642094   0.0298294   0.025
0.666887   0.0298294   0.025
0.691182   0.0298294   0.025
0.714918   0.0298294   0.025
0.738041   0.0298294   0.025
0.760504   0.0298294   0.025
0.782266   0.0298294   0.025
0.803293   0.0298294   0.025
0.823557   0.0298294   0.025
0.843039   0.0298294   0.025
0.861725   0.0298294   0.025
0.879605   0.0298294   0.025
0.896677   0.0298294   0.025
0.912945   0.0298294   0.025
0.928415   0.0298294   0.025
0.943099   0.0298294   0.025
0.957011   0.0298294   0.025
0.970171   0.0298294   0.025
0.982598   0.0298294   0.025
0.994315   0.0298294   0.025
0.00568455   0.0429888   0.025
0.0174023   0.0429888   0.025
0.0298294   0.0429888   0.025
0.0429888   0.0429888   0.025
0.0569012   0.0429888   0.025
0.0715849   0.0429888   0.025
0.0870549   0.0429888   0.025
0.103323   0.0429888   0.025
0.120395   0.0429888   0.025
0.138275   0.0429888   0.025
0.156961   0.0429888   0.025
0.176443   0.0429888   0.025
0.196707   0.0429888   0.025
0.217734   0.0429888   0.025
0.239496   0.0429888   0.025
0.261959   0.0429888   0.025
0.285082   0.0429888   0.025
0.308818   0.0429888   0.025
0.333113   0.0429888   0.025
0.357906   0.0429888   0.025
0.383132   0.0429888   0.025
0.408719   0.0429888   0.025
0.434592   0.0429888   0.025
0.460672   0.0429888   0.025
0.486877   0.0429888   0.025
0.513123   0.0429888   0.025
0.539328   0.0429888   0.025
0.565408   0.0429888   0.025
0.591281   0.0429888   0.025
0.616868   0.0429888   0.025
0.642094   0.0429888   0.025
0.666887   0.0429888   0.025
0.691182   0.0429888   0.025
0.714918   0.0429888   0.025
0.738041   0.0429888   0.025
0.760504   0.0429888   0.025
0.782266   0.0429888   0.025
0.803293   0.0429888   0.025
0.823557   0.0429888   0.025
0.843039   0.0429888   0.025
0.861725   0.0429888   0.025
0.879605   0.0429888   0.025
0.896677   0.0429888   0.025
0.912945   0.0429888   0.025
0.928415   0.0429888   0.025
0.943099   0.0429888   0.025
0.957011   0.0429888   0.025
0.970171   0.0429888   0.025
0.982598   0.0429888   0.025
0.994315   0.0429888   0.025
0.00568455   0.0569012   0.025
0.0174023   0.0569012   0.025
0.0298294   0.0569012   0.025
0.0429888   0.0569012   0.025
0.0569012   0.0569012   0.025
0.0715849   0.0569012   0.025
0.0870549   0.0569012   0.025
0.103323   0.0569012   0.025
0.120395   0.0569012   0.025
0.138275   0.0569012   0.025
0.156961   0.0569012   0.025
0.176443   0.0569012   0.025
0.196707   0.0569012   0.025
0.217734   0.0569012   0.025
0.239496   0.0569012   0.025
0.261959   0.0569012   0.025
0.285082   0.0569012   0.025
0.308818   0.0569012   0.025
0.333113   0.0569012   0.025
0.357906   0.0569012   0.025
0.383132   0.0569012   0.025
0.408719   0.0569012   0.025
0.434592   0.0569012   0.025
0.460672   0.0569012   0.025
0.486877   0.0569012   0.025
0.513123   0.0569012   0.025
0.539328   0.0569012   0.025
0.565408   0.0569012   0.025
0.591281   0.0569012   0.025
0.616868   0.0569012   0.025
0.642094   0.0569012   0.025
0.666887   0.0569012   0.025
0.691182   0.0569012   0.025
0.714918   0.0569012   0.025
0.738041   0.0569012   0.025
0.760504   0.0569012   0.025
0.782266   0.0569012   0.025
0.803293   0.0569012   0.025
0.823557   0.0569012   0.025
0.843039   0.0569012   0.025
0.861725   0.0569012   0.025
0.879605   0.0569012   0.025
0.896677   0.0569012   0.025
0.912945   0.0569012   0.025
0.928415   0.0569012   0.025
0.943099   0.0569012   0.025
0.957011   0.0569012   0.025
0.970171   0.0569012   0.025
0.982598   0.0569012   0.025
0.994315   0.0569012   0.025
0.00568455   0.0715849   0.025
0.0174023   0.0715849   0.025
0.0298294   0.0715849   0.025
0.0429888   0.0715849   0.025
0.0569012   0.0715849   0.025
0.0715849   0.0715849   0.025
0.0870549   0.0715849   0.025
0.103323   0.0715849   0.025
0.120395   0.0715849   0.025
0.138275   0.0715849   0.025
0.156961   0.0715849   0.025
0.176443   0.0715849   0.025
0.196707   0.0715849   0.025
0.217734   0.0715849   0.025
0.239496   0.0715849   0.025
0.261959   0.0715849   0.025
0.285082   0.0715849   0.025
0.308818   0.0715849   0.025
0.333113   0.0715849   0.025
0.357906   0.0715849   0.025
0.383132   0.0715849   0.025
0.408719   0.0715849   0.025
0.434592   0.0715849   0.025
0.460672   0.0715849   0.025
0.486877   0.0715849   0.025
0.513123   0.0715849   0.025
0.539328   0.0715849   0.025
0.565408   0.0715849   0.025
0.591281   0.0715849   0.025
0.616868   0.0715849   0.025
0.642094   0.0715849   0.025
0.666887   0.0715849   0.025
0.691182   0.0715849   0.025
0.714918   0.0715849   0.025
0.738041   0.0715849   0.025
0.760504   0.0715849   0.025
0.782266   0.0715849   0.025
0.803293   0.0715849   0.025
0.823557   0.0715849   0.025
0.843039   0.0715849   0.025
0.861725   0.0715849   0.025
0.879605   0.0715849   0.025
0.896677   0.0715849   0.025
0.912945   0.0715849   0.025
0.928415   0.0715849   0.025
0.943099   0.0715849   0.025
0.957011   0.0715849   0.025
0.970171   0.0715849   0.025
0.982598   0.0715849   0.025
0.994315   0.0715849   0.025
0.00568455   0.0870549   0.025
0.0174023   0.0870549   0.025
0.0298294   0.0870549   0.025
0.0429888   0.0870549   0.025
0.0569012   0.0870549   0.025
0.0715849   0.0870549   0.025
0.0870549   0.0870549   0.025
0.103323   0.0870549   0.025
0.120395   0.0870549   0.025
0.138275   0.0870549   0.025
0.156961   0.0870549   0.025
0.176443   0.0870549   0.025
0.196707   0.0870549   0.025
0.217734   0.0870549   0.025
0.239496   0.0870549   0.025
0.261959   0.0870549   0.025
0.285082   0.0870549   0.025
0.308818   0.0870549   0.025
0.333113   0.0870549   0.025
0.357906   0.0870549   0.025
0.383132   0.0870549   0.025
0.408719   0.0870549   0.025
0.434592   0.0870549   0.025
0.460672   0.0870549   0.025
0.486877   0.0870549   0.025
0.513123   0.0870549   0.025
0.539328   0.0870549   0.025
0.565408   0.0870549   0.025
0.591281   0.0870549   0.025
0.616868   0.0870549   0.025
0.642094   0.0870549   0.025
0.666887   0.0870549   0.025
0.691182   0.0870549   0.025
0.714918   0.0870549   0.025
0.738041   0.0870549   0.025
0.760504   0.0870549   0.025
0.782266   0.0870549   0.025
[...]
POINT_DATA   50000
VECTORS Velocidades double

-7.67408e-05 -0.00168652 0
-0.000207638 -0.00331251 0
-0.000285138 -0.00422798 0
-0.000313598 -0.00474235 0
-0.00032075 -0.00498101 0
-0.000333799 -0.00500733 0
-0.000373452 -0.00486023 0
-0.000454259 -0.00456738 0
-0.000586033 -0.00414984 0
-0.000775375 -0.00362287 0
-0.00102772 -0.00299287 0
-0.0011534 -0.00224376 0
-0.00133308 -0.001277 0
-0.00177486 -0.000549848 0
-0.00229188 5.65259e-05 0
-0.00285671 0.000568895 0
-0.00345998 0.000984171 0
-0.00409261 0.00128545 0
-0.00474149 0.00145027 0
-0.00538768 0.00145722 0
-0.00600582 0.00129176 0
-0.00656466 0.000951227 0
-0.00702983 0.000448369 0
-0.00735558 -0.000186245 0
-0.00750009 -0.000892407 0
-0.0074353 -0.00160304 0
-0.0071438 -0.0022388 0
-0.00662932 -0.00272533 0
-0.00591581 -0.00299886 0
-0.00504798 -0.00301493 0
-0.00408716 -0.00275566 0
-0.00310322 -0.00223328 0
-0.00216441 -0.00148936 0
-0.00132748 -0.000590454 0
-0.000629096 0.000376845 0
-0.000237681 0.00130407 0
2.80453e-06 0.00203187 0
0.000272956 0.00287413 0
0.000437985 0.00367323 0
0.000504068 0.00437025 0
0.000490962 0.00493937 0
0.000418457 0.00536873 0
0.000304791 0.00565226 0
0.000167125 0.00578518 0
2.26113e-05 0.00576075 0
-0.000110164 0.00556632 0
-0.000209387 0.00517632 0
-0.000249074 0.00453635 0
-0.000204799 0.00351983 0
-7.9536e-05 0.00179045 0
-0.000256754 -0.00310054 0
-0.000676398 -0.00646213 0
-0.000893463 -0.00840483 0
-0.00094967 -0.00948289 0
-0.000949916 -0.00996353 0
-0.000977166 -0.00999141 0
-0.00109043 -0.00965641 0
-0.00133108 -0.00902153 0
-0.00172778 -0.00813378 0
-0.0023008 -0.00702616 0
-0.00306804 -0.00571103 0
-0.00340393 -0.0041517 0
-0.00396701 -0.00216738 0
-0.00539394 -0.000668265 0
-0.00700447 0.000574132 0
-0.00876232 0.00162065 0
-0.0106423 0.00246633 0
-0.012614 0.00307516 0
-0.0146319 0.00339855 0
-0.0166309 0.00338952 0
-0.0185258 0.00301518 0
-0.0202146 0.0022676 0
-0.0215866 0.00117191 0
-0.0225129 -0.000208383 0
-0.0228745 -0.00177189 0
-0.0225923 -0.0033487 0
-0.0216337 -0.00477668 0
-0.0200236 -0.005897 0
-0.0178409 -0.00656994 0
-0.0152185 -0.00669493 0
-0.012332 -0.00622739 0
-0.00937907 -0.00518765 0
-0.0065542 -0.00366024 0
-0.0040225 -0.00178546 0
-0.0018966 0.000250271 0
-0.000740581 0.00220971 0
-7.6114e-09 0.00376157 0
0.000882484 0.00554578 0
0.00140433 0.00724003 0
0.00161422 0.00871864 0
0.00157389 0.00992817 0
0.00134376 0.0108446 0
0.000980283 0.0114553 0
0.000537284 0.0117489 0
6.87244e-05 0.0117087 0
-0.000367432 0.0113034 0
-0.000703458 0.0104719 0
-0.00085431 0.0090889 0
-0.000720168 0.00688835 0
-0.00028443 0.00327903 0
-0.000185185 -0.00261975 0
-0.000588332 -0.00606825 0
-0.000960299 -0.00819971 0
-0.00121951 -0.00938165 0
-0.00142717 -0.00987338 0
-0.00167526 -0.00984462 0
-0.0020474 -0.00940981 0
-0.00261009 -0.00865039 0
-0.00341377 -0.00762582 0
-0.0044968 -0.00637607 0
-0.00589142 -0.00491435 0
-0.00652306 -0.00320001 0
-0.00749477 -0.00108777 0
-0.00989313 0.000527507 0
-0.0125886 0.0018539 0
-0.0155365 0.00296239 0
-0.0186903 0.00384914 0
-0.0219896 0.00447199 0
-0.0253493 0.00477262 0
-0.0286536 0.00469325 0
-0.0317554 0.00419128 0
-0.0344831 0.0032523 0
-0.0366526 0.00190061 0
-0.0380937 0.000204112 0
-0.0386099 -0.00176045 0
-0.0380645 -0.00375553 0
-0.0364453 -0.00560214 0
-0.0337995 -0.00711503 0
-0.0302545 -0.00812357 0
-0.0260162 -0.00849776 0
-0.0213521 -0.00817076 0
-0.0165624 -0.00715197 0
-0.0119439 -0.00552888 0
-0.00775271 -0.00345939 0
-0.00417112 -0.00116227 0
-0.00220056 0.00107886 0
-0.000917269 0.00290137 0
0.000640259 0.00495718 0
0.00161397 0.00690837 0
0.00208767 0.00861399 0
0.00215676 0.0100157 0
0.00191694 0.0110874 0
0.00146145 0.0118133 0
0.000882172 0.0121765 0
0.000272204 0.0121511 0
-0.000271449 0.0116915 0
-0.00064741 0.0107169 0
-0.000760144 0.00908467 0
-0.00056492 0.0065518 0
-0.000195062 0.00275776 0
-0.000116981 -0.00227223 0
-0.000449821 -0.0055952 0
-0.000899911 -0.00779786 0
-0.00137196 -0.00904441 0
-0.0018762 -0.00952951 0
-0.00247731 -0.00942064 0
-0.00325525 -0.00884924 0
-0.00428568 -0.00791584 0
-0.00563295 -0.00669526 0
-0.00734958 -0.00523769 0
-0.00947762 -0.00356185 0
-0.0104702 -0.00163426 0
-0.011885 0.000649442 0
-0.0152807 0.00243107 0
-0.0190743 0.00389088 0
-0.0232189 0.00509866 0
-0.0276461 0.00604678 0
-0.0322616 0.0066828 0
-0.0369358 0.00693405 0
-0.0414985 0.00672738 0
-0.0457409 0.0060069 0
-0.0494249 0.00475003 0
-0.0522994 0.00298052 0
-0.0541897 0.000773047 0
-0.0548199 -0.00179117 0
-0.0539918 -0.0044174 0
-0.0517431 -0.00689257 0
-0.0481397 -0.00899338 0
-0.0433471 -0.0105062 0
-0.0376276 -0.0112604 0
-0.0313195 -0.0111579 0
-0.0248035 -0.0101918 0
-0.0184601 -0.00845167 0
-0.0126256 -0.00611735 0
-0.00755197 -0.00344884 0
-0.00473479 -0.000783987 0
-0.00286365 0.00147376 0
-0.000534883 0.0039464 0
0.00100655 0.00628282 0
0.00187846 0.00832997 0
0.00220443 0.0100226 0
0.00210968 0.011329 0
0.00171962 0.0122261 0
0.00115932 0.0126876 0
0.000552812 0.0126751 0
1.98532e-05 0.0121298 0
-0.00033371 0.0109628 0
-0.000439365 0.00904905 0
-0.00031044 0.00623809 0
-9.79404e-05 0.00242179 0
-8.38711e-05 -0.00202756 0
-0.000381152 -0.00510034 0
-0.000898309 -0.00721049 0
-0.00157968 -0.00840768 0
-0.00241887 -0.00881574 0
-0.00345341 -0.00857688 0
-0.00474531 -0.00782354 0
-0.0063641 -0.00666757 0
-0.00837635 -0.00519692 0
-0.0108402 -0.00347329 0
-0.0138009 -0.00152613 0
-0.0152085 0.000660286 0
-0.0171029 0.00314447 0
-0.0215426 0.00513548 0
-0.0264648 0.00677539 0
-0.0318228 0.00811814 0
-0.0375279 0.00914359 0
-0.04345 0.0097834 0
-0.0494129 0.00994596 0
-0.0551919 0.00953917 0
-0.0605187 0.0084917 0
-0.0650948 0.00677266 0
-0.0686125 0.00440753 0
-0.0709104 0.00148476 0
-0.0716395 -0.00188172 0
-0.0705487 -0.0053478 0
-0.0677368 -0.0086584 0
-0.0632796 -0.0115426 0
-0.0573669 -0.0137332 0
-0.0502991 -0.0150095 0
-0.0424658 -0.0152336 0
-0.03431 -0.0143753 0
-0.0262831 -0.0125225 0
-0.018796 -0.00987746 0
-0.0121748 -0.00674419 0
-0.00847881 -0.00351732 0
-0.00596801 -0.000647788 0
-0.0027442 0.00238788 0
-0.000495136 0.00523547 0
0.000927541 0.00773716 0
0.00166944 0.00982024 0
0.00187839 0.0114432 0
0.00170469 0.0125719 0
0.00129801 0.0131684 0
0.000801631 0.0131841 0
0.00034329 0.0125559 0
2.04273e-05 0.0112073 0
-0.000120541 0.00905971 0
-0.000105276 0.00606414 0
-3.34379e-05 0.00226319 0
-7.80341e-05 -0.00181866 0
-0.000391416 -0.00455354 0
-0.00101224 -0.00641659 0
-0.00192751 -0.00741859 0
-0.00313685 -0.00763755 0
-0.00466332 -0.00718664 0
-0.00655054 -0.00618755 0
-0.00885427 -0.00475343 0
-0.0116338 -0.00297949 0
-0.014944 -0.000937593 0
-0.018827 0.00132864 0
-0.0206955 0.00380986 0
-0.0231049 0.00651457 0
-0.0286441 0.00874995 0
-0.0347358 0.0106098 0
-0.041332 0.0121171 0
-0.0483241 0.0132282 0
-0.0555467 0.013852 0
-0.0627774 0.0138734 0
-0.0697399 0.0131791 0
-0.0761125 0.0116816 0
-0.0815455 0.00934367 0
-0.0856872 0.00619664 0
-0.0883782 0.0023516 0
-0.0892202 -0.00202585 0
-0.087938 -0.00653414 0
-0.0846739 -0.0108851 0
-0.0795 -0.0147524 0
-0.0726127 -0.0178066 0
-0.0643319 -0.0197671 0
-0.0550803 -0.0204466 0
-0.0453486 -0.0197826 0
-0.0356505 -0.017854 0
-0.0264712 -0.01488 0
-0.0182186 -0.0112068 0
-0.0135995 -0.00728554 0
-0.0103845 -0.00362221 0
-0.00611255 0.000120959 0
-0.00298784 0.00360387 0
-0.000839586 0.00667437 0
0.000491124 0.00925263 0
0.0011665 0.0112836 0
0.00135378 0.0127188 0
0.00121893 0.0135086 0
0.000916535 0.0135991 0
0.000577318 0.0129342 0
0.000294794 0.0114634 0
0.000114088 0.00915931 0
3.0092e-05 0.00604543 0
4.32701e-06 0.00222688 0
-9.03643e-05 -0.00158909 0
-0.000466692 -0.00388352 0
-0.00124534 -0.0053509 0
-0.00244225 -0.00600264 0
-0.00406834 -0.00589764 0
-0.00614137 -0.00512799 0
-0.0086909 -0.00380088 0
-0.0117574 -0.00202311 0
-0.0153876 0.000109432 0
-0.019627 0.00251788 0
-0.0245091 0.00514348 0
-0.0268764 0.0079479 0
-0.0298327 0.0108875 0
-0.0365282 0.0133954 0
-0.043834 0.0155063 0
-0.0516974 0.0171984 0
-0.0599891 0.0183934 0
-0.06851 0.0189699 0
-0.0769954 0.0187857 0
-0.0851235 0.0177049 0
-0.0925282 0.0156256 0
-0.0988208 0.0125073 0
-0.103618 0.00839237 0
-0.106716 0.00342156 0
-0.107716 -0.00218121 0
-0.106374 -0.00792665 0
-0.10282 -0.0135239 0
-0.0971044 -0.0185849 0
-0.0894123 -0.0227089 0
-0.0800632 -0.025546 0
-0.0694954 -0.0268478 0
-0.0582353 -0.0265069 0
-0.0468533 -0.0245802 0
-0.0359111 -0.0212937 0
-0.0259086 -0.0170281 0
-0.0203036 -0.0122895 0
-0.0163018 -0.00764744 0
-0.0107926 -0.00305829 0
-0.0065897 0.00118259 0
-0.00351316 0.00494192 0
-0.00140259 0.00813254 0
-9.01084e-05 0.0106814 0
0.000601863 0.0125222 0
0.000850897 0.0135942 0
0.000821019 0.0138429 0
0.000649659 0.0132251 0
0.000437883 0.0117192 0
0.000247073 0.00933845 0
0.000105301 0.00614693 0
2.42382e-05 0.00226645 0
-0.000115139 -0.00129417 0
-0.000592769 -0.00300675 0
-0.00158444 -0.00391945 0
-0.00312043 -0.00405977 0
-0.00521877 -0.00348484 0
-0.00789421 -0.0022753 0
-0.0111654 -0.000524824 0
-0.0150584 0.00167041 0
-0.0196056 0.00421943 0
-0.0248399 0.00704028 0
-0.0307831 0.0100601 0
-0.0336781 0.0132105 0
-0.037208 0.0163964 0
-0.0451115 0.0191991 0
-0.0536738 0.0215831 0
-0.0628327 0.0234694 0
-0.0724379 0.024735 0
-0.0822591 0.0252221 0
-0.0919958 0.0247587 0
-0.10129 0.0231866 0
-0.109742 0.0203924 0
-0.116939 0.0163367 0
-0.122475 0.0110771 0
-0.12602 0.00478641 0
-0.127253 -0.00225812 0
-0.126044 -0.00942873 0
-0.122416 -0.0164841 0
-0.116376 -0.0229664 0
-0.10808 -0.0283959 0
-0.0978266 -0.0323428 0
-0.0860538 -0.0344838 0
-0.0733106 -0.0346491 0
-0.0602185 -0.0328555 0
-0.0474189 -0.0293183 0
-0.0355138 -0.0244406 0
-0.028841 -0.0187773 0
-0.023948 -0.0129708 0
-0.0169673 -0.00740856 0
-0.0114402 -0.00228744 0
-0.00719749 0.00229296 0
-0.00409163 0.00623471 0
-0.00195712 0.00943945 0
-0.000609682 0.0118182 0
0.000139614 0.0132976 0
0.000467795 0.0138236 0
0.000526837 0.0133668 0
0.000436495 0.0119291 0
0.0002844 0.00955128 0
0.000133206 0.00631667 0
3.22147e-05 0.00234751 0
-0.000148988 -0.000896338 0
-0.000758637 -0.0018388 0
-0.00201275 -0.00201493 0
-0.00394452 -0.00147243 0
-0.00657191 -0.000274727 0
-0.00990428 0.00150281 0
-0.0139498 0.00377849 0
-0.0187207 0.00646935 0
-0.0242352 0.00949378 0
-0.0305124 0.0127708 0
-0.0375616 0.0162155 0
-0.041004 0.019731 0
-0.0451269 0.0231736 0
-0.0542798 0.0262892 0
-0.0641327 0.0289593 0
-0.07461 0.0310382 0
-0.0855398 0.0323504 0
-0.0966657 0.0326974 0
-0.10766 0.0318762 0
-0.118138 0.029709 0
-0.127682 0.0260744 0
-0.135864 0.0209379 0
-0.142268 0.0143745 0
-0.146315 0.00658503 0
-0.147881 -0.00211229 0
-0.147056 -0.0108914 0
-0.143616 -0.0196268 0
-0.13751 -0.0277803 0
-0.128847 -0.0347864 0
-0.117889 -0.0401253 0
-0.105052 -0.0433828 0
-0.0908926 -0.0443054 0
-0.0760742 -0.0428449 0
-0.0613169 -0.0391815 0
-0.0473338 -0.0337197 0
-0.0394999 -0.0270531 0
-0.0335887 -0.0199018 0
-0.0248472 -0.0132576 0
-0.0176973 -0.00713167 0
-0.0120078 -0.00157688 0
-0.00766024 0.00328731 0
-0.00449766 0.0073246 0
-0.00232928 0.0104147 0
-0.0009511 0.0124669 0
-0.000166347 0.0134252 0
0.000200255 0.0132699 0
0.000295676 0.0120196 0
0.000238631 0.00973179 0
0.000124473 0.00649958 0
3.18914e-05 0.00244376 0
-0.000189699 -0.000362242 0
-0.00095554 -0.000298587 0
-0.00251301 0.000472548 0
-0.0048899 0.0018836 0
-0.00809695 0.00386303 0
-0.0121338 0.00633923 0
-0.0169962 0.00924307 0
-0.022683 0.0125077 0
-0.0291981 0.0160651 0
-0.0365476 0.0198391 0
-0.044729 0.0237363 0
-0.048728 0.0276338 0
-0.0534547 0.0313447 0
-0.0638826 0.0347873 0
-0.075046 0.0377484 0
-0.0868526 0.0400079 0
-0.0991107 0.0413339 0
-0.111543 0.0414851 0
-0.123804 0.040229 0
-0.135496 0.037371 0
-0.146193 0.0327858 0
-0.155463 0.0264463 0
-0.162885 0.0184434 0
-0.167496 0.00899841 0
-0.169507 -0.0015454 0
-0.169353 -0.0121151 0
-0.166395 -0.0227641 0
-0.160519 -0.03286 0
-0.151772 -0.0417492 0
-0.140359 -0.0488134 0
-0.126656 -0.0535315 0
-0.111205 -0.0555424 0
-0.0946916 -0.054702 0
-0.0779049 -0.0511218 0
-0.0616714 -0.0451774 0
-0.052589 -0.0374794 0
-0.045515 -0.0288242 0
-0.0346621 -0.0210172 0
-0.0255317 -0.0137545 0
-0.0180672 -0.00703977 0
-0.0121956 -0.00103721 0
-0.00777223 0.00405858 0
-0.00459685 0.00808242 0
-0.00244412 0.0109183 0
-0.00108938 0.0125021 0
-0.000325782 0.0128183 0
2.73491e-05 0.0118962 0
0.000122737 0.00980396 0
8.73063e-05 0.00664212 0
2.5623e-05 0.002534 0
-0.00023548 0.000338153 0
-0.00117549 0.00168883 0
-0.00306711 0.00364746 0
-0.00592665 0.00612848 0
-0.0097516 0.00905437 0
-0.0145272 0.01236 0
-0.0202347 0.0159923 0
-0.0268581 0.0199052 0
-0.0343879 0.0240491 0
-0.0428181 0.0283574 0
-0.0521361 0.0327317 0
-0.0566901 0.0370271 0
-0.0620204 0.0410201 0
-0.0737275 0.0448002 0
-0.0862003 0.0480493 0
-0.0993282 0.0504693 0
-0.112903 0.0517702 0
-0.126633 0.0516692 0
-0.140162 0.0499071 0
-0.153092 0.0462761 0
-0.164998 0.0406504 0
-0.175451 0.0330108 0
-0.184031 0.0234608 0
-0.18925 0.0122326 0
-0.191813 -0.000318176 0
-0.192621 -0.0128624 0
-0.190451 -0.0256638 0
-0.185125 -0.0379851 0
-0.176623 -0.0490887 0
-0.165078 -0.0582543 0
-0.150798 -0.0648416 0
-0.134279 -0.068358 0
-0.116199 -0.0685288 0
-0.0973917 -0.0653541 0
-0.0787841 -0.0591367 0
-0.0684032 -0.0504682 0
-0.0600163 -0.0402042 0
-0.0466425 -0.0311927 0
-0.0351182 -0.0226466 0
-0.0255054 -0.0145426 0
-0.0177911 -0.00712954 0
-0.0118444 -0.000689886 0
-0.00745139 0.00454775 0
-0.00435826 0.0084302 0
-0.00230441 0.0108773 0
-0.00104385 0.0118719 0
-0.000356504 0.0114493 0
-5.24779e-05 0.00968667 0
2.77579e-05 0.0066932 0
1.50057e-05 0.0026004 0
-0.000284532 0.00123094 0
-0.00141007 0.00418868 0
-0.00365481 0.00760126 0
-0.00701914 0.0113678 0
-0.0114827 0.0154093 0
-0.0170127 0.0196732 0
-0.0235731 0.0241291 0
-0.0311325 0.0287585 0
-0.0396681 0.0335367 0
-0.0491633 0.0384117 0
-0.0595973 0.0432847 0
-0.0646926 0.0479936 0
-0.0706133 0.0522854 0
-0.0835754 0.0564092 0
-0.0973271 0.0599361 0
-0.11174 0.0624893 0
-0.126592 0.0637227 0
-0.141583 0.0633151 0
-0.156357 0.0609845 0
-0.170518 0.0565136 0
-0.18365 0.0497778 0
-0.195334 0.0407658 0
-0.205157 0.0295902 0
-0.210991 0.0164879 0
-0.214184 0.001821 0
-0.216207 -0.0128818 0
-0.215106 -0.0280633 0
-0.210657 -0.0428829 0
-0.202772 -0.0565328 0
-0.191498 -0.0681964 0
-0.177047 -0.0771094 0
-0.159829 -0.0826297 0
-0.14047 -0.0843172 0
-0.119798 -0.082011 0
-0.0988087 -0.0758834 0
-0.0871631 -0.0664501 0
-0.0773319 -0.0545848 0
-0.0609921 -0.0443771 0
-0.0466266 -0.0343797 0
-0.0344613 -0.0246056 0
-0.0245553 -0.0154471 0
-0.0167928 -0.00731154 0
-0.0109438 -0.000514781 0
-0.00672102 0.00473755 0
-0.0038211 0.0083394 0
-0.00195219 0.010266 0
-0.000849059 0.0105556 0
-0.000280304 0.00929441 0
-5.03788e-05 0.00660324 0
1.03519e-06 0.0026274 0
-0.000334809 0.00233658 0
-0.00164965 0.00725144 0
-0.00425256 0.0124041 0
-0.00812513 0.0176816 0
-0.0132263 0.0230099 0
-0.0195024 0.0283569 0
-0.0268985 0.0337248 0
-0.0353672 0.0391314 0
-0.0448728 0.0445843 0
-0.055389 0.0500529 0
-0.066889 0.0554426 0
-0.0724985 0.0605798 0
-0.0789805 0.065189 0
-0.0931369 0.069657 0
-0.108099 0.0734435 0
-0.12372 0.076096 0
-0.139767 0.0772164 0
-0.155937 0.0764496 0
-0.171877 0.0734945 0
-0.187199 0.0681276 0
-0.201498 0.0602274 0
-0.21437 0.0497908 0
-0.225419 0.0369397 0
-0.231818 0.0219157 0
-0.235663 0.0050911 0
-0.239064 -0.0119438 0
-0.239251 -0.0296933 0
-0.235983 -0.0472403 0
-0.229112 -0.0637307 0
-0.218588 -0.0782696 0
-0.204501 -0.0899781 0
-0.187131 -0.0980576 0
-0.166987 -0.101876 0
-0.14483 -0.10106 0
-0.121654 -0.0955844 0
-0.10892 -0.0858093 0
-0.0975734 -0.0725519 0
-0.077845 -0.0612132 0
-0.060208 -0.0495773 0
-0.0450873 -0.0378085 0
-0.0326239 -0.0265115 0
-0.022726 -0.0162611 0
-0.0151525 -0.00748953 0
-0.00958269 -0.000474969 0
-0.00566722 0.00463754 0
-0.00306289 0.00780804 0
-0.00145342 0.00907512 0
-0.000560155 0.00853427 0
-0.000146084 0.00632137 0
-1.59362e-05 0.00260027 0
-0.000383898 0.00366742 0
-0.00188294 0.0109067 0
-0.00483291 0.0180958 0
-0.00919539 0.0251132 0
-0.0149073 0.0318973 0
-0.0218933 0.0384469 0
-0.0300787 0.044807 0
-0.0393998 0.0510425 0
-0.0498085 0.0572029 0
-0.0612696 0.0632853 0
-0.0737514 0.0692057 0
-0.0798332 0.0747837 0
-0.0868285 0.0797282 0
-0.102073 0.0845325 0
-0.118127 0.0885504 0
-0.134825 0.0912596 0
-0.151926 0.0922154 0
-0.169126 0.0910334 0
-0.186073 0.0873971 0
-0.202389 0.08108 0
-0.217683 0.0719665 0
-0.231571 0.060066 0
-0.243688 0.0455151 0
-0.250531 0.0285689 0
-0.254978 0.00962183 0
-0.259778 -0.00988463 0
-0.261366 -0.0303134 0
-0.259521 -0.0507309 0
-0.254045 -0.0702682 0
-0.244792 -0.0879859 0
-0.231713 -0.102917 0
-0.214912 -0.114119 0
-0.19472 -0.120756 0
-0.171738 -0.122207 0
-0.146869 -0.118174 0
-0.133421 -0.108771 0
-0.120609 -0.0946452 0
-0.097203 -0.0823025 0
-0.0759692 -0.0688525 0
-0.0575426 -0.0547571 0
-0.0421646 -0.0408968 0
-0.0297926 -0.0280583 0
-0.0201947 -0.0168271 0
-0.0130274 -0.00758265 0
-0.00789773 -0.000528582 0
-0.00440839 0.00426871 0
-0.00218646 0.00684314 0
-0.000899378 0.0072993 0
-0.000261714 0.00579048 0
-3.63021e-05 0.00250298 0
-0.000429009 0.00522485 0
-0.00209702 0.0151561 0
-0.00536464 0.024676 0
-0.0101743 0.0336579 0
-0.0164416 0.0420605 0
-0.0240701 0.0499238 0
-0.0329659 0.0573475 0
-0.0430491 0.064455 0
-0.0542595 0.0713469 0
-0.0665535 0.078056 0
-0.0798946 0.0845148 0
-0.0863901 0.0905412 0
-0.0938291 0.0958343 0
-0.110003 0.100954 0
-0.12697 0.105161 0
-0.144549 0.107871 0
-0.162488 0.108598 0
-0.18048 0.106933 0
-0.198174 0.102547 0
-0.215199 0.0952148 0
-0.231182 0.0848336 0
-0.245767 0.0714341 0
-0.258635 0.0551806 0
-0.265734 0.0363579 0
-0.270644 0.015397 0
-0.27669 -0.00665049 0
-0.27965 -0.0297566 0
-0.279358 -0.0530586 0
-0.275587 -0.0757089 0
-0.268108 -0.0967718 0
-0.256725 -0.115238 0
-0.241343 -0.130058 0
-0.222053 -0.140209 0
-0.19921 -0.144804 0
-0.173505 -0.143222 0
-0.159947 -0.135239 0
-0.145916 -0.121187 0
-0.118844 -0.108052 0
-0.0939133 -0.0927071 0
-0.0719555 -0.0760254 0
-0.0533543 -0.0592012 0
-0.0381704 -0.0432789 0
-0.0262237 -0.0290471 0
-0.0171741 -0.0170297 0
-0.0105971 -0.00752003 0
-0.00604354 -0.000630245 0
-0.00308018 0.00365914 0
-0.00131393 0.0054588 0
-0.000403223 0.00494038 0
-6.1242e-05 0.00231549 0
-0.000467061 0.00699642 0
-0.00227775 0.0199669 0
-0.00581389 0.0320951 0
-0.0110018 0.0432527 0
-0.0177388 0.0534253 0
-0.0259096 0.0627035 0
-0.0354026 0.071253 0
-0.0461226 0.0792662 0
-0.057997 0.0869045 0
-0.0709734 0.0942443 0
-0.0850097 0.10124 0
-0.0918433 0.107714 0
-0.0996323 0.113358 0
-0.116517 0.118754 0
-0.134154 0.123088 0
-0.152343 0.125723 0
-0.170821 0.126136 0
-0.189272 0.123896 0
-0.207346 0.118669 0
-0.224678 0.110236 0
-0.240917 0.0985187 0
-0.255745 0.0835838 0
-0.268907 0.0656415 0
-0.276016 0.0450257 0
-0.281171 0.0222167 0
-0.288128 -0.00233029 0
-0.292274 -0.0279737 0
-0.293515 -0.0540132 0
-0.291623 -0.0796603 0
-0.286313 -0.10404 0
-0.27726 -0.126164 0
-0.264167 -0.144936 0
-0.246851 -0.159195 0
-0.225353 -0.16781 0
-0.200039 -0.169822 0
-0.187172 -0.164604 0
-0.172425 -0.152023 0
-0.142198 -0.138472 0
-0.11383 -0.121392 0
-0.0883354 -0.102062 0
-0.0663168 -0.0819893 0
-0.0480256 -0.0625247 0
-0.0334035 -0.0447277 0
-0.0221617 -0.0293308 0
-0.0138709 -0.0167669 0
-0.008041 -0.00722719 0
-0.00417918 -0.000725122 0
-0.00182705 0.00284792 0
-0.000579645 0.00368027 0
-9.26072e-05 0.00201058 0
-0.000494885 0.00895367 0
-0.00241065 0.0252666 0
-0.00614611 0.0402481 0
-0.011617 0.0537691 0
-0.0187074 0.0658468 0
-0.0272875 0.0766295 0
-0.0372305 0.0863572 0
-0.0484269 0.0953007 0
-0.0607915 0.103691 0
-0.0742616 0.111654 0
-0.0887875 0.119174 0
-0.0958658 0.126078 0
-0.103887 0.132057 0
-0.121204 0.137668 0
-0.139203 0.142043 0
-0.157662 0.1445 0
-0.176302 0.144485 0
-0.194797 0.141549 0
-0.212795 0.135358 0
-0.229943 0.125713 0
-0.245915 0.112575 0
-0.260446 0.0960657 0
-0.273351 0.0764609 0
-0.2802 0.054161 0
-0.28533 0.0297001 0
-0.292727 0.00283737 0
-0.297728 -0.0250626 0
-0.300314 -0.053523 0
-0.300291 -0.0818515 0
-0.297354 -0.109292 0
-0.291089 -0.134946 0
-0.281025 -0.15775 0
-0.266718 -0.176487 0
-0.247866 -0.189849 0
-0.224434 -0.196568 0
-0.213141 -0.195601 0