# vtk DataFile Version 2.0
Velocidades
ASCII

DATASET STRUCTURED_GRID
DIMENSIONS   50   50   20

POINTS   50000   double
0.00568455   0.00568455   0.025
0.0174023   0.00568455   0.025
0.0298294   0.00568455   0.025
0.0429888   0.00568455   0.025
0.0569012   0.00568455   0.025
0.0715849   0.00568455   0.025
0.0870549   0.00568455   0.025
0.103323   0.00568455   0.025
0.120395   0.00568455   0.025
0.138275   0.00568455   0.025
0.156961   0.00568455   0.025
0.176443   0.00568455   0.025
0.196707   0.00568455   0.025
0.217734   0.00568455   0.025
0.239496   0.00568455   0.025
0.261959   0.00568455   0.025
0.285082   0.00568455   0.025
0.308818   0.00568455   0.025
0.333113   0.00568455   0.025
0.357906   0.00568455   0.025
0.383132   0.00568455   0.025
0.408719   0.00568455   0.025
0.434592   0.00568455   0.025
0.460672   0.00568455   0.025
0.486877   0.00568455   0.025
0.513123   0.00568455   0.025
0.539328   0.00568455   0.025
0.565408   0.00568455   0.025
0.591281   0.00568455   0.025
0.616868   0.00568455   0.025
0.642094   0.00568455   0.025
0.666887   0.00568455   0.025
0.691182   0.00568455   0.025
0.714918   0.00568455   0.025
0.738041   0.00568455   0.025
0.760504   0.00568455   0.025
0.782266   0.00568455   0.025
0.803293   0.00568455   0.025
0.823557   0.00568455   0.025
0.843039   0.00568455   0.025
0.861725   0.00568455   0.025
0.879605   0.00568455   0.025
0.896677   0.00568455   0.025
0.912945   0.00568455   0.025
0.928415   0.00568455   0.025
0.943099   0.00568455   0.025
0.957011   0.00568455   0.025
0.970171   0.00568455   0.025
0.982598   0.00568455   0.025
0.994315   0.00568455   0.025
0.00568455   0.0174023   0.025
0.0174023   0.0174023   0.025
0.0298294   0.0174023   0.025
0.0429888   0.0174023   0.025
0.0569012   0.0174023   0.025
0.0715849   0.0174023   0.025
0.0870549   0.0174023   0.025
0.103323   0.0174023   0.025
0.120395   0.0174023   0.025
0.138275   0.0174023   0.025
0.156961   0.0174023   0.025
0.176443   0.0174023   0.025
0.196707   0.0174023   0.025
0.217734   0.0174023   0.025
0.239496   0.0174023   0.025
0.261959   0.0174023   0.025
0.285082   0.0174023   0.025
0.308818   0.0174023   0.025
0.333113   0.0174023   0.025
0.357906   0.0174023   0.025
0.383132   0.0174023   0.025
0.408719   0.0174023   0.025
0.434592   0.0174023   0.025
0.460672   0.0174023   0.025
0.486877   0.0174023   0.025
0.513123   0.0174023   0.025
0.539328   0.0174023   0.025
0.565408   0.0174023   0.025
0.591281   0.0174023   0.025
0.616868   0.0174023   0.025
0.642094   0.0174023   0.025
0.666887   0.0174023   0.025
0.691182   0.0174023   0.025
0.714918   0.0174023   0.025
0.738041   0.0174023   0.025
0.760504   0.0174023   0.025
0.782266   0.0174023   0.025
0.803293   0.0174023   0.025
0.823557   0.0174023   0.025
0.843039   0.0174023   0.025
0.861725   0.0174023   0.025
0.879605   0.0174023   0.025
0.896677   0.0174023   0.025
0.912945   0.0174023   0.025
0.928415   0.0174023   0.025
0.943099   0.0174023   0.025
0.957011   0.0174023   0.025
0.970171   0.0174023   0.025
0.982598   0.0174023   0.025
0.994315   0.0174023   0.025
0.00568455   0.0298294   0.025
0.0174023   0.0298294   0.025
0.0298294   0.0298294   0.025
0.0429888   0.0298294   0.025
0.0569012   0.0298294   0.025
0.0715849   0.0298294   0.025
0.0870549   0.0298294   0.025
0.103323   0.0298294   0.025
0.120395   0.0298294   0.025
0.138275   0.0298294   0.025
0.156961   0.0298294   0.025
0.176443   0.0298294   0.025
0.196707   0.0298294   0.025
0.217734   0.0298294   0.025
0.239496   0.0298294   0.025
0.261959   0.0298294   0.025
0.285082   0.0298294   0.025
0.308818   0.0298294   0.025
0.333113   0.0298294   0.025
0.357906   0.0298294   0.025
0.383132   0.0298294   0.025
0.408719   0.0298294   0.025
0.434592   0.0298294   0.025
0.460672   0.0298294   0.025
0.486877   0.0298294   0.025
0.513123   0.0298294   0.025
0.539328   0.0298294   0.025
0.565408   0.0298294   0.025
0.591281   0.0298294   0.025
0.616868   0.0298294   0.025
0.642094   0.0298294   0.025
0.666887   0.0298294   0.025
0.691182   0.0298294   0.025
0.714918   0.0298294   0.025
0.738041   0.0298294   0.025
0.760504   0.0298294   0.025
0.782266   0.0298294   0.025
0.803293   0.0298294   0.025
0.823557   0.0298294   0.025
0.843039   0.0298294   0.025
0.861725   0.0298294   0.025
0.879605   0.0298294   0.025
0.896677   0.0298294   0.025
0.912945   0.0298294   0.025
0.928415   0.0298294   0.025
0.943099   0.0298294   0.025
0.957011   0.0298294   0.025
0.970171   0.0298294   0.025
0.982598   0.0298294   0.025
0.994315   0.0298294   0.025
0.00568455   0.0429888   0.025
0.0174023   0.0429888   0.025
0.0298294   0.0429888   0.025
0.0429888   0.0429888   0.025
0.0569012   0.0429888   0.025
0.0715849   0.0429888   0.025
0.0870549   0.0429888   0.025
0.103323   0.0429888   0.025
0.120395   0.0429888   0.025
0.138275   0.0429888   0.025
0.156961   0.0429888   0.025
0.176443   0.0429888   0.025
0.196707   0.0429888   0.025
0.217734   0.0429888   0.025
0.239496   0.0429888   0.025
0.261959   0.0429888   0.025
0.285082   0.0429888   0.025
0.308818   0.0429888   0.025
0.333113   0.0429888   0.025
0.357906   0.0429888   0.025
0.383132   0.0429888   0.025
0.408719   0.0429888   0.025
0.434592   0.0429888   0.025
0.460672   0.0429888   0.025
0.486877   0.0429888   0.025
0.513123   0.0429888   0.025
0.539328   0.0429888   0.025
0.565408   0.0429888   0.025
0.591281   0.0429888   0.025
0.616868   0.0429888   0.025
0.642094   0.0429888   0.025
0.666887   0.0429888   0.025
0.691182   0.0429888   0.025
0.714918   0.0429888   0.025
0.738041   0.0429888   0.025
0.760504   0.0429888   0.025
0.782266   0.0429888   0.025
0.803293   0.0429888   0.025
0.823557   0.0429888   0.025
0.843039   0.0429888   0.025
0.861725   0.0429888   0.025
0.879605   0.0429888   0.025
0.896677   0.0429888   0.025
0.912945   0.0429888   0.025
0.928415   0.0429888   0.025
0.943099   0.0429888   0.025
0.957011   0.0429888   0.025
0.970171   0.0429888   0.025
0.982598   0.0429888   0.025
0.994315   0.0429888   0.025
0.00568455   0.0569012   0.025
0.0174023   0.0569012   0.025
0.0298294   0.0569012   0.025
0.0429888   0.0569012   0.025
0.0569012   0.0569012   0.025
0.0715849   0.0569012   0.025
0.0870549   0.0569012   0.025
0.103323   0.0569012   0.025
0.120395   0.0569012   0.025
0.138275   0.0569012   0.025
0.156961   0.0569012   0.025
0.176443   0.0569012   0.025
0.196707   0.0569012   0.025
0.217734   0.0569012   0.025
0.239496   0.0569012   0.025
0.261959   0.0569012   0.025
0.285082   0.0569012   0.025
0.308818   0.0569012   0.025
0.333113   0.0569012   0.025
0.357906   0.0569012   0.025
0.383132   0.0569012   0.025
0.408719   0.0569012   0.025
0.434592   0.0569012   0.025
0.460672   0.0569012   0.025
0.486877   0.0569012   0.025
0.513123   0.0569012   0.025
0.539328   0.0569012   0.025
0.565408   0.0569012   0.025
0.591281   0.0569012   0.025
0.616868   0.0569012   0.025
0.642094   0.0569012   0.025
0.666887   0.0569012   0.025
0.691182   0.0569012   0.025
0.714918   0.0569012   0.025
0.738041   0.0569012   0.025
0.760504   0.0569012   0.025
0.782266   0.0569012   0.025
0.803293   0.0569012   0.025
0.823557   0.0569012   0.025
0.843039   0.0569012   0.025
0.861725   0.0569012   0.025
0.879605   0.0569012   0.025
0.896677   0.0569012   0.025
0.912945   0.0569012   0.025
0.928415   0.0569012   0.025
0.943099   0.0569012   0.025
0.957011   0.0569012   0.025
0.970171   0.0569012   0.025
0.982598   0.0569012   0.025
0.994315   0.0569012   0.025
0.00568455   0.0715849   0.025
0.0174023   0.0715849   0.025
0.0298294   0.0715849   0.025
0.0429888   0.0715849   0.025
0.0569012   0.0715849   0.025
0.0715849   0.0715849   0.025
0.0870549   0.0715849   0.025
0.103323   0.0715849   0.025
0.120395   0.0715849   0.025
0.138275   0.0715849   0.025
0.156961   0.0715849   0.025
0.176443   0.0715849   0.025
0.196707   0.0715849   0.025
0.217734   0.0715849   0.025
0.239496   0.0715849   0.025
0.261959   0.0715849   0.025
0.285082   0.0715849   0.025
0.308818   0.0715849   0.025
0.333113   0.0715849   0.025
0.357906   0.0715849   0.025
0.383132   0.0715849   0.025
0.408719   0.0715849   0.025
0.434592   0.0715849   0.025
0.460672   0.0715849   0.025
0.486877   0.0715849   0.025
0.513123   0.0715849   0.025
0.539328   0.0715849   0.025
0.565408   0.0715849   0.025
0.591281   0.0715849   0.025
0.616868   0.0715849   0.025
0.642094   0.0715849   0.025
0.666887   0.0715849   0.025
0.691182   0.0715849   0.025
0.714918   0.0715849   0.025
0.738041   0.0715849   0.025
0.760504   0.0715849   0.025
0.782266   0.0715849   0.025
0.803293   0.0715849   0.025
0.823557   0.0715849   0.025
0.843039   0.0715849   0.025
0.861725   0.0715849   0.025
0.879605   0.0715849   0.025
0.896677   0.0715849   0.025
0.912945   0.0715849   0.025
0.928415   0.0715849   0.025
0.943099   0.0715849   0.025
0.957011   0.0715849   0.025
0.970171   0.0715849   0.025
0.982598   0.0715849   0.025
0.994315   0.0715849   0.025
0.00568455   0.0870549   0.025
0.0174023   0.0870549   0.025
0.0298294   0.0870549   0.025
0.0429888   0.0870549   0.025
0.0569012   0.0870549   0.025
0.0715849   0.0870549   0.025
0.0870549   0.0870549   0.025
0.103323   0.0870549   0.025
0.120395   0.0870549   0.025
0.138275   0.0870549   0.025
0.156961   0.0870549   0.025
0.176443   0.0870549   0.025
0.196707   0.0870549   0.025
0.217734   0.0870549   0.025
0.239496   0.0870549   0.025
0.261959   0.0870549   0.025
0.285082   0.0870549   0.025
0.308818   0.0870549   0.025
0.333113   0.0870549   0.025
0.357906   0.0870549   0.025
0.383132   0.0870549   0.025
0.408719   0.0870549   0.025
0.434592   0.0870549   0.025
0.460672   0.0870549   0.025
0.486877   0.0870549   0.025
0.513123   0.0870549   0.025
0.539328   0.0870549   0.025
0.565408   0.0870549   0.025
0.591281   0.0870549   0.025
0.616868   0.0870549   0.025
0.642094   0.0870549   0.025
0.666887   0.0870549   0.025
0.691182   0.0870549   0.025
0.714918   0.0870549   0.025
0.738041   0.0870549   0.025
0.760504   0.0870549   0.025
0.782266   0.0870549   0.025
[...]
POINT_DATA   50000
VECTORS Velocidades double

4.36428e-05 0.000803815 0
0.000118435 0.00160036 0
0.000158567 0.00210716 0
0.000155165 0.00247756 0
0.000112137 0.00276771 0
3.53762e-05 0.00300004 0
-7.00593e-05 0.00318372 0
-0.000199979 0.00332258 0
-0.000350846 0.00341897 0
-0.00051997 0.00347636 0
-0.000706471 0.00350267 0
-0.000810722 0.00352028 0
-0.000920781 0.00361007 0
-0.0011408 0.00353421 0
-0.00137599 0.00335876 0
-0.00161231 0.0031052 0
-0.00184486 0.00278374 0
-0.00206981 0.00240076 0
-0.00228275 0.00196144 0
-0.00247812 0.00147131 0
-0.00264914 0.000937206 0
-0.00278797 0.000367688 0
-0.00288641 -0.000227383 0
-0.00296033 -0.000839715 0
-0.00297596 -0.0014761 0
-0.00289909 -0.00205732 0
-0.00275053 -0.00257487 0
-0.00253412 -0.00300867 0
-0.00225768 -0.0033399 0
-0.00193416 -0.00355535 0
-0.00158055 -0.00364977 0
-0.00121595 -0.00362701 0
-0.000859258 -0.00350002 0
-0.000526673 -0.00329015 0
-0.00022925 -0.00302663 0
-5.82134e-05 -0.00275073 0
6.24076e-05 -0.00254203 0
0.000221704 -0.00222467 0
0.000339352 -0.00187869 0
0.000410748 -0.00153848 0
0.000440698 -0.00122363 0
0.000436281 -0.00094577 0
0.000405197 -0.000711147 0
0.000355098 -0.000522018 0
0.000293261 -0.000377491 0
0.000226393 -0.000273931 0
0.000160477 -0.000204941 0
0.000100635 -0.000160678 0
5.10759e-05 -0.000125612 0
1.46683e-05 -7.14284e-05 0
0.000148119 0.00145037 0
0.000398528 0.00309838 0
0.000525212 0.00419124 0
0.000506832 0.0049932 0
0.000365396 0.00561865 0
0.000120515 0.00611709 0
-0.00021284 0.0065097 0
-0.000622179 0.00680596 0
-0.00109656 0.00701201 0
-0.00162724 0.00713648 0
-0.00221055 0.007198 0
-0.00250831 0.00724565 0
-0.00285372 0.00742604 0
-0.00357326 0.00727534 0
-0.00430941 0.0069188 0
-0.00504203 0.00640273 0
-0.00575781 0.00574875 0
-0.00644466 0.00496952 0
-0.00708862 0.00407482 0
-0.00767243 0.00307494 0
-0.00817537 0.00198281 0
-0.00857405 0.000815118 0
-0.00884373 -0.000408615 0
-0.00904179 -0.00167213 0
-0.00905771 -0.00299022 0
-0.0087875 -0.00420086 0
-0.00830902 -0.00528393 0
-0.00763217 -0.00619646 0
-0.00678162 -0.00689754 0
-0.00579643 -0.00735774 0
-0.00472668 -0.00756432 0
-0.00362811 -0.0075239 0
-0.0025556 -0.00726271 0
-0.00155649 -0.00682526 0
-0.00066367 -0.00627379 0
-0.000170209 -0.00569655 0
0.000193348 -0.00524577 0
0.000696127 -0.00457541 0
0.00105396 -0.00384353 0
0.00126988 -0.00312363 0
0.0013595 -0.00245755 0
0.00134407 -0.00186998 0
0.00124672 -0.0013743 0
0.00109066 -0.000975642 0
0.000898124 -0.000672718 0
0.000689806 -0.000458623 0
0.000484299 -0.000320754 0
0.000297617 -0.000239377 0
0.000143342 -0.000183696 0
3.79389e-05 -0.000102553 0
0.000110375 0.00116888 0
0.000338588 0.00287108 0
0.000499113 0.00412541 0
0.000490547 0.00507966 0
0.00029736 0.0058288 0
-6.83082e-05 0.00642383 0
-0.000587852 0.00689031 0
-0.0012422 0.00724175 0
-0.0020137 0.00748818 0
-0.00288791 0.00764277 0
-0.00385637 0.00773044 0
-0.00435084 0.00780679 0
-0.00491457 0.00798883 0
-0.00608838 0.00783912 0
-0.00728888 0.00746871 0
-0.00848819 0.00692931 0
-0.00966221 0.00624522 0
-0.010788 0.00542908 0
-0.0118403 0.00448929 0
-0.0127889 0.00343427 0
-0.0135991 0.00227517 0
-0.0142319 0.00102746 0
-0.0146466 -0.000289854 0
-0.0149479 -0.00166096 0
-0.014956 -0.00309916 0
-0.0144985 -0.00443913 0
-0.0137099 -0.00565103 0
-0.0126066 -0.0066839 0
-0.0112287 -0.00748827 0
-0.00963826 -0.00802694 0
-0.00791354 -0.00828145 0
-0.00614117 -0.00825563 0
-0.00440623 -0.00797655 0
-0.00278228 -0.00749353 0
-0.00132234 -0.00687776 0
-0.000514183 -0.00622893 0
7.77045e-05 -0.00568681 0
0.0008971 -0.00491924 0
0.00148475 -0.00408133 0
0.00184938 -0.00325652 0
0.0020145 -0.0024932 0
0.00201214 -0.00182002 0
0.00187782 -0.00125288 0
0.00164763 -0.000798694 0
0.00135639 -0.000457484 0
0.00103663 -0.00022337 0
0.000717975 -8.45566e-05 0
0.000427521 -2.23901e-05 0
0.000192237 -9.7194e-06 0
4.59377e-05 -1.05351e-05 0
6.26149e-05 0.000970041 0
0.000205844 0.00265564 0
0.000308099 0.00405967 0
0.000253846 0.00520385 0
-7.60897e-06 0.00613129 0
-0.00048674 0.00687703 0
-0.00117404 0.00746436 0
-0.00205149 0.00790935 0
-0.00309868 0.0082265 0
-0.00429661 0.00843478 0
-0.00563009 0.00856571 0
-0.00631267 0.00867719 0
-0.00708116 0.00885993 0
-0.00867762 0.00870903 0
-0.0103112 0.00832012 0
-0.0119484 0.00774716 0
-0.0135547 0.00701707 0
-0.0150955 0.00614266 0
-0.0165328 0.00513068 0
-0.0178232 0.00398712 0
-0.0189176 0.00272076 0
-0.0197621 0.00134547 0
-0.0203015 -0.000120204 0
-0.0206912 -0.00165947 0
-0.020687 -0.00327703 0
-0.0200505 -0.00481234 0
-0.0189735 -0.00621911 0
-0.0174777 -0.0074335 0
-0.0156169 -0.00839358 0
-0.0134727 -0.00905108 0
-0.0111476 -0.00937933 0
-0.00875428 -0.00937819 0
-0.00640393 -0.00907584 0
-0.00419376 -0.00852812 0
-0.00219725 -0.00781737 0
-0.00109033 -0.0070541 0
-0.00028175 -0.00637009 0
0.000839822 -0.00545311 0
0.00165174 -0.00445714 0
0.00216939 -0.00347612 0
0.0024234 -0.00256714 0
0.00245464 -0.00176481 0
0.00230886 -0.00108906 0
0.00203299 -0.00054968 0
0.00167282 -0.000148875 0
0.00127165 0.000117362 0
0.000869938 0.000258717 0
0.000506074 0.00029022 0
0.000218647 0.000231028 0
4.94872e-05 0.000100124 0
2.51522e-05 0.000863707 0
7.45398e-05 0.00253636 0
6.76126e-05 0.00407144 0
-9.03459e-05 0.00541353 0
-0.000461319 0.00655097 0
-0.00107395 0.0074898 0
-0.00193233 0.00824137 0
-0.00302548 0.00881915 0
-0.00433468 0.00924005 0
-0.00583858 0.00952798 0
-0.00751555 0.00971948 0
-0.00837381 0.00987136 0
-0.0093346 0.0100535 0
-0.0113293 0.00989869 0
-0.0133703 0.00948694 0
-0.0154194 0.00887093 0
-0.0174335 0.00807897 0
-0.0193662 0.00712384 0
-0.021167 0.00601045 0
-0.022779 0.00474198 0
-0.0241388 0.00332453 0
-0.0251789 0.00177035 0
-0.0258311 9.82387e-05 0
-0.0263005 -0.00167109 0
-0.0262842 -0.00352822 0
-0.0254836 -0.00532528 0
-0.024144 -0.00699348 0
-0.0222914 -0.00845138 0
-0.0199907 -0.00962086 0
-0.01734 -0.0104394 0
-0.0144617 -0.0108698 0
-0.0114915 -0.0109065 0
-0.00856409 -0.0105785 0
-0.00579939 -0.00994911 0
-0.00329213 -0.00911265 0
-0.00190255 -0.00819035 0
-0.00088564 -0.00731267 0
0.000533211 -0.0061929 0
0.0015704 -0.00498679 0
0.00224841 -0.00379897 0
0.00260515 -0.00269668 0
0.00268947 -0.00172212 0
0.00255603 -0.000900737 0
0.00226137 -0.000246466 0
0.00186117 0.000235129 0
0.0014088 0.000544911 0
0.000954734 0.000688832 0
0.000546833 0.000676468 0
0.000230993 0.000518574 0
5.08602e-05 0.000223061 0
-3.40242e-06 0.000836388 0
-4.11482e-05 0.00255036 0
-0.000175648 0.00422415 0
-0.000474618 0.00576878 0
-0.000994286 0.00713335 0
-0.00177005 0.00829395 0
-0.00281601 0.00924412 0
-0.0041292 0.00998929 0
-0.00569502 0.010545 0
-0.00749194 0.0109375 0
-0.00949374 0.0112058 0
-0.0105159 0.0114038 0
-0.0116579 0.0115856 0
-0.0140311 0.0114237 0
-0.0164585 0.0109841 0
-0.018898 0.0103153 0
-0.0212987 0.00944544 0
-0.023604 0.00838636 0
-0.025751 0.00714083 0
-0.02767 0.00570898 0
-0.0292843 0.00409414 0
-0.0305135 0.00230725 0
-0.0312789 0.00036878 0
-0.0318263 -0.00169335 0
-0.0318046 -0.00385152 0
-0.0308654 -0.00597745 0
-0.0292971 -0.0079747 0
-0.0271284 -0.00973997 0
-0.024432 -0.0111754 0
-0.0213184 -0.0122012 0
-0.017927 -0.0127665 0
-0.0144138 -0.0128585 0
-0.0109358 -0.0125063 0
-0.00763644 -0.0117802 0
-0.00463272 -0.0107872 0
-0.00297072 -0.00966093 0
-0.0017481 -0.0085385 0
-2.62314e-05 -0.00716107 0
0.00124614 -0.00569134 0
0.00209828 -0.00424567 0
0.00257549 -0.00290238 0
0.00273439 -0.0017126 0
0.00263793 -0.000708735 0
0.00235148 8.97753e-05 0
0.00193985 0.000672694 0
0.0014655 0.00103646 0
0.00098737 0.00118228 0
0.000560204 0.00111423 0
0.00023368 0.000837137 0
5.07183e-05 0.000354345 0
-2.62917e-05 0.000877366 0
-0.000142197 0.00271089 0
-0.000406455 0.00455871 0
-0.000864484 0.00632238 0
-0.00156002 0.00792902 0
-0.00252594 0.00933161 0
-0.00377988 0.0105056 0
-0.00532407 0.0114456 0
-0.00714782 0.012162 0
-0.00923055 0.0126804 0
-0.0115435 0.0130396 0
-0.0127205 0.0132898 0
-0.0140348 0.0134735 0
-0.0167708 0.0133015 0
-0.0195689 0.0128281 0
-0.0223824 0.0120965 0
-0.0251542 0.0111323 0
-0.0278186 0.00994582 0
-0.0303018 0.00853688 0
-0.0325224 0.00690238 0
-0.0343917 0.00504295 0
-0.0358182 0.00296882 0
-0.0367137 0.000703771 0
-0.0373468 -0.00171406 0
-0.0373356 -0.00423598 0
-0.036299 -0.00675909 0
-0.0345495 -0.0091551 0
-0.032115 -0.0112953 0
-0.0290716 -0.0130588 0
-0.0255381 -0.0143447 0
-0.0216672 -0.0150855 0
-0.0176333 -0.0152577 0
-0.0136164 -0.0148881 0
-0.00978463 -0.0140535 0
-0.00627988 -0.012874 0
-0.00434459 -0.0114991 0
-0.00290965 -0.0100816 0
-0.000864226 -0.00838989 0
0.000666252 -0.00660089 0
0.00171703 -0.00484461 0
0.00234072 -0.00321148 0
0.00260155 -0.00176273 0
0.00257048 -0.000539039 0
0.0023212 0.000433275 0
0.00192698 0.0011381 0
0.00145824 0.00156661 0
0.00098076 0.0017152 0
0.000554049 0.00158376 0
0.000229699 0.00117442 0
4.95071e-05 0.000490776 0
-4.56629e-05 0.000980766 0
-0.000231926 0.00302273 0
-0.000621673 0.00509996 0
-0.00124437 0.00711466 0
-0.00213066 0.00898426 0
-0.00330598 0.0106471 0
-0.00478588 0.0120643 0
-0.00657369 0.0132193 0
-0.00866065 0.0141162 0
-0.0110271 0.014777 0
-0.0136432 0.0152385 0
-0.0149693 0.0155467 0
-0.0164499 0.015736 0
-0.0195375 0.0155513 0
-0.0226956 0.0150379 0
-0.0258733 0.014233 0
-0.029008 0.0131588 0
-0.0320268 0.011822 0
-0.0348469 0.0102194 0
-0.037377 0.0083441 0
-0.0395185 0.00619426 0
-0.0411701 0.00378003 0
-0.0422354 0.00112984 0
-0.0429743 -0.00170572 0
-0.0430017 -0.00465527 0
-0.0419324 -0.00764553 0
-0.0400698 -0.0105136 0
-0.0374361 -0.0131028 0
-0.034105 -0.0152657 0
-0.0301976 -0.0168765 0
-0.0258761 -0.0178457 0
-0.0213319 -0.018135 0
-0.0167688 -0.0177648 0
-0.0123832 -0.0168164 0
-0.00834592 -0.0154232 0
-0.00612034 -0.0137555 0
-0.00445291 -0.0119921 0
-0.00204189 -0.0099272 0
-0.000211169 -0.00776026 0
0.00107955 -0.00563763 0
0.00188958 -0.00366304 0
0.00229039 -0.00190905 0
0.00236066 -0.000425967 0
0.00218207 0.000751752 0
0.00183577 0.00160118 0
0.00139933 0.00210795 0
0.000944274 0.00226427 0
0.00053384 0.0020677 0
0.000221139 0.00152053 0
4.75862e-05 0.000629731 0
-6.27366e-05 0.00114389 0
-0.00031313 0.00348852 0
-0.000822092 0.00586362 0
-0.00160825 0.00817504 0
-0.00269091 0.0103374 0
-0.00408652 0.0122814 0
-0.00580502 0.0139589 0
-0.00784732 0.0153446 0
-0.0102041 0.0164361 0
-0.0128557 0.0172511 0
-0.0157719 0.0178232 0
-0.0172447 0.0181946 0
-0.0188882 0.0183938 0
-0.0223215 0.0181947 0
-0.0258352 0.0176357 0
-0.0293748 0.0167482 0
-0.0328737 0.0155493 0
-0.0362537 0.014042 0
-0.0394259 0.0122185 0
-0.0422915 0.0100683 0
-0.0447443 0.0075869 0
-0.0466753 0.0047846 0
-0.0479803 0.00169513 0
-0.0488612 -0.0016178 0
-0.0489722 -0.00505986 0
-0.0479671 -0.00858924 0
-0.0460894 -0.0120078 0
-0.0433487 -0.0151301 0
-0.0398074 -0.0177789 0
-0.0355814 -0.0197978 0
-0.030837 -0.0210692 0
-0.0257808 -0.0215322 0
-0.0206421 -0.0211951 0
-0.015651 -0.0201393 0
-0.0110142 -0.0185117 0
-0.00845983 -0.0165084 0
-0.00652111 -0.0143455 0
-0.00367189 -0.0118452 0
-0.00147089 -0.00923763 0
0.000126087 -0.0066882 0
0.00118365 -0.00431536 0
0.00177957 -0.00220445 0
0.00199976 -0.000417014 0
0.00193375 0.00100307 0
0.00167042 0.00202532 0
0.00129434 0.00262987 0
0.000882626 0.00280574 0
0.000502426 0.00254987 0
0.000209117 0.00186686 0
4.51621e-05 0.000769018 0
-7.82062e-05 0.00136583 0
-0.000387779 0.00411064 0
-0.00100942 0.00686053 0
-0.00195444 0.0095248 0
-0.00323307 0.0120185 0
-0.00485295 0.0142698 0
-0.00681694 0.0162256 0
-0.00912121 0.0178555 0
-0.0117538 0.019152 0
-0.0146939 0.0201293 0
-0.0179111 0.0208179 0
-0.0195304 0.021257 0
-0.0213361 0.021471 0
-0.0251151 0.0212571 0
-0.0289868 0.0206486 0
-0.0328948 0.0196713 0
-0.0367705 0.018337 0
-0.0405333 0.0166436 0
-0.044091 0.0145787 0
-0.0473409 0.0121275 0
-0.0501726 0.00928228 0
-0.0524713 0.00605334 0
-0.0541248 0.00247865 0
-0.0552051 -0.00136646 0
-0.0554666 -0.00536687 0
-0.0546659 -0.0095092 0
-0.052913 -0.0135642 0
-0.0501941 -0.0173184 0
-0.0465485 -0.0205617 0
-0.0420763 -0.0231003 0
-0.0369406 -0.024779 0
-0.0313603 -0.0255039 0
-0.0255928 -0.0252613 0
-0.0199084 -0.0241255 0
-0.0145602 -0.0222554 0
-0.0116119 -0.0198769 0
-0.00933872 -0.017255 0
-0.00593678 -0.0142528 0
-0.00325601 -0.011137 0
-0.00125044 -0.00809332 0
0.000147063 -0.0052566 0
0.00101871 -0.00272721 0
0.00145694 -0.000580116 0
0.00155923 0.00112965 0
0.00142285 0.00236323 0
0.00114019 0.00309536 0
0.000795012 0.00331269 0
0.000459721 0.00301298 0
0.000193642 0.00220463 0
4.22322e-05 0.000906454 0
-9.24807e-05 0.00164657 0
-0.000457201 0.00489158 0
-0.00118531 0.00809872 0
-0.00228306 0.0111796 0
-0.00375361 0.0140508 0
-0.00559678 0.016641 0
-0.00780813 0.018896 0
-0.0103781 0.0207835 0
-0.0132907 0.0222942 0
-0.0165231 0.02344 0
-0.0200447 0.0242497 0
-0.0218116 0.0247608 0
-0.0237812 0.0249951 0
-0.0279117 0.0247682 0
-0.0321517 0.0241097 0
-0.0364447 0.0230401 0
-0.0407232 0.021566 0
-0.0449073 0.0196798 0
-0.048906 0.017364 0
-0.0526173 0.0145988 0
-0.05593 0.0113728 0
-0.0587264 0.00769413 0
-0.0608859 0.00360186 0
-0.0622488 -0.000822023 0
-0.0627556 -0.00544736 0
-0.0623552 -0.0102775 0
-0.0609213 -0.0150645 0
-0.0584024 -0.0195701 0
-0.0547985 -0.0235482 0
-0.0501798 -0.026759 0
-0.0446959 -0.0289963 0
-0.0385736 -0.0301185 0
-0.0321004 -0.0300747 0
-0.0255953 -0.0289212 0
-0.0193718 -0.0268223 0
-0.0159333 -0.0240361 0
-0.0132321 -0.0208869 0
-0.0091074 -0.0173126 0
-0.00578338 -0.0136153 0
-0.0032167 -0.00999987 0
-0.00134295 -0.00661953 0
-7.8749e-05 -0.00359352 0
0.00067394 -0.00101399 0
0.00102126 0.0010502 0
0.00107049 0.00255039 0
0.000924012 0.00345562 0
0.000674642 0.0037508 0
0.000402552 0.00343546 0
0.000173559 0.00252289 0
3.85675e-05 0.00103922 0
-0.000105804 0.00198651 0
-0.000522252 0.00583367 0
-0.00135101 0.00958426 0
-0.00259471 0.0131507 0
-0.00425101 0.0164514 0
-0.00631307 0.0194172 0
-0.00876976 0.021996 0
-0.0116056 0.0241567 0
-0.0148002 0.0258911 0
-0.0183284 0.0272116 0
-0.0221589 0.0281472 0
-0.0240748 0.0287356 0
-0.026212 0.0289975 0
-0.0307059 0.0287632 0
-0.0353322 0.0280597 0
-0.0400378 0.0269031 0
-0.0447593 0.0252951 0
-0.0494229 0.0232229 0
-0.0539436 0.0206636 0
-0.0582255 0.0175919 0
-0.0621619 0.0139909 0
-0.0656349 0.00986275 0
-0.0685144 0.00524105 0
-0.0702729 0.000204842 0
-0.0711524 -0.00511209 0
-0.0714155 -0.0107046 0
-0.0705617 -0.0163307 0
-0.0684823 -0.0217349 0
-0.0651179 -0.026631 0
-0.0604908 -0.0307216 0
-0.0547239 -0.0337331 0
-0.0480449 -0.035455 0
-0.0407714 -0.0357784 0
-0.03328 -0.0347229 0
-0.0259618 -0.032446 0
-0.0219045 -0.0292345 0
-0.0186461 -0.0254794 0
-0.0135579 -0.0212625 0
-0.00935557 -0.0169053 0
-0.00600798 -0.0126262 0
-0.00346264 -0.00860076 0
-0.00164007 -0.00497401 0
-0.000437786 -0.0018618 0
0.000260614 0.000648552 0
0.000575522 0.00249601 0
0.00062302 0.003643 0
0.000508881 0.00407282 0
0.000324824 0.00378752 0
0.000146643 0.00280616 0
3.3734e-05 0.00116304 0
-0.000118311 0.00238608 0
-0.000583419 0.00693866 0
-0.00150725 0.0113212 0
-0.00288974 0.0154457 0
-0.00472424 0.0192322 0
-0.00699844 0.0226149 0
-0.00969539 0.0255458 0
-0.0127942 0.0279983 0
-0.0162705 0.0299681 0
-0.0200965 0.0314714 0
-0.0242409 0.0325398 0
-0.026307 0.0332134 0
-0.0286164 0.0335133 0
-0.0334908 0.0332828 0
-0.0385293 0.0325476 0
-0.0436857 0.0313208 0
-0.048906 0.0296001 0
-0.0541276 0.0273683 0
-0.0592781 0.0245973 0
-0.0642747 0.0212556 0
-0.0690209 0.0173174 0
-0.0734015 0.0127726 0
-0.077276 0.00763856 0
-0.0795739 0.00197548 0
-0.0809887 -0.00409797 0
-0.0822529 -0.0105245 0
-0.0823137 -0.0171119 0
-0.0809819 -0.0235965 0
-0.0781153 -0.0296475 0
-0.0736676 -0.0348966 0
-0.0677187 -0.0389808 0
-0.0604861 -0.0415947 0
-0.0523149 -0.0425422 0
-0.0436455 -0.0417788 0
-0.0349638 -0.0394336 0
-0.030132 -0.0358089 0
-0.0261499 -0.0313626 0
-0.0197707 -0.0264419 0
-0.0143643 -0.021343 0
-0.0099301 -0.0162884 0
-0.00644252 -0.0114839 0
-0.00383335 -0.00711345 0
-0.00199664 -0.00332758 0
-0.000802968 -0.000239731 0
-0.000114023 0.00207233 0
0.000205555 0.00356254 0
0.000280095 0.0042123 0
0.000218072 0.00402682 0
0.000109845 0.00303199 0
2.71528e-05 0.00127144 0
-0.000130046 0.00284547 0
-0.00064084 0.00820722 0
-0.00165412 0.0133115 0
-0.00316777 0.0180684 0
-0.00517174 0.0224 0
-0.00764937 0.0262442 0
-0.0105789 0.0295594 0
-0.0139351 0.0323259 0
-0.01769 0.0345464 0
-0.021814 0.0362438 0
-0.0262763 0.0374555 0
-0.0284928 0.0382266 0
-0.0309799 0.0385801 0
-0.0362559 0.038373 0
-0.0417388 0.0376311 0
-0.0473942 0.0363666 0
-0.0531829 0.0345752 0
-0.0590601 0.0322367 0
-0.0649743 0.0293185 0
-0.0708628 0.0257813 0
-0.0766458 0.0215857 0
-0.0822142 0.0166997 0
-0.0874147 0.0111082 0
-0.0904221 0.00482943 0
-0.0925667 -0.0020598 0
-0.0952402 -0.00938767 0
-0.0966194 -0.0170759 0
-0.0964086 -0.0248639 0
-0.0943596 -0.0323698 0
-0.0903367 -0.0391382 0
-0.0843584 -0.0446927 0
-0.076617 -0.0486014 0
-0.0674757 -0.0505448 0
-0.0574384 -0.0503764 0
-0.0470979 -0.048162 0
-0.0413265 -0.0441918 0
-0.03642 -0.0389779 0
-0.0283229 -0.0333199 0
-0.0212788 -0.0273981 0
-0.0153501 -0.0214278 0
-0.0105605 -0.0156642 0
-0.00686228 -0.0103518 0
-0.00414687 -0.00569391 0
-0.00226762 -0.00184183 0
-0.0010617 0.00110309 0
-0.000366917 0.00308318 0
-3.29427e-05 0.00407726 0
7.22983e-05 0.00409439 0
5.96684e-05 0.00316873 0
1.81856e-05 0.0013551 0
-0.00014097 0.00336423 0
-0.000694291 0.00963821 0
-0.00179095 0.0155536 0
-0.00342726 0.0210183 0
-0.00559055 0.0259556 0
-0.00826082 0.0303087 0
-0.0114127 0.0340437 0
-0.0150175 0.0371501 0
-0.0190449 0.039641 0
-0.0234646 0.0415487 0
-0.0282467 0.0429196 0
-0.0306122 0.0438066 0
-0.0332821 0.0442364 0
-0.0389827 0.044083 0
-0.0449463 0.0433748 0
-0.0511556 0.0421257 0
-0.0575926 0.0403321 0
-0.0642383 0.0379732 0
-0.0710697 0.0350127 0
-0.0780526 0.0314013 0
-0.0851294 0.0270792 0
-0.0921996 0.021978 0
-0.099094 0.0160284 0
-0.102994 0.00917727 0
-0.106083 0.00142588 0
-0.110623 -0.00686625 0
-0.113769 -0.0158165 0
-0.115097 -0.0251746 0
-0.114234 -0.0345 0
-0.110939 -0.0432333 0
-0.105152 -0.05076 0
-0.0970205 -0.0564886 0
-0.0869063 -0.0599359 0
-0.0753633 -0.0608059 0
-0.0630898 -0.059051 0
-0.0562399 -0.054902 0
-0.0501879 -0.0488907 0
-0.0398429 -0.0425191 0
-0.0306126 -0.035697 0
-0.0226739 -0.0286335 0
-0.0161275 -0.0216687 0
-0.0109571 -0.015143 0
-0.00705271 -0.00933833 0
-0.0042454 -0.00446155 0
-0.00233986 -0.000647601 0
-0.00113787 0.00202941 0
-0.000453762 0.0035444 0
-0.000123279 0.00391109 0
-7.5049e-06 0.00317392 0
6.2101e-06 0.00140153 0
-0.000150955 0.00394097 0
-0.000743155 0.0112278 0
-0.00191616 0.0180421 0
-0.00366515 0.0242888 0
-0.0059756 0.0298931 0
-0.00882512 0.0348042 0
-0.0121858 0.0389971 0
-0.0160269 0.0424735 0
-0.0203169 0.0452589 0
-0.0250257 0.0473988 0
-0.030126 0.0489515 0
-0.0326369 0.0499805 0
-0.0354932 0.0505186 0
-0.0416399 0.0504626 0
-0.0481204 0.0498467 0
-0.0549399 0.0486902 0
-0.0621088 0.0469943 0
-0.0696414 0.0447403 0
-0.0775509 0.0418889 0
-0.0858383 0.0383772 0
-0.0944726 0.0341144 0
-0.103361 0.0289778 0
-0.112315 0.0228165 0
-0.117282 0.0154718 0
-0.121525 0.0068354 0
-0.128389 -0.00248473 0
-0.133745 -0.0128827 0
-0.137027 -0.0241176 0
-0.137735 -0.0356804 0
-0.135517 -0.0468931 0
-0.130221 -0.056983 0
-0.121927 -0.0651717 0
-0.110967 -0.0707735 0
-0.0979075 -0.0732922 0
-0.0835259 -0.0725027 0
-0.0755428 -0.068505 0
-0.0681338 -0.061787 0
-0.0549277 -0.0548177 0
-0.0428688 -0.0470257 0
-0.0323136 -0.0386471 0
-0.02347 -0.0301656 0
-0.0163667 -0.0220664 0
-0.010895 -0.0147462 0
-0.00686111 -0.00849148 0
-0.00402941 -0.00348561 0
-0.00215567 0.00017327 0
-0.00100822 0.00245362 0
-0.000380243 0.00337446 0
-9.54194e-05 0.00299294 0
-9.37908e-06 0.00139491 0
-0.000159776 0.00457287 0
-0.000786383 0.0129683 0
-0.00202714 0.0207655 0
-0.00387662 0.0278663 0
-0.00631917 0.034198 0
-0.00933105 0.0397166 0
-0.012883 0.044408 0
-0.0169434 0.0482878 0
-0.0214808 0.0513971 0
-0.0264668 0.0537971 0
-0.0318776 0.0555615 0
-0.0345272 0.0567672 0
-0.0375705 0.0574558 0
-0.0441784 0.0575558 0
-0.0512055 0.0571112 0
-0.0586851 0.0561514 0
-0.0666618 0.0546867 0
-0.0751899 0.052704 0
-0.0843248 0.0501605 0