# vtk DataFile Version 2.0
Presion
ASCII

DATASET STRUCTURED_GRID
DIMENSIONS   50   50   20

POINTS   50000   double
0.00568455   0.00568455   0.025
0.0174023   0.00568455   0.025
0.0298294   0.00568455   0.025
0.0429888   0.00568455   0.025
0.0569012   0.00568455   0.025
0.0715849   0.00568455   0.025
0.0870549   0.00568455   0.025
0.103323   0.00568455   0.025
0.120395   0.00568455   0.025
0.138275   0.00568455   0.025
0.156961   0.00568455   0.025
0.176443   0.00568455   0.025
0.196707   0.00568455   0.025
0.217734   0.00568455   0.025
0.239496   0.00568455   0.025
0.261959   0.00568455   0.025
0.285082   0.00568455   0.025
0.308818   0.00568455   0.025
0.333113   0.00568455   0.025
0.357906   0.00568455   0.025
0.383132   0.00568455   0.025
0.408719   0.00568455   0.025
0.434592   0.00568455   0.025
0.460672   0.00568455   0.025
0.486877   0.00568455   0.025
0.513123   0.00568455   0.025
0.539328   0.00568455   0.025
0.565408   0.00568455   0.025
0.591281   0.00568455   0.025
0.616868   0.00568455   0.025
0.642094   0.00568455   0.025
0.666887   0.00568455   0.025
0.691182   0.00568455   0.025
0.714918   0.00568455   0.025
0.738041   0.00568455   0.025
0.760504   0.00568455   0.025
0.782266   0.00568455   0.025
0.803293   0.00568455   0.025
0.823557   0.00568455   0.025
0.843039   0.00568455   0.025
0.861725   0.00568455   0.025
0.879605   0.00568455   0.025
0.896677   0.00568455   0.025
0.912945   0.00568455   0.025
0.928415   0.00568455   0.025
0.943099   0.00568455   0.025
0.957011   0.00568455   0.025
0.970171   0.00568455   0.025
0.982598   0.00568455   0.025
0.994315   0.00568455   0.025
0.00568455   0.0174023   0.025
0.0174023   0.0174023   0.025
0.0298294   0.0174023   0.025
0.0429888   0.0174023   0.025
0.0569012   0.0174023   0.025
0.0715849   0.0174023   0.025
0.0870549   0.0174023   0.025
0.103323   0.0174023   0.025
0.120395   0.0174023   0.025
0.138275   0.0174023   0.025
0.156961   0.0174023   0.025
0.176443   0.0174023   0.025
0.196707   0.0174023   0.025
0.217734   0.0174023   0.025
0.239496   0.0174023   0.025
0.261959   0.0174023   0.025
0.285082   0.0174023   0.025
0.308818   0.0174023   0.025
0.333113   0.0174023   0.025
0.357906   0.0174023   0.025
0.383132   0.0174023   0.025
0.408719   0.0174023   0.025
0.434592   0.0174023   0.025
0.460672   0.0174023   0.025
0.486877   0.0174023   0.025
0.513123   0.0174023   0.025
0.539328   0.0174023   0.025
0.565408   0.0174023   0.025
0.591281   0.0174023   0.025
0.616868   0.0174023   0.025
0.642094   0.0174023   0.025
0.666887   0.0174023   0.025
0.691182   0.0174023   0.025
0.714918   0.0174023   0.025
0.738041   0.0174023   0.025
0.760504   0.0174023   0.025
0.782266   0.0174023   0.025
0.803293   0.0174023   0.025
0.823557   0.0174023   0.025
0.843039   0.0174023   0.025
0.861725   0.0174023   0.025
0.879605   0.0174023   0.025
0.896677   0.0174023   0.025
0.912945   0.0174023   0.025
0.928415   0.0174023   0.025
0.943099   0.0174023   0.025
0.957011   0.0174023   0.025
0.970171   0.0174023   0.025
0.982598   0.0174023   0.025
0.994315   0.0174023   0.025
0.00568455   0.0298294   0.025
0.0174023   0.0298294   0.025
0.0298294   0.0298294   0.025
0.0429888   0.0298294   0.025
0.0569012   0.0298294   0.025
0.0715849   0.0298294   0.025
0.0870549   0.0298294   0.025
0.103323   0.0298294   0.025
0.120395   0.0298294   0.025
0.138275   0.0298294   0.025
0.156961   0.0298294   0.025
0.176443   0.0298294   0.025
0.196707   0.0298294   0.025
0.217734   0.0298294   0.025
0.239496   0.0298294   0.025
0.261959   0.0298294   0.025
0.285082   0.0298294   0.025
0.308818   0.0298294   0.025
0.333113   0.0298294   0.025
0.357906   0.0298294   0.025
0.383132   0.0298294   0.025
0.408719   0.0298294   0.025
0.434592   0.0298294   0.025
0.460672   0.0298294   0.025
0.486877   0.0298294   0.025
0.513123   0.0298294   0.025
0.539328   0.0298294   0.025
0.565408   0.0298294   0.025
0.591281   0.0298294   0.025
0.616868   0.0298294   0.025
0.642094   0.0298294   0.025
0.666887   0.0298294   0.025
0.691182   0.0298294   0.025
0.714918   0.0298294   0.025
0.738041   0.0298294   0.025
0.760504   0.0298294   0.025
0.782266   0.0298294   0.025
0.803293   0.0298294   0.025
0.823557   0.0298294   0.025
0.843039   0.0298294   0.025
0.861725   0.0298294   0.025
0.879605   0.0298294   0.025
0.896677   0.0298294   0.025
0.912945   0.0298294   0.025
0.928415   0.0298294   0.025
0.943099   0.0298294   0.025
0.957011   0.0298294   0.025
0.970171   0.0298294   0.025
0.982598   0.0298294   0.025
0.994315   0.0298294   0.025
0.00568455   0.0429888   0.025
0.0174023   0.0429888   0.025
0.0298294   0.0429888   0.025
0.0429888   0.0429888   0.025
0.0569012   0.0429888   0.025
0.0715849   0.0429888   0.025
0.0870549   0.0429888   0.025
0.103323   0.0429888   0.025
0.120395   0.0429888   0.025
0.138275   0.0429888   0.025
0.156961   0.0429888   0.025
0.176443   0.0429888   0.025
0.196707   0.0429888   0.025
0.217734   0.0429888   0.025
0.239496   0.0429888   0.025
0.261959   0.0429888   0.025
0.285082   0.0429888   0.025
0.308818   0.0429888   0.025
0.333113   0.0429888   0.025
0.357906   0.0429888   0.025
0.383132   0.0429888   0.025
0.408719   0.0429888   0.025
0.434592   0.0429888   0.025
0.460672   0.0429888   0.025
0.486877   0.0429888   0.025
0.513123   0.0429888   0.025
0.539328   0.0429888   0.025
0.565408   0.0429888   0.025
0.591281   0.0429888   0.025
0.616868   0.0429888   0.025
0.642094   0.0429888   0.025
0.666887   0.0429888   0.025
0.691182   0.0429888   0.025
0.714918   0.0429888   0.025
0.738041   0.0429888   0.025
0.760504   0.0429888   0.025
0.782266   0.0429888   0.025
0.803293   0.0429888   0.025
0.823557   0.0429888   0.025
0.843039   0.0429888   0.025
0.861725   0.0429888   0.025
0.879605   0.0429888   0.025
0.896677   0.0429888   0.025
0.912945   0.0429888   0.025
0.928415   0.0429888   0.025
0.943099   0.0429888   0.025
0.957011   0.0429888   0.025
0.970171   0.0429888   0.025
0.982598   0.0429888   0.025
0.994315   0.0429888   0.025
0.00568455   0.0569012   0.025
0.0174023   0.0569012   0.025
0.0298294   0.0569012   0.025
0.0429888   0.0569012   0.025
0.0569012   0.0569012   0.025
0.0715849   0.0569012   0.025
0.0870549   0.0569012   0.025
0.103323   0.0569012   0.025
0.120395   0.0569012   0.025
0.138275   0.0569012   0.025
0.156961   0.0569012   0.025
0.176443   0.0569012   0.025
0.196707   0.0569012   0.025
0.217734   0.0569012   0.025
0.239496   0.0569012   0.025
0.261959   0.0569012   0.025
0.285082   0.0569012   0.025
0.308818   0.0569012   0.025
0.333113   0.0569012   0.025
0.357906   0.0569012   0.025
0.383132   0.0569012   0.025
0.408719   0.0569012   0.025
0.434592   0.0569012   0.025
0.460672   0.0569012   0.025
0.486877   0.0569012   0.025
0.513123   0.0569012   0.025
0.539328   0.0569012   0.025
0.565408   0.0569012   0.025
0.591281   0.0569012   0.025
0.616868   0.0569012   0.025
0.642094   0.0569012   0.025
0.666887   0.0569012   0.025
0.691182   0.0569012   0.025
0.714918   0.0569012   0.025
0.738041   0.0569012   0.025
0.760504   0.0569012   0.025
0.782266   0.0569012   0.025
0.803293   0.0569012   0.025
0.823557   0.0569012   0.025
0.843039   0.0569012   0.025
0.861725   0.0569012   0.025
0.879605   0.0569012   0.025
0.896677   0.0569012   0.025
0.912945   0.0569012   0.025
0.928415   0.0569012   0.025
0.943099   0.0569012   0.025
0.957011   0.0569012   0.025
0.970171   0.0569012   0.025
0.982598   0.0569012   0.025
0.994315   0.0569012   0.025
0.00568455   0.0715849   0.025
0.0174023   0.0715849   0.025
0.0298294   0.0715849   0.025
0.0429888   0.0715849   0.025
0.0569012   0.0715849   0.025
0.0715849   0.0715849   0.025
0.0870549   0.0715849   0.025
0.103323   0.0715849   0.025
0.120395   0.0715849   0.025
0.138275   0.0715849   0.025
0.156961   0.0715849   0.025
0.176443   0.0715849   0.025
0.196707   0.0715849   0.025
0.217734   0.0715849   0.025
0.239496   0.0715849   0.025
0.261959   0.0715849   0.025
0.285082   0.0715849   0.025
0.308818   0.0715849   0.025
0.333113   0.0715849   0.025
0.357906   0.0715849   0.025
0.383132   0.0715849   0.025
0.408719   0.0715849   0.025
0.434592   0.0715849   0.025
0.460672   0.0715849   0.025
0.486877   0.0715849   0.025
0.513123   0.0715849   0.025
0.539328   0.0715849   0.025
0.565408   0.0715849   0.025
0.591281   0.0715849   0.025
0.616868   0.0715849   0.025
0.642094   0.0715849   0.025
0.666887   0.0715849   0.025
0.691182   0.0715849   0.025
0.714918   0.0715849   0.025
0.738041   0.0715849   0.025
0.760504   0.0715849   0.025
0.782266   0.0715849   0.025
0.803293   0.0715849   0.025
0.823557   0.0715849   0.025
0.843039   0.0715849   0.025
0.861725   0.0715849   0.025
0.879605   0.0715849   0.025
0.896677   0.0715849   0.025
0.912945   0.0715849   0.025
0.928415   0.0715849   0.025
0.943099   0.0715849   0.025
0.957011   0.0715849   0.025
0.970171   0.0715849   0.025
0.982598   0.0715849   0.025
0.994315   0.0715849   0.025
0.00568455   0.0870549   0.025
0.0174023   0.0870549   0.025
0.0298294   0.0870549   0.025
0.0429888   0.0870549   0.025
0.0569012   0.0870549   0.025
0.0715849   0.0870549   0.025
0.0870549   0.0870549   0.025
0.103323   0.0870549   0.025
0.120395   0.0870549   0.025
0.138275   0.0870549   0.025
0.156961   0.0870549   0.025
0.176443   0.0870549   0.025
0.196707   0.0870549   0.025
0.217734   0.0870549   0.025
0.239496   0.0870549   0.025
0.261959   0.0870549   0.025
0.285082   0.0870549   0.025
0.308818   0.0870549   0.025
0.333113   0.0870549   0.025
0.357906   0.0870549   0.025
0.383132   0.0870549   0.025
0.408719   0.0870549   0.025
0.434592   0.0870549   0.025
0.460672   0.0870549   0.025
0.486877   0.0870549   0.025
0.513123   0.0870549   0.025
0.539328   0.0870549   0.025
0.565408   0.0870549   0.025
0.591281   0.0870549   0.025
0.616868   0.0870549   0.025
0.642094   0.0870549   0.025
0.666887   0.0870549   0.025
0.691182   0.0870549   0.025
0.714918   0.0870549   0.025
0.738041   0.0870549   0.025
0.760504   0.0870549   0.025
0.782266   0.0870549   0.025
[...]
POINT_DATA   50000
SCALARS Presion double
LOOKUP_TABLE   Presion

0 0 0 0 0 0 0 0 0 0 0 0 0 0 0 0 0 0 0 0 0 0 0 0 0 0 0 0 0 0 0 0 0 0 0 0 0 0 0 0 0 0 0 0 0 0 0 0 0 0 0.0016625 0.00180996 0.00198796 0.00211671 0.0021817 0.00218408 0.00212844 0.0020199 0.00186334 0.00166302 0.00142235 0.00114305 0.000683259 0.000403967 0.000154691 -6.25025e-05 -0.00024249 -0.000376863 -0.000455812 -0.000470528 -0.000415635 -0.000291219 -0.000103787 0.000134036 0.000385012 0.000634952 0.000850116 0.00100353 0.00107371 0.00104678 0.000918075 0.000692811 0.000385732 1.99666e-05 -0.000374851 -0.000763942 -0.0010127 -0.00137489 -0.00171202 -0.00200657 -0.00224808 -0.00243085 -0.00255198 -0.00261004 -0.00260424 -0.00253411 -0.00239969 -0.00220449 -0.00196898 -0.00178579 0.0021823 0.00217118 0.00222119 0.00227211 0.00229417 0.00227511 0.00221121 0.00210275 0.00195194 0.00176201 0.00153732 0.00128189 0.000761086 0.000508448 0.000273099 6.22139e-05 -0.000116803 -0.000254887 -0.000342287 -0.00037044 -0.000334105 -0.000233203 -7.38117e-05 0.000130354 0.000353426 0.000572037 0.000758146 0.000886222 0.000935961 0.000894338 0.000757141 0.000529559 0.000225706 -0.000132914 -0.00052005 -0.000905554 -0.00108244 -0.00144168 -0.00176792 -0.00204974 -0.00227989 -0.00245465 -0.00257272 -0.0026346 -0.00264236 -0.00260031 -0.00251687 -0.00240942 -0.00231413 -0.00230056 0.00253459 0.00248464 0.00247007 0.00246469 0.002447 0.00240334 0.00232655 0.00221383 0.00206527 0.001883 0.00167149 0.00143401 0.000843547 0.000613374 0.000390424 0.000183918 2.75675e-06 -0.000143336 -0.000244378 -0.000291614 -0.000279363 -0.000206759 -7.89701e-05 8.91032e-05 0.000288928 0.000482195 0.000646771 0.00075804 0.000795792 0.000746563 0.000605457 0.000376901 7.41302e-05 -0.000282654 -0.000669444 -0.00105758 -0.00115861 -0.00152001 -0.00184093 -0.00211469 -0.00233748 -0.00250792 -0.00262665 -0.00269609 -0.00272063 -0.00270735 -0.00266757 -0.00261905 -0.00258772 -0.00260458 0.00282778 0.00276809 0.0027216 0.00267956 0.00263027 0.00256354 0.0024723 0.00235264 0.00220334 0.00202565 0.00182357 0.00159846 0.000933062 0.00071917 0.000504383 0.000298085 0.000109778 -5.03552e-05 -0.000171904 -0.000245454 -0.000264235 -0.000225827 -0.000133712 -3.25672e-06 0.00017525 0.000349285 0.000500113 0.000603711 0.000638984 0.000590813 0.000452435 0.000226611 -7.47519e-05 -0.000432613 -0.000824253 -0.00122041 -0.00124558 -0.00161318 -0.00193324 -0.00220313 -0.00242235 -0.00259194 -0.00271433 -0.00279342 -0.0028348 -0.00284609 -0.0028375 -0.00282194 -0.00281362 -0.00282365 0.00311139 0.00304337 0.00297703 0.00290998 0.00283648 0.00274992 0.00264461 0.00251664 0.0023642 0.00218776 0.00199065 0.00177171 0.00102901 0.0008236 0.000610108 0.000397177 0.0001942 1.15753e-05 -0.000139691 -0.000249039 -0.000307866 -0.000311302 -0.000260098 -0.000168934 -1.1636e-05 0.000148579 0.000293396 0.000399152 0.000442979 0.000406893 0.00028097 6.51524e-05 -0.000230761 -0.000589075 -0.000987764 -0.00139548 -0.0013483 -0.00172478 -0.00204705 -0.00231642 -0.00253545 -0.00270724 -0.00283563 -0.00292534 -0.00298207 -0.00301259 -0.00302458 -0.00302611 -0.00302417 -0.00302238 0.00340512 0.0033234 0.00323939 0.00315246 0.00305954 0.00295619 0.0028379 0.00270101 0.00254329 0.00236451 0.0021671 0.0019471 0.00112722 0.000920723 0.000698922 0.00046941 0.000241044 2.42743e-05 -0.000169105 -0.00032685 -0.000437718 -0.000493366 -0.000490579 -0.00044199 -0.000305794 -0.000155866 -9.84821e-06 0.000108653 0.000174152 0.000164539 6.52239e-05 -0.000128184 -0.000409237 -0.000762264 -0.00116585 -0.00158558 -0.00147317 -0.00185887 -0.00218445 -0.00245545 -0.00267704 -0.00285379 -0.00299024 -0.00309123 -0.00316191 -0.00320764 -0.00323375 -0.00324503 -0.00324501 -0.00323517 0.00371311 0.00361151 0.00350817 0.00340267 0.00329269 0.00317459 0.00304426 0.00289788 0.00273265 0.00254741 0.00234344 0.00211376 0.00121889 0.000999603 0.000756887 0.000497264 0.000228881 -3.77777e-05 -0.00028985 -0.00051281 -0.000691905 -0.000814222 -0.000871232 -0.000872069 -0.000754322 -0.000614555 -0.0004614 -0.000318889 -0.000215977 -0.000180252 -0.000232761 -0.000384234 -0.000633442 -0.000968092 -0.00136794 -0.00179516 -0.00162914 -0.00202035 -0.00234749 -0.00262068 -0.00284692 -0.00303125 -0.00317802 -0.00329151 -0.00337589 -0.00343514 -0.00347286 -0.00349202 -0.00349476 -0.00348225 0.00402956 0.00390263 0.00377722 0.00365263 0.00352633 0.00339445 0.00325236 0.00309548 0.00291992 0.0027232 0.00250505 0.00225538 0.00128912 0.00104277 0.000763158 0.000455781 0.000128088 -0.00020926 -0.000541942 -0.00085249 -0.00112172 -0.00133102 -0.00146517 -0.00152828 -0.00142107 -0.00129658 -0.00113275 -0.000954719 -0.000795721 -0.000690263 -0.000667963 -0.000748467 -0.000938417 -0.00123113 -0.00160898 -0.00203124 -0.00182945 -0.00221602 -0.0025388 -0.00281257 -0.00304475 -0.00323932 -0.0033993 -0.00352761 -0.00362715 -0.00370064 -0.00375049 -0.00377876 -0.00378719 -0.00377718 0.00434054 0.00418389 0.00403374 0.00388892 0.00374616 0.00360053 0.00344614 0.00327687 0.00308713 0.00287258 0.00263092 0.00234886 0.00131525 0.0010246 0.000688286 0.000310831 -0.000100902 -0.000535801 -0.000977597 -0.00140515 -0.00179389 -0.00211837 -0.00235538 -0.00250233 -0.00239071 -0.00229385 -0.00211977 -0.00189545 -0.00165902 -0.0014533 -0.00131883 -0.00128731 -0.00137679 -0.00158952 -0.00191305 -0.00230563 -0.00209466 -0.00245643 -0.00276294 -0.00303266 -0.0032709 -0.0034784 -0.00365525 -0.00380207 -0.00392001 -0.00401053 -0.00407518 -0.00411558 -0.00413339 -0.0041304 0.00462417 0.00443453 0.00425756 0.00409143 0.00393164 0.0037716 0.0036034 0.00341871 0.00320955 0.00296911 0.00269249 0.00236315 0.00126536 0.000909792 0.000492728 1.76547e-05 -0.000509008 -0.00107533 -0.00166253 -0.002245 -0.00279182 -0.00326954 -0.0036458 -0.00390925 -0.00377214 -0.00372421 -0.00354622 -0.00326731 -0.00293067 -0.00258852 -0.00229456 -0.00209602 -0.00202667 -0.00210229 -0.00231961 -0.00263977 -0.00245754 -0.00275957 -0.0030293 -0.00328572 -0.00352809 -0.00375074 -0.00394867 -0.00411885 -0.00426 -0.00437206 -0.00445573 -0.0045123 -0.0045435 -0.00455147 0.00485028 0.00462564 0.00442059 0.0042324 0.00405487 0.00387915 0.00369468 0.00349019 0.00325469 0.00297828 0.00265279 0.0022585 0.00109714 0.00065239 0.000125971 -0.000479872 -0.00115902 -0.00189833 -0.00267585 -0.00346066 -0.00421445 -0.00489461 -0.00545847 -0.00588341 -0.00569909 -0.00573114 -0.00556344 -0.0052266 -0.00476822 -0.00425017 -0.00374091 -0.00330642 -0.00300092 -0.00285933 -0.00289321 -0.00307358 -0.00297043 -0.00315689 -0.00335694 -0.00358358 -0.00382413 -0.00406233 -0.00428523 -0.00448425 -0.00465454 -0.00479389 -0.0049019 -0.00497944 -0.00502826 -0.00505076 0.00498029 0.00472006 0.00448668 0.00427615 0.00408014 0.00388693 0.00368267 0.00345256 0.00318198 0.00285727 0.0024664 0.00198648 0.000757706 0.00019584 -0.000473155 -0.00124857 -0.00212448 -0.00308607 -0.00410749 -0.00515154 -0.00617132 -0.00711375 -0.00792476 -0.00856722 -0.00832448 -0.00847628 -0.00834211 -0.00795183 -0.00735573 -0.0066241 -0.00584026 -0.00509092 -0.00445492 -0.00399241 -0.00373684 -0.00368006 -0.00371485 -0.00370215 -0.00378194 -0.0039505 -0.00417575 -0.0044256 -0.00467532 -0.00490815 -0.00511387 -0.00528705 -0.00542556 -0.0055295 -0.00560047 -0.00564111 0.00496778 0.004673 0.00441214 0.00417957 0.0039643 0.00375122 0.00352262 0.0032596 0.00294332 0.00255579 0.00208048 0.00149127 0.000184937 -0.000525333 -0.00137429 -0.00236313 -0.00348595 -0.00472574 -0.00605186 -0.00741958 -0.00877196 -0.010044 -0.0111688 -0.0120909 -0.0118046 -0.0121208 -0.0120519 -0.0116231 -0.0108843 -0.00991123 -0.00879965 -0.00765654 -0.00658753 -0.00568317 -0.00500646 -0.00458539 -0.00481066 -0.00448156 -0.00436596 -0.00442971 -0.00461323 -0.00486254 -0.00513625 -0.00540561 -0.00565235 -0.00586605 -0.00604174 -0.00617813 -0.00627638 -0.00633918 0.00476019 0.00443372 0.00414742 0.00389367 0.00365836 0.00342249 0.00316399 0.0028594 0.00248513 0.00201833 0.00143735 0.000712669 -0.000689161 -0.00158153 -0.00265082 -0.00390035 -0.005324 -0.00690176 -0.00859695 -0.0103558 -0.0121094 -0.0137789 -0.0152833 -0.0165449 -0.0162699 -0.0167937 -0.0168268 -0.0163859 -0.015516 -0.0142932 -0.0128207 -0.0112215 -0.00962675 -0.00815968 -0.00691961 -0.00598903 -0.00641829 -0.00562091 -0.00520337 -0.00508915 -0.00518467 -0.00540774 -0.00569422 -0.00599822 -0.00628946 -0.00654972 -0.00676946 -0.00694501 -0.00707647 -0.00716638 0.0043019 0.00394856 0.00364014 0.00336668 0.00311055 0.00284849 0.00255371 0.00219779 0.00175202 0.0011882 0.000479017 -0.000408822 -0.00193244 -0.00304135 -0.00437209 -0.00593014 -0.00770851 -0.00968297 -0.0118091 -0.014022 -0.0162387 -0.0183645 -0.0203023 -0.0219494 -0.0217854 -0.0225497 -0.0227212 -0.022304 -0.0213341 -0.0198816 -0.0180497 -0.0159698 -0.0137921 -0.0116705 -0.0097441 -0.00816841 -0.00872451 -0.00728221 -0.00642235 -0.00602436 -0.00595899 -0.00611076 -0.00638606 -0.0067152 -0.00705039 -0.00736161 -0.00763206 -0.007854 -0.00802566 -0.00814898 0.00353887 0.00316548 0.00283953 0.00254844 0.00227082 0.00197891 0.00164099 0.00122346 0.000692213 1.33524e-05 -0.000846476 -0.00192491 -0.00360404 -0.0049622 -0.00659305 -0.00850371 -0.0106852 -0.0131073 -0.0157156 -0.0184315 -0.0211558 -0.0237758 -0.026177 -0.0282316 -0.0283091 -0.0293289 -0.0296672 -0.0293142 -0.0282931 -0.0266626 -0.0245177 -0.021988 -0.0192322 -0.0164273 -0.0137508 -0.0114436 -0.0119052 -0.00964345 -0.00817625 -0.00735648 -0.00702682 -0.00703769 -0.00726035 -0.00759395 -0.00796623 -0.0083298 -0.00865667 -0.00893261 -0.00915253 -0.00931712 0.0024246 0.00203985 0.00170219 0.00139622 0.00109673 0.000771412 0.000383589 -0.000105565 -0.000735649 -0.00154637 -0.0025773 -0.00387105 -0.0057439 -0.0073792 -0.0093422 -0.0116406 -0.0142615 -0.0171666 -0.0202888 -0.0235331 -0.0267818 -0.0299034 -0.0327656 -0.0352186 -0.0356671 -0.0369361 -0.0374557 -0.0372037 -0.0361899 -0.034459 -0.0320911 -0.0292037 -0.0259518 -0.0225229 -0.0191253 -0.0160846 -0.0160734 -0.0128628 -0.0106245 -0.00922433 -0.00849846 -0.00827138 -0.00837811 -0.00868038 -0.00907364 -0.00948608 -0.00987315 -0.0102105 -0.0104877 -0.0107029 0.000926729 0.000540879 0.000198405 -0.00011893 -0.000440098 -0.000801786 -0.00124543 -0.00181492 -0.00255518 -0.00351162 -0.00472985 -0.00625789 -0.00836222 -0.0102943 -0.0126105 -0.0153172 -0.0183957 -0.0217965 -0.0254374 -0.0292047 -0.032961 -0.0365563 -0.0398421 -0.0426536 -0.0435627 -0.0450547 -0.0457526 -0.0456269 -0.044677 -0.0429341 -0.0404609 -0.0373561 -0.0337591 -0.0298535 -0.0258641 -0.0221811 -0.0212356 -0.0170381 -0.0139047 -0.0117688 -0.0104968 -0.00990906 -0.00981217 -0.0100284 -0.010414 -0.0108646 -0.0113121 -0.0117173 -0.012061 -0.0123374 -0.000966627 -0.00134225 -0.00168175 -0.00200613 -0.00234786 -0.00274765 -0.0032513 -0.00390735 -0.00476564 -0.00587682 -0.00729197 -0.00906459 -0.0114311 -0.0136683 -0.0163439 -0.0194609 -0.0229922 -0.0268748 -0.0310087 -0.0352608 -0.0394743 -0.0434827 -0.047125 -0.0502307 -0.0516232 -0.0532979 -0.054155 -0.0541641 -0.0533203 -0.0516454 -0.0491868 -0.0460221 -0.0422678 -0.0380897 -0.0337102 -0.0295443 -0.0272792 -0.0221742 -0.0181003 -0.0151085 -0.0131425 -0.0120545 -0.0116433 -0.0116979 -0.0120314 -0.0124994 -0.0130024 -0.0134793 -0.0138984 -0.0142472 -0.00324198 -0.00359563 -0.00392379 -0.00425004 -0.00460995 -0.00504772 -0.00561295 -0.00635816 -0.00733746 -0.00860594 -0.0102192 -0.0122356 -0.014881 -0.0174182 -0.0204423 -0.023951 -0.0279061 -0.0322295 -0.0368026 -0.0414729 -0.0460664 -0.0504039 -0.0543172 -0.0576397 -0.0594697 -0.0612808 -0.0622661 -0.0624012 -0.0616838 -0.0601326 -0.0577846 -0.0546991 -0.0509675 -0.046728 -0.0421807 -0.0377153 -0.0339884 -0.0281658 -0.0232068 -0.0193066 -0.016529 -0.0148024 -0.0139512 -0.0137486 -0.0139685 -0.0144209 -0.0149666 -0.0155155 -0.0160172 -0.0164495 -0.00585826 -0.00617856 -0.00648681 -0.00680893 -0.00718309 -0.00765635 -0.00828135 -0.00911384 -0.0102112 -0.011632 -0.013435 -0.0156821 -0.0186036 -0.0214214 -0.0247662 -0.0286278 -0.0329563 -0.0376573 -0.0425943 -0.0475975 -0.0524789 -0.0570514 -0.0611458 -0.064606 -0.0667821 -0.0686837 -0.0697608 -0.0699999 -0.0694069 -0.0680033 -0.065822 -0.0629099 -0.059336 -0.0552065 -0.0506835 -0.0460878 -0.0410747 -0.0347962 -0.0291074 -0.0243372 -0.0206912 -0.0182142 -0.0167982 -0.0162305 -0.0162593 -0.0166496 -0.017216 -0.0178314 -0.0184203 -0.018946 -0.00874806 -0.00902476 -0.00930481 -0.0096161 -0.00999889 -0.0105024 -0.0111816 -0.0120945 -0.0133008 -0.014861 -0.0168358 -0.0192887 -0.0224607 -0.0255267 -0.0291489 -0.0333089 -0.0379442 -0.0429454 -0.0481597 -0.0534034 -0.058479 -0.0631963 -0.0673894 -0.0709174 -0.0733353 -0.0752867 -0.0764201 -0.0767345 -0.0762473 -0.0749865 -0.0729866 -0.0702886 -0.0669449 -0.0630317 -0.0586665 -0.0540772 -0.0482071 -0.0417543 -0.0355669 -0.0300613 -0.0255743 -0.0222899 -0.0202075 -0.0191677 -0.018918 -0.0191877 -0.0197432 -0.0204131 -0.0210896 -0.0217166 -0.0118224 -0.0120472 -0.0122915 -0.0125848 -0.012969 -0.0134949 -0.0142189 -0.0152003 -0.0165 -0.0181795 -0.0202994 -0.0229232 -0.0262978 -0.0295685 -0.0334137 -0.0378067 -0.0426737 -0.0478922 -0.0532967 -0.0586932 -0.0638791 -0.0686647 -0.0728908 -0.0764323 -0.0790017 -0.0809706 -0.08213 -0.0824912 -0.0820826 -0.0809406 -0.0791048 -0.0766158 -0.0735169 -0.0698612 -0.0657243 -0.0612429 -0.0550448 -0.048672 -0.0422524 -0.0362243 -0.0310152 -0.0269428 -0.02414 -0.0225405 -0.021926 -0.0220095 -0.0225137 -0.0232192 -0.023979 -0.0247122 -0.0149789 -0.0151458 -0.0153479 -0.0156161 -0.0159933 -0.0165311 -0.0172868 -0.0183202 -0.0196925 -0.0214647 -0.0236965 -0.0264487 -0.0299585 -0.0333825 -0.0373896 -0.0419457 -0.0469679 -0.0523239 -0.0578391 -0.0633137 -0.068543 -0.0733403 -0.0775541 -0.0810731 -0.0837312 -0.0856946 -0.0868581 -0.0872421 -0.0868839 -0.0858281 -0.084121 -0.081807 -0.078927 -0.0755203 -0.0716316 -0.0673263 -0.0612742 -0.0551764 -0.0487806 -0.0424843 -0.0367476 -0.0319888 -0.0284772 -0.026269 -0.0252184 -0.0250507 -0.0254582 -0.0261743 -0.0270084 -0.0278489 -0.0181109 -0.0182169 -0.0183721 -0.0186084 -0.0189692 -0.0195066 -0.0202779 -0.0213431 -0.0227625 -0.0245962 -0.0269015 -0.0297352 -0.0332986 -0.0368201 -0.0409252 -0.0455751 -0.0506805 -0.0561029 -0.0616628 -0.0671576 -0.0723833 -0.0771569 -0.0813331 -0.0848117 -0.0875236 -0.0894683 -0.0906226 -0.0910121 -0.0906799 -0.0896776 -0.0880584 -0.0858728 -0.0831648 -0.0799694 -0.0763146 -0.0722223 -0.0666437 -0.060942 -0.0547773 -0.0484627 -0.0424333 -0.0371577 -0.0330181 -0.0302044 -0.0286749 -0.0282012 -0.0284668 -0.0291651 -0.0300601 -0.0310053 -0.0211183 -0.0211632 -0.0212687 -0.0214672 -0.021802 -0.0223253 -0.0230941 -0.0241677 -0.0256055 -0.0274656 -0.0298031 -0.0326691 -0.036196 -0.0397573 -0.043898 -0.0485764 -0.0537009 -0.0591304 -0.0646841 -0.0701592 -0.0753534 -0.0800866 -0.0842179 -0.0876531 -0.0904057 -0.092327 -0.0934666 -0.0938511 -0.0935267 -0.0925499 -0.0909804 -0.088876 -0.0862873 -0.083253 -0.0797974 -0.0759259 -0.0709838 -0.0657271 -0.059929 -0.0538015 -0.0477118 -0.0421251 -0.0374948 -0.0341325 -0.0321188 -0.0313034 -0.0313878 -0.0320391 -0.0329791 -0.0340233 -0.0239153 -0.0239019 -0.0239571 -0.024113 -0.0244128 -0.0249077 -0.0256544 -0.026711 -0.0281358 -0.0299852 -0.0323116 -0.0351606 -0.0385568 -0.0421012 -0.0462179 -0.0508661 -0.0559549 -0.0613444 -0.0668555 -0.0722868 -0.0774377 -0.0821295 -0.086222 -0.0896228 -0.092416 -0.0943166 -0.0954424 -0.0958175 -0.095489 -0.0945162 -0.0929646 -0.0908996 -0.0883805 -0.0854549 -0.0821533 -0.0784847 -0.0742097 -0.0693857 -0.0640138 -0.0582094 -0.0522507 -0.0465562 -0.0416021 -0.0377911 -0.0353258 -0.0341566 -0.0340311 -0.0346093 -0.0355773 -0.036713 -0.0264374 -0.0263709 -0.0263772 -0.0264877 -0.0267442 -0.0271968 -0.0279009 -0.0289139 -0.0302927 -0.0320924 -0.0343635 -0.0371464 -0.0403183 -0.0437905 -0.0478282 -0.0523942 -0.0574018 -0.0627156 -0.0681598 -0.0735359 -0.0786441 -0.0833046 -0.0873746 -0.0907585 -0.0935981 -0.095487 -0.0966046 -0.096971 -0.0966316 -0.0956476 -0.0940893 -0.0920294 -0.0895366 -0.0866699 -0.0834721 -0.0799687 -0.0763078 -0.0718595 -0.066906 -0.0614847 -0.0557833 -0.0501474 -0.0450337 -0.0408957 -0.0380403 -0.0365282 -0.036177 -0.0366609 -0.0376413 -0.0388604 -0.028644 -0.0285319 -0.0284929 -0.0285568 -0.0287633 -0.0291603 -0.0298016 -0.0307434 -0.0320419 -0.0337515 -0.0359223 -0.0385908 -0.0414476 -0.0447948 -0.0487032 -0.0531418 -0.0580311 -0.0632424 -0.0686054 -0.0739243 -0.0789988 -0.083646 -0.0877165 -0.0911071 -0.0939997 -0.0958905 -0.0970096 -0.0973717 -0.0970194 -0.0960145 -0.0944311 -0.0923487 -0.0898454 -0.086992 -0.0838459 -0.0804548 -0.0773174 -0.073158 -0.0685638 -0.0635167 -0.0581256 -0.0526557 -0.0475144 -0.0431671 -0.0399965 -0.0381689 -0.0375878 -0.0379619 -0.0389412 -0.0402369 -0.0305188 -0.0303702 -0.0302914 -0.0303095 -0.0304609 -0.0307904 -0.0313491 -0.0321918 -0.0333747 -0.0349527 -0.0369772 -0.0394836 -0.0419388 -0.0451109 -0.0488443 -0.0531167 -0.0578579 -0.0629479 -0.0682224 -0.0734884 -0.0785441 -0.0832004 -0.0872988 -0.0907237 -0.0936735 -0.0955839 -0.0967175 -0.0970833 -0.0967201 -0.0956891 -0.0940674 -0.0919405 -0.0893952 -0.086513 -0.0833656 -0.0800239 -0.0773124 -0.0733385 -0.0690088 -0.0642713 -0.0591748 -0.0539097 -0.0488205 -0.0443544 -0.0409377 -0.0388274 -0.0380186 -0.0382718 -0.0392395 -0.0406073 -0.0320672 -0.0318924 -0.031781 -0.031756 -0.0318491 -0.0321004 -0.0325574 -0.0332731 -0.0343041 -0.0357076 -0.037539 -0.0398357 -0.0418087 -0.0447584 -0.0482758 -0.0523491 -0.0569193 -0.0618755 -0.0670602 -0.0722824 -0.0773372 -0.0820279 -0.0861837 -0.0896736 -0.0926793 -0.0946304 -0.0957952 -0.0961762 -0.0958077 -0.0947498 -0.0930813 -0.0908926 -0.0882777 -0.0853272 -0.0821249 -0.0787626 -0.0763891 -0.0724882 -0.0683055 -0.0637722 -0.0588963 -0.0538075 -0.0487874 -0.044247 -0.0406296 -0.0382613 -0.0372264 -0.0373486 -0.0382956 -0.0397342 -0.0333124 -0.0331229 -0.0329873 -0.0329236 -0.0329568 -0.0331206 -0.0334573 -0.0340177 -0.0348594 -0.0360444 -0.0376349 -0.0396743 -0.0410915 -0.0437747 -0.0470404 -0.0508884 -0.0552712 -0.0600875 -0.065186 -0.0703769 -0.0754511 -0.0802023 -0.0844461 -0.0880333 -0.0910863 -0.0931024 -0.0943181 -0.0947295 -0.0943657 -0.0932843 -0.0915649 -0.0893012 -0.0865926 -0.0835365 -0.0802252 -0.0767671 -0.0746577 -0.0707124 -0.0665444 -0.0620804 -0.0573046 -0.0523033 -0.047304 -0.0426774 -0.0388652 -0.0362424 -0.0349734 -0.0349506 -0.0358678 -0.0373785 -0.0342907 -0.0340985 -0.0339485 -0.0338517 -0.0338247 -0.0338922 -0.03409 -0.034466 -0.03508 -0.036001 -0.0373021 -0.0390379 -0.0398339 -0.0422109 -0.0451953 -0.0487991 -0.0529857 -0.0576626 -0.0626836 -0.0678589 -0.0729741 -0.0778124 -0.0821744 -0.0858919 -0.0889738 -0.0910817 -0.0923716 -0.0928325 -0.0924876 -0.0913911 -0.0896215 -0.087274 -0.084451 -0.0812538 -0.0777792 -0.0741456 -0.0722371 -0.0681259 -0.0638295 -0.0592774 -0.0544442 -0.0493891 -0.0443008 -0.0395143 -0.0354629 -0.0325556 -0.0310251 -0.0308338 -0.0317086 -0.0332949 -0.0350465 -0.0348648 -0.0347113 -0.0345881 -0.0345006 -0.0344628 -0.0345018 -0.0346624 -0.0350083 -0.0356188 -0.0365826 -0.0379702 -0.0380909 -0.0401278 -0.0428091 -0.0461584 -0.0501484 -0.0546939 -0.0596514 -0.0648301 -0.0700094 -0.074961 -0.0794703 -0.0833506 -0.0864319 -0.0886602 -0.0900504 -0.0905835 -0.0902761 -0.0891776 -0.0873637 -0.0849283 -0.0819741 -0.0786026 -0.0749106 -0.0710186 -0.069251 -0.0648474 -0.0602689 -0.0554522 -0.0503722 -0.0450767 -0.0397319 -0.0346494 -0.0302572 -0.0269918 -0.0251449 -0.0247454 -0.0255585 -0.0272241 -0.0356286 -0.0354724 -0.0353276 -0.035185 -0.0350362 -0.0348815 -0.0347384 -0.0346494 -0.0346843 -0.0349373 -0.0355177 -0.0365172 -0.0359218 -0.0375932 -0.0399592 -0.0430537 -0.0468566 -0.0512864 -0.0562004 -0.061405 -0.0666725 -0.0717632 -0.0764472 -0.0805211 -0.083561 -0.0859384 -0.0874566 -0.0880877 -0.0878403 -0.0867573 -0.0849095 -0.0823869 -0.0792886 -0.0757126 -0.0717507 -0.0675151 -0.0658224 -0.0609939 -0.0559681 -0.0506911 -0.0451455 -0.0393814 -0.033559 -0.0279825 -0.0230863 -0.0193379 -0.0170834 -0.016414 -0.017135 -0.0188824 -0.0360881 -0.0359753 -0.0358533 -0.0356981 -0.0354