# vtk DataFile Version 2.0
Presion
ASCII

DATASET STRUCTURED_GRID
DIMENSIONS   50   50   20

POINTS   50000   double
0.00568455   0.00568455   0.025
0.0174023   0.00568455   0.025
0.0298294   0.00568455   0.025
0.0429888   0.00568455   0.025
0.0569012   0.00568455   0.025
0.0715849   0.00568455   0.025
0.0870549   0.00568455   0.025
0.103323   0.00568455   0.025
0.120395   0.00568455   0.025
0.138275   0.00568455   0.025
0.156961   0.00568455   0.025
0.176443   0.00568455   0.025
0.196707   0.00568455   0.025
0.217734   0.00568455   0.025
0.239496   0.00568455   0.025
0.261959   0.00568455   0.025
0.285082   0.00568455   0.025
0.308818   0.00568455   0.025
0.333113   0.00568455   0.025
0.357906   0.00568455   0.025
0.383132   0.00568455   0.025
0.408719   0.00568455   0.025
0.434592   0.00568455   0.025
0.460672   0.00568455   0.025
0.486877   0.00568455   0.025
0.513123   0.00568455   0.025
0.539328   0.00568455   0.025
0.565408   0.00568455   0.025
0.591281   0.00568455   0.025
0.616868   0.00568455   0.025
0.642094   0.00568455   0.025
0.666887   0.00568455   0.025
0.691182   0.00568455   0.025
0.714918   0.00568455   0.025
0.738041   0.00568455   0.025
0.760504   0.00568455   0.025
0.782266   0.00568455   0.025
0.803293   0.00568455   0.025
0.823557   0.00568455   0.025
0.843039   0.00568455   0.025
0.861725   0.00568455   0.025
0.879605   0.00568455   0.025
0.896677   0.00568455   0.025
0.912945   0.00568455   0.025
0.928415   0.00568455   0.025
0.943099   0.00568455   0.025
0.957011   0.00568455   0.025
0.970171   0.00568455   0.025
0.982598   0.00568455   0.025
0.994315   0.00568455   0.025
0.00568455   0.0174023   0.025
0.0174023   0.0174023   0.025
0.0298294   0.0174023   0.025
0.0429888   0.0174023   0.025
0.0569012   0.0174023   0.025
0.0715849   0.0174023   0.025
0.0870549   0.0174023   0.025
0.103323   0.0174023   0.025
0.120395   0.0174023   0.025
0.138275   0.0174023   0.025
0.156961   0.0174023   0.025
0.176443   0.0174023   0.025
0.196707   0.0174023   0.025
0.217734   0.0174023   0.025
0.239496   0.0174023   0.025
0.261959   0.0174023   0.025
0.285082   0.0174023   0.025
0.308818   0.0174023   0.025
0.333113   0.0174023   0.025
0.357906   0.0174023   0.025
0.383132   0.0174023   0.025
0.408719   0.0174023   0.025
0.434592   0.0174023   0.025
0.460672   0.0174023   0.025
0.486877   0.0174023   0.025
0.513123   0.0174023   0.025
0.539328   0.0174023   0.025
0.565408   0.0174023   0.025
0.591281   0.0174023   0.025
0.616868   0.0174023   0.025
0.642094   0.0174023   0.025
0.666887   0.0174023   0.025
0.691182   0.0174023   0.025
0.714918   0.0174023   0.025
0.738041   0.0174023   0.025
0.760504   0.0174023   0.025
0.782266   0.0174023   0.025
0.803293   0.0174023   0.025
0.823557   0.0174023   0.025
0.843039   0.0174023   0.025
0.861725   0.0174023   0.025
0.879605   0.0174023   0.025
0.896677   0.0174023   0.025
0.912945   0.0174023   0.025
0.928415   0.0174023   0.025
0.943099   0.0174023   0.025
0.957011   0.0174023   0.025
0.970171   0.0174023   0.025
0.982598   0.0174023   0.025
0.994315   0.0174023   0.025
0.00568455   0.0298294   0.025
0.0174023   0.0298294   0.025
0.0298294   0.0298294   0.025
0.0429888   0.0298294   0.025
0.0569012   0.0298294   0.025
0.0715849   0.0298294   0.025
0.0870549   0.0298294   0.025
0.103323   0.0298294   0.025
0.120395   0.0298294   0.025
0.138275   0.0298294   0.025
0.156961   0.0298294   0.025
0.176443   0.0298294   0.025
0.196707   0.0298294   0.025
0.217734   0.0298294   0.025
0.239496   0.0298294   0.025
0.261959   0.0298294   0.025
0.285082   0.0298294   0.025
0.308818   0.0298294   0.025
0.333113   0.0298294   0.025
0.357906   0.0298294   0.025
0.383132   0.0298294   0.025
0.408719   0.0298294   0.025
0.434592   0.0298294   0.025
0.460672   0.0298294   0.025
0.486877   0.0298294   0.025
0.513123   0.0298294   0.025
0.539328   0.0298294   0.025
0.565408   0.0298294   0.025
0.591281   0.0298294   0.025
0.616868   0.0298294   0.025
0.642094   0.0298294   0.025
0.666887   0.0298294   0.025
0.691182   0.0298294   0.025
0.714918   0.0298294   0.025
0.738041   0.0298294   0.025
0.760504   0.0298294   0.025
0.782266   0.0298294   0.025
0.803293   0.0298294   0.025
0.823557   0.0298294   0.025
0.843039   0.0298294   0.025
0.861725   0.0298294   0.025
0.879605   0.0298294   0.025
0.896677   0.0298294   0.025
0.912945   0.0298294   0.025
0.928415   0.0298294   0.025
0.943099   0.0298294   0.025
0.957011   0.0298294   0.025
0.970171   0.0298294   0.025
0.982598   0.0298294   0.025
0.994315   0.0298294   0.025
0.00568455   0.0429888   0.025
0.0174023   0.0429888   0.025
0.0298294   0.0429888   0.025
0.0429888   0.0429888   0.025
0.0569012   0.0429888   0.025
0.0715849   0.0429888   0.025
0.0870549   0.0429888   0.025
0.103323   0.0429888   0.025
0.120395   0.0429888   0.025
0.138275   0.0429888   0.025
0.156961   0.0429888   0.025
0.176443   0.0429888   0.025
0.196707   0.0429888   0.025
0.217734   0.0429888   0.025
0.239496   0.0429888   0.025
0.261959   0.0429888   0.025
0.285082   0.0429888   0.025
0.308818   0.0429888   0.025
0.333113   0.0429888   0.025
0.357906   0.0429888   0.025
0.383132   0.0429888   0.025
0.408719   0.0429888   0.025
0.434592   0.0429888   0.025
0.460672   0.0429888   0.025
0.486877   0.0429888   0.025
0.513123   0.0429888   0.025
0.539328   0.0429888   0.025
0.565408   0.0429888   0.025
0.591281   0.0429888   0.025
0.616868   0.0429888   0.025
0.642094   0.0429888   0.025
0.666887   0.0429888   0.025
0.691182   0.0429888   0.025
0.714918   0.0429888   0.025
0.738041   0.0429888   0.025
0.760504   0.0429888   0.025
0.782266   0.0429888   0.025
0.803293   0.0429888   0.025
0.823557   0.0429888   0.025
0.843039   0.0429888   0.025
0.861725   0.0429888   0.025
0.879605   0.0429888   0.025
0.896677   0.0429888   0.025
0.912945   0.0429888   0.025
0.928415   0.0429888   0.025
0.943099   0.0429888   0.025
0.957011   0.0429888   0.025
0.970171   0.0429888   0.025
0.982598   0.0429888   0.025
0.994315   0.0429888   0.025
0.00568455   0.0569012   0.025
0.0174023   0.0569012   0.025
0.0298294   0.0569012   0.025
0.0429888   0.0569012   0.025
0.0569012   0.0569012   0.025
0.0715849   0.0569012   0.025
0.0870549   0.0569012   0.025
0.103323   0.0569012   0.025
0.120395   0.0569012   0.025
0.138275   0.0569012   0.025
0.156961   0.0569012   0.025
0.176443   0.0569012   0.025
0.196707   0.0569012   0.025
0.217734   0.0569012   0.025
0.239496   0.0569012   0.025
0.261959   0.0569012   0.025
0.285082   0.0569012   0.025
0.308818   0.0569012   0.025
0.333113   0.0569012   0.025
0.357906   0.0569012   0.025
0.383132   0.0569012   0.025
0.408719   0.0569012   0.025
0.434592   0.0569012   0.025
0.460672   0.0569012   0.025
0.486877   0.0569012   0.025
0.513123   0.0569012   0.025
0.539328   0.0569012   0.025
0.565408   0.0569012   0.025
0.591281   0.0569012   0.025
0.616868   0.0569012   0.025
0.642094   0.0569012   0.025
0.666887   0.0569012   0.025
0.691182   0.0569012   0.025
0.714918   0.0569012   0.025
0.738041   0.0569012   0.025
0.760504   0.0569012   0.025
0.782266   0.0569012   0.025
0.803293   0.0569012   0.025
0.823557   0.0569012   0.025
0.843039   0.0569012   0.025
0.861725   0.0569012   0.025
0.879605   0.0569012   0.025
0.896677   0.0569012   0.025
0.912945   0.0569012   0.025
0.928415   0.0569012   0.025
0.943099   0.0569012   0.025
0.957011   0.0569012   0.025
0.970171   0.0569012   0.025
0.982598   0.0569012   0.025
0.994315   0.0569012   0.025
0.00568455   0.0715849   0.025
0.0174023   0.0715849   0.025
0.0298294   0.0715849   0.025
0.0429888   0.0715849   0.025
0.0569012   0.0715849   0.025
0.0715849   0.0715849   0.025
0.0870549   0.0715849   0.025
0.103323   0.0715849   0.025
0.120395   0.0715849   0.025
0.138275   0.0715849   0.025
0.156961   0.0715849   0.025
0.176443   0.0715849   0.025
0.196707   0.0715849   0.025
0.217734   0.0715849   0.025
0.239496   0.0715849   0.025
0.261959   0.0715849   0.025
0.285082   0.0715849   0.025
0.308818   0.0715849   0.025
0.333113   0.0715849   0.025
0.357906   0.0715849   0.025
0.383132   0.0715849   0.025
0.408719   0.0715849   0.025
0.434592   0.0715849   0.025
0.460672   0.0715849   0.025
0.486877   0.0715849   0.025
0.513123   0.0715849   0.025
0.539328   0.0715849   0.025
0.565408   0.0715849   0.025
0.591281   0.0715849   0.025
0.616868   0.0715849   0.025
0.642094   0.0715849   0.025
0.666887   0.0715849   0.025
0.691182   0.0715849   0.025
0.714918   0.0715849   0.025
0.738041   0.0715849   0.025
0.760504   0.0715849   0.025
0.782266   0.0715849   0.025
0.803293   0.0715849   0.025
0.823557   0.0715849   0.025
0.843039   0.0715849   0.025
0.861725   0.0715849   0.025
0.879605   0.0715849   0.025
0.896677   0.0715849   0.025
0.912945   0.0715849   0.025
0.928415   0.0715849   0.025
0.943099   0.0715849   0.025
0.957011   0.0715849   0.025
0.970171   0.0715849   0.025
0.982598   0.0715849   0.025
0.994315   0.0715849   0.025
0.00568455   0.0870549   0.025
0.0174023   0.0870549   0.025
0.0298294   0.0870549   0.025
0.0429888   0.0870549   0.025
0.0569012   0.0870549   0.025
0.0715849   0.0870549   0.025
0.0870549   0.0870549   0.025
0.103323   0.0870549   0.025
0.120395   0.0870549   0.025
0.138275   0.0870549   0.025
0.156961   0.0870549   0.025
0.176443   0.0870549   0.025
0.196707   0.0870549   0.025
0.217734   0.0870549   0.025
0.239496   0.0870549   0.025
0.261959   0.0870549   0.025
0.285082   0.0870549   0.025
0.308818   0.0870549   0.025
0.333113   0.0870549   0.025
0.357906   0.0870549   0.025
0.383132   0.0870549   0.025
0.408719   0.0870549   0.025
0.434592   0.0870549   0.025
0.460672   0.0870549   0.025
0.486877   0.0870549   0.025
0.513123   0.0870549   0.025
0.539328   0.0870549   0.025
0.565408   0.0870549   0.025
0.591281   0.0870549   0.025
0.616868   0.0870549   0.025
0.642094   0.0870549   0.025
0.666887   0.0870549   0.025
0.691182   0.0870549   0.025
0.714918   0.0870549   0.025
0.738041   0.0870549   0.025
0.760504   0.0870549   0.025
0.782266   0.0870549   0.025
[...]
POINT_DATA   50000
SCALARS Presion double
LOOKUP_TABLE   Presion

0 0 0 0 0 0 0 0 0 0 0 0 0 0 0 0 0 0 0 0 0 0 0 0 0 0 0 0 0 0 0 0 0 0 0 0 0 0 0 0 0 0 0 0 0 0 0 0 0 0 0.00166246 0.00180991 0.00198791 0.00211666 0.00218165 0.00218402 0.00212839 0.00201985 0.0018633 0.00166299 0.00142233 0.00114305 0.00068327 0.00040399 0.000154724 -6.24599e-05 -0.000242439 -0.000376807 -0.000455754 -0.000470471 -0.000415582 -0.000291172 -0.000103751 0.000134059 0.000385023 0.000634951 0.000850103 0.00100351 0.00107368 0.00104674 0.000918036 0.000692773 0.000385697 1.99371e-05 -0.000374873 -0.000763957 -0.00101271 -0.00137489 -0.00171201 -0.00200656 -0.00224806 -0.00243083 -0.00255196 -0.00261001 -0.00260422 -0.00253408 -0.00239966 -0.00220447 -0.00196896 -0.00178577 0.00218224 0.00217112 0.00222114 0.00227205 0.00229411 0.00227505 0.00221115 0.0021027 0.0019519 0.00176198 0.0015373 0.00128188 0.000761095 0.000508467 0.000273128 6.22524e-05 -0.000116756 -0.000254836 -0.000342232 -0.000370386 -0.000334054 -0.000233159 -7.37764e-05 0.000130378 0.000353439 0.000572039 0.000758136 0.000886202 0.000935934 0.000894306 0.000757107 0.000529526 0.000225676 -0.000132939 -0.000520068 -0.000905564 -0.00108245 -0.00144168 -0.00176792 -0.00204973 -0.00227988 -0.00245463 -0.0025727 -0.00263457 -0.00264234 -0.00260028 -0.00251685 -0.0024094 -0.00231411 -0.00230053 0.00253452 0.00248458 0.00247 0.00246463 0.00244694 0.00240329 0.0023265 0.00221379 0.00206522 0.00188297 0.00167147 0.001434 0.000843553 0.00061339 0.000390449 0.000183952 2.79907e-06 -0.000143288 -0.000244326 -0.000291561 -0.000279313 -0.000206714 -7.89331e-05 8.91301e-05 0.000288945 0.000482201 0.000646766 0.000758026 0.00079577 0.000746536 0.000605428 0.000376872 7.41049e-05 -0.000282674 -0.000669458 -0.00105759 -0.00115861 -0.00152001 -0.00184092 -0.00211468 -0.00233746 -0.0025079 -0.00262663 -0.00269607 -0.0027206 -0.00270732 -0.00266754 -0.00261902 -0.00258769 -0.00260455 0.00282771 0.00276802 0.00272153 0.0026795 0.0026302 0.00256348 0.00247224 0.00235258 0.0022033 0.00202561 0.00182354 0.00159845 0.000933065 0.000719183 0.000504405 0.000298116 0.000109817 -5.03092e-05 -0.000171853 -0.000245402 -0.000264183 -0.000225779 -0.00013367 -3.22333e-06 0.000175274 0.000349299 0.000500116 0.000603705 0.00063897 0.000590793 0.000452412 0.000226588 -7.47723e-05 -0.000432629 -0.000824262 -0.00122041 -0.00124558 -0.00161317 -0.00193323 -0.00220312 -0.00242234 -0.00259192 -0.0027143 -0.0027934 -0.00283477 -0.00284606 -0.00283747 -0.00282191 -0.00281359 -0.00282362 0.00311131 0.00304329 0.00297695 0.00290991 0.00283641 0.00274985 0.00264455 0.00251659 0.00236415 0.00218772 0.00199062 0.00177169 0.00102901 0.000823608 0.000610126 0.000397205 0.000194237 1.16208e-05 -0.000139639 -0.000248983 -0.000307809 -0.000311247 -0.000260047 -0.00016889 -1.16e-05 0.000148605 0.000293412 0.000399157 0.000442976 0.000406883 0.000280956 6.51365e-05 -0.000230776 -0.000589086 -0.000987769 -0.00139548 -0.0013483 -0.00172478 -0.00204704 -0.0023164 -0.00253543 -0.00270722 -0.00283561 -0.00292531 -0.00298204 -0.00301256 -0.00302455 -0.00302608 -0.00302413 -0.00302235 0.00340504 0.00332331 0.0032393 0.00315238 0.00305946 0.00295612 0.00283783 0.00270094 0.00254324 0.00236447 0.00216706 0.00194707 0.00112721 0.000920728 0.000698937 0.000469437 0.000241082 2.4322e-05 -0.000169049 -0.000326787 -0.000437651 -0.000493298 -0.000490513 -0.00044193 -0.00030574 -0.000155822 -9.81556e-06 0.000108675 0.000174164 0.000164542 6.52203e-05 -0.000128191 -0.000409244 -0.000762269 -0.00116585 -0.00158557 -0.00147317 -0.00185886 -0.00218443 -0.00245543 -0.00267702 -0.00285377 -0.00299022 -0.0030912 -0.00316188 -0.00320761 -0.00323372 -0.00324499 -0.00324498 -0.00323513 0.00371301 0.00361141 0.00350808 0.00340258 0.0032926 0.00317451 0.00304418 0.00289781 0.00273259 0.00254736 0.00234339 0.00211373 0.00121889 0.000999605 0.000756901 0.000497292 0.000228922 -3.77238e-05 -0.000289785 -0.000512735 -0.000691823 -0.000814136 -0.000871145 -0.000871985 -0.000754244 -0.000614487 -0.000461343 -0.000318844 -0.000215945 -0.000180231 -0.00023275 -0.000384229 -0.000633439 -0.000968089 -0.00136793 -0.00179515 -0.00162913 -0.00202034 -0.00234747 -0.00262066 -0.0028469 -0.00303122 -0.00317799 -0.00329147 -0.00337585 -0.00343511 -0.00347283 -0.00349198 -0.00349472 -0.00348221 0.00402945 0.00390253 0.00377712 0.00365253 0.00352623 0.00339436 0.00325228 0.00309541 0.00291985 0.00272314 0.002505 0.00225535 0.00128911 0.00104278 0.000763174 0.000455813 0.000128136 -0.000209194 -0.000541861 -0.000852395 -0.00112161 -0.0013309 -0.00146505 -0.00152816 -0.00142096 -0.00129648 -0.00113266 -0.000954643 -0.00079566 -0.000690216 -0.000667929 -0.000748444 -0.0009384 -0.00123112 -0.00160896 -0.00203122 -0.00182943 -0.00221599 -0.00253877 -0.00281255 -0.00304472 -0.00323929 -0.00339926 -0.00352757 -0.00362711 -0.0037006 -0.00375045 -0.00377872 -0.00378715 -0.00377713 0.00434042 0.00418377 0.00403363 0.00388882 0.00374606 0.00360044 0.00344605 0.00327679 0.00308706 0.00287252 0.00263087 0.00234883 0.00131524 0.00102461 0.000688307 0.000310872 -0.00010084 -0.000535717 -0.000977493 -0.00140502 -0.00179375 -0.00211822 -0.00235523 -0.00250217 -0.00239055 -0.0022937 -0.00211963 -0.00189533 -0.00165892 -0.00145322 -0.00131877 -0.00128727 -0.00137675 -0.00158949 -0.00191303 -0.0023056 -0.00209464 -0.0024564 -0.00276291 -0.00303263 -0.00327087 -0.00347837 -0.00365521 -0.00380203 -0.00391997 -0.00401048 -0.00407514 -0.00411554 -0.00413335 -0.00413035 0.00462404 0.0044344 0.00425744 0.00409131 0.00393153 0.00377149 0.00360331 0.00341862 0.00320947 0.00296905 0.00269244 0.00236312 0.00126535 0.0009098 0.000492759 1.7711e-05 -0.000508925 -0.00107522 -0.00166239 -0.00224483 -0.00279163 -0.00326934 -0.00364559 -0.00390904 -0.00377193 -0.00372401 -0.00354603 -0.00326714 -0.00293052 -0.0025884 -0.00229446 -0.00209594 -0.00202661 -0.00210224 -0.00231957 -0.00263973 -0.0024575 -0.00275953 -0.00302926 -0.00328569 -0.00352806 -0.00375071 -0.00394863 -0.00411881 -0.00425996 -0.00437201 -0.00445568 -0.00451225 -0.00454345 -0.00455141 0.00485014 0.0046255 0.00442047 0.00423227 0.00405475 0.00387904 0.00369458 0.0034901 0.00325461 0.00297821 0.00265274 0.00225848 0.00109713 0.00065241 0.00012602 -0.000479792 -0.00115891 -0.00189819 -0.00267567 -0.00346045 -0.00421422 -0.00489435 -0.00545819 -0.00588313 -0.00569881 -0.00573087 -0.00556319 -0.00522636 -0.00476801 -0.00424999 -0.00374076 -0.0033063 -0.00300082 -0.00285925 -0.00289315 -0.00307353 -0.00297037 -0.00315685 -0.0033569 -0.00358354 -0.00382409 -0.00406229 -0.00428518 -0.0044842 -0.00465449 -0.00479383 -0.00490185 -0.00497939 -0.0050282 -0.0050507 0.00498014 0.00471992 0.00448655 0.00427603 0.00408002 0.00388682 0.00368257 0.00345247 0.00318191 0.00285721 0.00246637 0.00198647 0.000757715 0.000195879 -0.000473081 -0.00124846 -0.00212433 -0.00308588 -0.00410726 -0.00515127 -0.00617101 -0.00711342 -0.00792442 -0.00856686 -0.00832412 -0.00847593 -0.00834178 -0.00795152 -0.00735544 -0.00662385 -0.00584005 -0.00509074 -0.00445478 -0.0039923 -0.00373675 -0.00367999 -0.00371477 -0.00370209 -0.00378189 -0.00395045 -0.0041757 -0.00442555 -0.00467527 -0.0049081 -0.00511382 -0.00528699 -0.0054255 -0.00552944 -0.00560041 -0.00564105 0.00496764 0.00467287 0.00441201 0.00417945 0.00396419 0.00375112 0.00352252 0.00325952 0.00294326 0.00255575 0.00208046 0.00149128 0.000184968 -0.000525265 -0.00137418 -0.00236297 -0.00348575 -0.00472549 -0.00605156 -0.00741924 -0.00877158 -0.0100436 -0.0111684 -0.0120905 -0.0118041 -0.0121204 -0.0120515 -0.0116227 -0.010884 -0.0099109 -0.00879937 -0.0076563 -0.00658733 -0.005683 -0.00500634 -0.00458529 -0.00481055 -0.00448147 -0.00436589 -0.00442965 -0.00461317 -0.00486249 -0.00513619 -0.00540555 -0.00565229 -0.00586599 -0.00604167 -0.00617807 -0.00627631 -0.00633911 0.00476006 0.0044336 0.0041473 0.00389356 0.00365826 0.00342239 0.0031639 0.00285933 0.00248508 0.00201831 0.00143736 0.000712711 -0.000689098 -0.00158142 -0.00265066 -0.00390014 -0.00532374 -0.00690145 -0.00859658 -0.0103553 -0.0121089 -0.0137785 -0.0152828 -0.0165444 -0.0162694 -0.0167932 -0.0168264 -0.0163854 -0.0155156 -0.0142928 -0.0128203 -0.0112212 -0.00962649 -0.00815946 -0.00691943 -0.00598888 -0.00641815 -0.0056208 -0.00520328 -0.00508908 -0.0051846 -0.00540768 -0.00569416 -0.00599816 -0.00628939 -0.00654965 -0.00676939 -0.00694493 -0.00707639 -0.0071663 0.00430178 0.00394845 0.00364004 0.00336658 0.00311046 0.00284841 0.00255364 0.00219774 0.00175199 0.0011882 0.000479055 -0.000408741 -0.00193234 -0.0030412 -0.00437188 -0.00592988 -0.00770818 -0.00968258 -0.0118087 -0.0140215 -0.0162382 -0.018364 -0.0203018 -0.0219489 -0.0217849 -0.0225491 -0.0227206 -0.0223035 -0.0213337 -0.0198812 -0.0180493 -0.0159695 -0.0137918 -0.0116702 -0.00974387 -0.00816821 -0.00872433 -0.00728206 -0.00642223 -0.00602426 -0.00595891 -0.00611069 -0.00638599 -0.00671512 -0.00705031 -0.00736153 -0.00763198 -0.00785391 -0.00802557 -0.00814889 0.00353878 0.00316539 0.00283945 0.00254837 0.00227075 0.00197885 0.00164095 0.00122344 0.000692218 1.33902e-05 -0.000846397 -0.00192478 -0.00360388 -0.00496199 -0.00659278 -0.00850338 -0.0106848 -0.0131068 -0.0157151 -0.018431 -0.0211552 -0.0237752 -0.0261764 -0.028231 -0.0283085 -0.0293283 -0.0296667 -0.0293137 -0.0282926 -0.0266622 -0.0245173 -0.0219876 -0.0192318 -0.0164269 -0.0137505 -0.0114433 -0.011905 -0.00964327 -0.0081761 -0.00735636 -0.00702672 -0.0070376 -0.00726026 -0.00759387 -0.00796614 -0.00832971 -0.00865658 -0.00893251 -0.00915244 -0.00931702 0.00242454 0.0020398 0.00170214 0.00139618 0.0010967 0.000771391 0.000383584 -0.000105548 -0.000735604 -0.00154629 -0.00257718 -0.00387087 -0.00574369 -0.00737893 -0.00934187 -0.0116402 -0.014261 -0.0171661 -0.0202882 -0.0235325 -0.0267812 -0.0299028 -0.032765 -0.035218 -0.0356665 -0.0369356 -0.0374552 -0.0372032 -0.0361895 -0.0344586 -0.0320906 -0.0292033 -0.0259515 -0.0225226 -0.019125 -0.0160843 -0.0160731 -0.0128626 -0.0106243 -0.00922418 -0.00849834 -0.00827127 -0.00837801 -0.00868028 -0.00907354 -0.00948598 -0.00987305 -0.0102104 -0.0104875 -0.0107028 0.00092671 0.000540866 0.000198398 -0.00011893 -0.000440089 -0.000801766 -0.0012454 -0.00181486 -0.00255509 -0.00351149 -0.00472967 -0.00625766 -0.00836195 -0.010294 -0.0126101 -0.0153168 -0.0183952 -0.021796 -0.0254368 -0.029204 -0.0329604 -0.0365557 -0.0398415 -0.042653 -0.0435622 -0.0450542 -0.0457521 -0.0456264 -0.0446766 -0.0429337 -0.0404605 -0.0373557 -0.0337587 -0.0298531 -0.0258638 -0.0221807 -0.0212354 -0.0170379 -0.0139045 -0.0117687 -0.0104967 -0.00990893 -0.00981205 -0.0100283 -0.0104139 -0.0108645 -0.011312 -0.0117172 -0.0120609 -0.0123373 -0.000966597 -0.00134221 -0.00168171 -0.00200608 -0.0023478 -0.00274758 -0.00325122 -0.00390724 -0.0047655 -0.00587664 -0.00729174 -0.0090643 -0.0114308 -0.0136679 -0.0163434 -0.0194604 -0.0229916 -0.0268742 -0.031008 -0.0352601 -0.0394737 -0.0434821 -0.0471244 -0.0502303 -0.0516227 -0.0532975 -0.0541546 -0.0541637 -0.05332 -0.0516452 -0.0491866 -0.0460218 -0.0422675 -0.0380894 -0.0337099 -0.029544 -0.0272789 -0.022174 -0.0181 -0.0151083 -0.0131423 -0.0120544 -0.0116432 -0.0116977 -0.0120313 -0.0124993 -0.0130022 -0.0134792 -0.0138983 -0.0142471 -0.0032419 -0.00359554 -0.0039237 -0.00424994 -0.00460984 -0.00504761 -0.00561281 -0.006358 -0.00733726 -0.00860571 -0.0102189 -0.0122352 -0.0148806 -0.0174177 -0.0204418 -0.0239504 -0.0279055 -0.0322289 -0.036802 -0.0414723 -0.0460659 -0.0504034 -0.0543168 -0.0576393 -0.0594693 -0.0612805 -0.0622659 -0.062401 -0.0616836 -0.0601324 -0.0577844 -0.0546989 -0.0509674 -0.0467278 -0.0421804 -0.037715 -0.0339882 -0.0281656 -0.0232066 -0.0193064 -0.0165288 -0.0148022 -0.0139511 -0.0137485 -0.0139684 -0.0144208 -0.0149664 -0.0155153 -0.016017 -0.0164493 -0.00585813 -0.00617842 -0.00648667 -0.00680878 -0.00718293 -0.00765618 -0.00828117 -0.00911363 -0.010211 -0.0116318 -0.0134346 -0.0156817 -0.0186032 -0.021421 -0.0247656 -0.0286273 -0.0329557 -0.0376567 -0.0425938 -0.0475969 -0.0524784 -0.057051 -0.0611455 -0.0646058 -0.066782 -0.0686836 -0.0697608 -0.0699998 -0.0694069 -0.0680033 -0.065822 -0.0629099 -0.059336 -0.0552064 -0.0506834 -0.0460877 -0.0410746 -0.034796 -0.0291072 -0.0243371 -0.020691 -0.018214 -0.0167981 -0.0162304 -0.0162591 -0.0166494 -0.0172159 -0.0178313 -0.0184201 -0.0189458 -0.00874787 -0.00902457 -0.00930462 -0.0096159 -0.00999869 -0.0105022 -0.0111814 -0.0120943 -0.0133005 -0.0148607 -0.0168354 -0.0192882 -0.0224602 -0.0255262 -0.0291484 -0.0333084 -0.0379437 -0.0429448 -0.0481592 -0.0534029 -0.0584787 -0.063196 -0.0673893 -0.0709173 -0.0733353 -0.0752868 -0.0764202 -0.0767347 -0.0762475 -0.0749867 -0.0729868 -0.0702887 -0.0669449 -0.0630317 -0.0586664 -0.0540772 -0.048207 -0.0417542 -0.0355668 -0.0300611 -0.0255742 -0.0222897 -0.0202074 -0.0191676 -0.0189179 -0.0191876 -0.0197431 -0.020413 -0.0210895 -0.0217165 -0.0118222 -0.0120469 -0.0122912 -0.0125846 -0.0129688 -0.0134947 -0.0142186 -0.0152 -0.0164997 -0.0181791 -0.020299 -0.0229227 -0.0262973 -0.0295679 -0.0334131 -0.0378061 -0.0426732 -0.0478917 -0.0532962 -0.0586928 -0.0638788 -0.0686645 -0.0728908 -0.0764324 -0.0790019 -0.0809708 -0.0821303 -0.0824916 -0.0820829 -0.0809409 -0.0791051 -0.0766161 -0.0735171 -0.0698613 -0.0657244 -0.061243 -0.0550448 -0.048672 -0.0422523 -0.0362242 -0.0310151 -0.0269426 -0.0241399 -0.0225404 -0.0219259 -0.0220094 -0.0225136 -0.023219 -0.0239789 -0.024712 -0.0149786 -0.0151455 -0.0153476 -0.0156158 -0.015993 -0.0165308 -0.0172864 -0.0183199 -0.0196921 -0.0214643 -0.0236961 -0.0264483 -0.029958 -0.033382 -0.037389 -0.0419451 -0.0469674 -0.0523234 -0.0578388 -0.0633134 -0.0685428 -0.0733402 -0.0775542 -0.0810733 -0.0837315 -0.0856949 -0.0868586 -0.0872426 -0.0868844 -0.0858285 -0.0841215 -0.0818074 -0.0789273 -0.0755206 -0.0716319 -0.0673265 -0.0612744 -0.0551764 -0.0487806 -0.0424842 -0.0367475 -0.0319887 -0.028477 -0.0262689 -0.0252182 -0.0250505 -0.0254581 -0.0261742 -0.0270083 -0.0278487 -0.0181106 -0.0182166 -0.0183718 -0.0186081 -0.0189689 -0.0195063 -0.0202776 -0.0213427 -0.0227622 -0.0245958 -0.0269011 -0.0297347 -0.0332981 -0.0368196 -0.0409247 -0.0455746 -0.0506801 -0.0561025 -0.0616625 -0.0671574 -0.0723833 -0.0771569 -0.0813333 -0.084812 -0.0875241 -0.0894688 -0.0906232 -0.0910127 -0.0906805 -0.0896782 -0.088059 -0.0858734 -0.0831652 -0.0799698 -0.0763149 -0.0722226 -0.0666439 -0.0609421 -0.0547773 -0.0484627 -0.0424332 -0.0371576 -0.033018 -0.0302042 -0.0286747 -0.0282011 -0.0284667 -0.0291649 -0.03006 -0.0310052 -0.021118 -0.0211628 -0.0212684 -0.0214668 -0.0218017 -0.022325 -0.0230938 -0.0241673 -0.0256051 -0.0274652 -0.0298027 -0.0326687 -0.0361955 -0.0397568 -0.0438975 -0.048576 -0.0537005 -0.0591301 -0.0646839 -0.0701591 -0.0753534 -0.0800868 -0.0842182 -0.0876536 -0.0904063 -0.0923276 -0.0934673 -0.0938518 -0.0935275 -0.0925506 -0.0909811 -0.0888767 -0.0862879 -0.0832535 -0.0797979 -0.0759263 -0.0709841 -0.0657273 -0.0599292 -0.0538015 -0.0477118 -0.0421251 -0.0374948 -0.0341324 -0.0321187 -0.0313033 -0.0313877 -0.032039 -0.032979 -0.0340232 -0.023915 -0.0239015 -0.0239567 -0.0241127 -0.0244124 -0.0249074 -0.025654 -0.0267106 -0.0281355 -0.0299848 -0.0323112 -0.0351601 -0.0385564 -0.0421007 -0.0462175 -0.0508656 -0.0559545 -0.0613442 -0.0668553 -0.0722868 -0.0774378 -0.0821297 -0.0862224 -0.0896233 -0.0924166 -0.0943174 -0.0954432 -0.0958184 -0.0954898 -0.094517 -0.0929654 -0.0909003 -0.0883812 -0.0854555 -0.0821538 -0.0784852 -0.07421 -0.069386 -0.064014 -0.0582095 -0.0522508 -0.0465562 -0.0416021 -0.0377911 -0.0353257 -0.0341565 -0.034031 -0.0346092 -0.0355772 -0.0367129 -0.0264371 -0.0263706 -0.0263769 -0.0264874 -0.0267439 -0.0271965 -0.0279006 -0.0289135 -0.0302924 -0.032092 -0.034363 -0.0371459 -0.0403179 -0.04379 -0.0478278 -0.0523938 -0.0574015 -0.0627153 -0.0681597 -0.0735359 -0.0786443 -0.0833049 -0.0873751 -0.0907591 -0.0935988 -0.0954878 -0.0966055 -0.0969719 -0.0966325 -0.0956485 -0.0940902 -0.0920302 -0.0895374 -0.0866705 -0.0834727 -0.0799691 -0.0763082 -0.0718598 -0.0669063 -0.0614849 -0.0557834 -0.0501475 -0.0450338 -0.0408957 -0.0380402 -0.0365281 -0.0361769 -0.0366608 -0.0376412 -0.0388603 -0.0286437 -0.0285315 -0.0284926 -0.0285565 -0.0287629 -0.02916 -0.0298013 -0.0307431 -0.0320416 -0.0337512 -0.0359219 -0.0385904 -0.0414472 -0.0447944 -0.0487028 -0.0531415 -0.0580309 -0.0632423 -0.0686053 -0.0739243 -0.078999 -0.0836463 -0.087717 -0.0911077 -0.0940004 -0.0958914 -0.0970105 -0.0973726 -0.0970203 -0.0960154 -0.094432 -0.0923495 -0.0898462 -0.0869926 -0.0838465 -0.0804553 -0.0773178 -0.0731584 -0.0685641 -0.0635169 -0.0581257 -0.0526558 -0.0475144 -0.0431672 -0.0399965 -0.0381689 -0.0375877 -0.0379618 -0.0389412 -0.0402369 -0.0305185 -0.0303698 -0.0302911 -0.0303092 -0.0304606 -0.0307901 -0.0313488 -0.0321915 -0.0333743 -0.0349524 -0.0369768 -0.0394832 -0.0419384 -0.0451106 -0.048844 -0.0531163 -0.0578576 -0.0629477 -0.0682224 -0.0734885 -0.0785443 -0.0832008 -0.0872993 -0.0907244 -0.0936742 -0.0955847 -0.0967184 -0.0970843 -0.096721 -0.0956901 -0.0940683 -0.0919414 -0.089396 -0.0865137 -0.0833662 -0.0800244 -0.0773129 -0.0733389 -0.0690091 -0.0642715 -0.059175 -0.0539098 -0.0488206 -0.0443544 -0.0409377 -0.0388274 -0.0380186 -0.0382718 -0.0392394 -0.0406073 -0.0320669 -0.0318921 -0.0317807 -0.0317557 -0.0318488 -0.0321001 -0.0325571 -0.0332728 -0.0343037 -0.0357073 -0.0375387 -0.0398353 -0.0418083 -0.0447581 -0.0482755 -0.0523489 -0.056919 -0.0618753 -0.0670602 -0.0722824 -0.0773375 -0.0820282 -0.0861842 -0.0896742 -0.0926801 -0.0946313 -0.0957961 -0.0961771 -0.0958087 -0.0947507 -0.0930822 -0.0908934 -0.0882784 -0.0853279 -0.0821255 -0.0787631 -0.0763896 -0.0724886 -0.0683058 -0.0637724 -0.0588965 -0.0538076 -0.0487874 -0.044247 -0.0406296 -0.0382613 -0.0372264 -0.0373486 -0.0382956 -0.0397342 -0.0333121 -0.0331226 -0.032987 -0.0329233 -0.0329565 -0.0331203 -0.033457 -0.0340174 -0.0348591 -0.0360441 -0.0376345 -0.039674 -0.0410911 -0.0437744 -0.0470401 -0.0508882 -0.0552709 -0.0600874 -0.065186 -0.0703769 -0.0754513 -0.0802027 -0.0844466 -0.0880339 -0.091087 -0.0931032 -0.094319 -0.0947304 -0.0943666 -0.0932852 -0.0915658 -0.089302 -0.0865933 -0.0835371 -0.0802258 -0.0767676 -0.0746581 -0.0707127 -0.0665447 -0.0620806 -0.0573048 -0.0523034 -0.0473041 -0.0426775 -0.0388652 -0.0362424 -0.0349733 -0.0349506 -0.0358677 -0.0373785 -0.0342904 -0.0340982 -0.0339482 -0.0338514 -0.0338244 -0.0338919 -0.0340898 -0.0344657 -0.0350797 -0.0360007 -0.0373018 -0.0390376 -0.0398336 -0.0422106 -0.045195 -0.0487988 -0.0529854 -0.0576625 -0.0626835 -0.0678589 -0.0729743 -0.0778127 -0.0821748 -0.0858924 -0.0889744 -0.0910825 -0.0923725 -0.0928333 -0.0924885 -0.0913919 -0.0896223 -0.0872747 -0.0844517 -0.0812543 -0.0777797 -0.074146 -0.0722375 -0.0681262 -0.0638297 -0.0592776 -0.0544443 -0.0493892 -0.0443009 -0.0395143 -0.0354629 -0.0325556 -0.0310251 -0.0308338 -0.0317086 -0.0332948 -0.0350462 -0.0348645 -0.034711 -0.0345878 -0.0345004 -0.0344625 -0.0345015 -0.0346622 -0.035008 -0.0356185 -0.0365823 -0.0379699 -0.0380906 -0.0401275 -0.0428088 -0.0461581 -0.0501482 -0.0546937 -0.0596513 -0.0648301 -0.0700095 -0.0749612 -0.0794706 -0.0833511 -0.0864325 -0.0886609 -0.0900511 -0.0905843 -0.0902769 -0.0891784 -0.0873644 -0.084929 -0.0819747 -0.0786031 -0.0749111 -0.0710189 -0.0692513 -0.0648477 -0.060269 -0.0554524 -0.0503723 -0.0450768 -0.0397319 -0.0346494 -0.0302572 -0.0269918 -0.0251449 -0.0247453 -0.0255584 -0.027224 -0.0356283 -0.0354721 -0.0353273 -0.0351847 -0.035036 -0.0348812 -0.0347381 -0.0346491 -0.0346841 -0.034937 -0.0355174 -0.0365169 -0.0359215 -0.0375929 -0.0399589 -0.0430535 -0.0468564 -0.0512862 -0.0562003 -0.0614049 -0.0666725 -0.0717634 -0.0764475 -0.0805215 -0.0835615 -0.085939 -0.0874572 -0.0880884 -0.087841 -0.086758 -0.0849101 -0.0823875 -0.0792891 -0.075713 -0.0717511 -0.0675154 -0.0658226 -0.0609941 -0.0559682 -0.0506912 -0.0451455 -0.0393814 -0.0335589 -0.0279825 -0.0230863 -0.0193378 -0.0170834 -0.016414 -0.0171349 -0.0188824 -0.0360878 -0.0359751 -0.0358531 -0.0356979 -0.0354839 -0.0351957 -0.0