# vtk DataFile Version 2.0
Presion
ASCII

DATASET STRUCTURED_GRID
DIMENSIONS   50   50   20

POINTS   50000   double
0.00568455   0.00568455   0.025
0.0174023   0.00568455   0.025
0.0298294   0.00568455   0.025
0.0429888   0.00568455   0.025
0.0569012   0.00568455   0.025
0.0715849   0.00568455   0.025
0.0870549   0.00568455   0.025
0.103323   0.00568455   0.025
0.120395   0.00568455   0.025
0.138275   0.00568455   0.025
0.156961   0.00568455   0.025
0.176443   0.00568455   0.025
0.196707   0.00568455   0.025
0.217734   0.00568455   0.025
0.239496   0.00568455   0.025
0.261959   0.00568455   0.025
0.285082   0.00568455   0.025
0.308818   0.00568455   0.025
0.333113   0.00568455   0.025
0.357906   0.00568455   0.025
0.383132   0.00568455   0.025
0.408719   0.00568455   0.025
0.434592   0.00568455   0.025
0.460672   0.00568455   0.025
0.486877   0.00568455   0.025
0.513123   0.00568455   0.025
0.539328   0.00568455   0.025
0.565408   0.00568455   0.025
0.591281   0.00568455   0.025
0.616868   0.00568455   0.025
0.642094   0.00568455   0.025
0.666887   0.00568455   0.025
0.691182   0.00568455   0.025
0.714918   0.00568455   0.025
0.738041   0.00568455   0.025
0.760504   0.00568455   0.025
0.782266   0.00568455   0.025
0.803293   0.00568455   0.025
0.823557   0.00568455   0.025
0.843039   0.00568455   0.025
0.861725   0.00568455   0.025
0.879605   0.00568455   0.025
0.896677   0.00568455   0.025
0.912945   0.00568455   0.025
0.928415   0.00568455   0.025
0.943099   0.00568455   0.025
0.957011   0.00568455   0.025
0.970171   0.00568455   0.025
0.982598   0.00568455   0.025
0.994315   0.00568455   0.025
0.00568455   0.0174023   0.025
0.0174023   0.0174023   0.025
0.0298294   0.0174023   0.025
0.0429888   0.0174023   0.025
0.0569012   0.0174023   0.025
0.0715849   0.0174023   0.025
0.0870549   0.0174023   0.025
0.103323   0.0174023   0.025
0.120395   0.0174023   0.025
0.138275   0.0174023   0.025
0.156961   0.0174023   0.025
0.176443   0.0174023   0.025
0.196707   0.0174023   0.025
0.217734   0.0174023   0.025
0.239496   0.0174023   0.025
0.261959   0.0174023   0.025
0.285082   0.0174023   0.025
0.308818   0.0174023   0.025
0.333113   0.0174023   0.025
0.357906   0.0174023   0.025
0.383132   0.0174023   0.025
0.408719   0.0174023   0.025
0.434592   0.0174023   0.025
0.460672   0.0174023   0.025
0.486877   0.0174023   0.025
0.513123   0.0174023   0.025
0.539328   0.0174023   0.025
0.565408   0.0174023   0.025
0.591281   0.0174023   0.025
0.616868   0.0174023   0.025
0.642094   0.0174023   0.025
0.666887   0.0174023   0.025
0.691182   0.0174023   0.025
0.714918   0.0174023   0.025
0.738041   0.0174023   0.025
0.760504   0.0174023   0.025
0.782266   0.0174023   0.025
0.803293   0.0174023   0.025
0.823557   0.0174023   0.025
0.843039   0.0174023   0.025
0.861725   0.0174023   0.025
0.879605   0.0174023   0.025
0.896677   0.0174023   0.025
0.912945   0.0174023   0.025
0.928415   0.0174023   0.025
0.943099   0.0174023   0.025
0.957011   0.0174023   0.025
0.970171   0.0174023   0.025
0.982598   0.0174023   0.025
0.994315   0.0174023   0.025
0.00568455   0.0298294   0.025
0.0174023   0.0298294   0.025
0.0298294   0.0298294   0.025
0.0429888   0.0298294   0.025
0.0569012   0.0298294   0.025
0.0715849   0.0298294   0.025
0.0870549   0.0298294   0.025
0.103323   0.0298294   0.025
0.120395   0.0298294   0.025
0.138275   0.0298294   0.025
0.156961   0.0298294   0.025
0.176443   0.0298294   0.025
0.196707   0.0298294   0.025
0.217734   0.0298294   0.025
0.239496   0.0298294   0.025
0.261959   0.0298294   0.025
0.285082   0.0298294   0.025
0.308818   0.0298294   0.025
0.333113   0.0298294   0.025
0.357906   0.0298294   0.025
0.383132   0.0298294   0.025
0.408719   0.0298294   0.025
0.434592   0.0298294   0.025
0.460672   0.0298294   0.025
0.486877   0.0298294   0.025
0.513123   0.0298294   0.025
0.539328   0.0298294   0.025
0.565408   0.0298294   0.025
0.591281   0.0298294   0.025
0.616868   0.0298294   0.025
0.642094   0.0298294   0.025
0.666887   0.0298294   0.025
0.691182   0.0298294   0.025
0.714918   0.0298294   0.025
0.738041   0.0298294   0.025
0.760504   0.0298294   0.025
0.782266   0.0298294   0.025
0.803293   0.0298294   0.025
0.823557   0.0298294   0.025
0.843039   0.0298294   0.025
0.861725   0.0298294   0.025
0.879605   0.0298294   0.025
0.896677   0.0298294   0.025
0.912945   0.0298294   0.025
0.928415   0.0298294   0.025
0.943099   0.0298294   0.025
0.957011   0.0298294   0.025
0.970171   0.0298294   0.025
0.982598   0.0298294   0.025
0.994315   0.0298294   0.025
0.00568455   0.0429888   0.025
0.0174023   0.0429888   0.025
0.0298294   0.0429888   0.025
0.0429888   0.0429888   0.025
0.0569012   0.0429888   0.025
0.0715849   0.0429888   0.025
0.0870549   0.0429888   0.025
0.103323   0.0429888   0.025
0.120395   0.0429888   0.025
0.138275   0.0429888   0.025
0.156961   0.0429888   0.025
0.176443   0.0429888   0.025
0.196707   0.0429888   0.025
0.217734   0.0429888   0.025
0.239496   0.0429888   0.025
0.261959   0.0429888   0.025
0.285082   0.0429888   0.025
0.308818   0.0429888   0.025
0.333113   0.0429888   0.025
0.357906   0.0429888   0.025
0.383132   0.0429888   0.025
0.408719   0.0429888   0.025
0.434592   0.0429888   0.025
0.460672   0.0429888   0.025
0.486877   0.0429888   0.025
0.513123   0.0429888   0.025
0.539328   0.0429888   0.025
0.565408   0.0429888   0.025
0.591281   0.0429888   0.025
0.616868   0.0429888   0.025
0.642094   0.0429888   0.025
0.666887   0.0429888   0.025
0.691182   0.0429888   0.025
0.714918   0.0429888   0.025
0.738041   0.0429888   0.025
0.760504   0.0429888   0.025
0.782266   0.0429888   0.025
0.803293   0.0429888   0.025
0.823557   0.0429888   0.025
0.843039   0.0429888   0.025
0.861725   0.0429888   0.025
0.879605   0.0429888   0.025
0.896677   0.0429888   0.025
0.912945   0.0429888   0.025
0.928415   0.0429888   0.025
0.943099   0.0429888   0.025
0.957011   0.0429888   0.025
0.970171   0.0429888   0.025
0.982598   0.0429888   0.025
0.994315   0.0429888   0.025
0.00568455   0.0569012   0.025
0.0174023   0.0569012   0.025
0.0298294   0.0569012   0.025
0.0429888   0.0569012   0.025
0.0569012   0.0569012   0.025
0.0715849   0.0569012   0.025
0.0870549   0.0569012   0.025
0.103323   0.0569012   0.025
0.120395   0.0569012   0.025
0.138275   0.0569012   0.025
0.156961   0.0569012   0.025
0.176443   0.0569012   0.025
0.196707   0.0569012   0.025
0.217734   0.0569012   0.025
0.239496   0.0569012   0.025
0.261959   0.0569012   0.025
0.285082   0.0569012   0.025
0.308818   0.0569012   0.025
0.333113   0.0569012   0.025
0.357906   0.0569012   0.025
0.383132   0.0569012   0.025
0.408719   0.0569012   0.025
0.434592   0.0569012   0.025
0.460672   0.0569012   0.025
0.486877   0.0569012   0.025
0.513123   0.0569012   0.025
0.539328   0.0569012   0.025
0.565408   0.0569012   0.025
0.591281   0.0569012   0.025
0.616868   0.0569012   0.025
0.642094   0.0569012   0.025
0.666887   0.0569012   0.025
0.691182   0.0569012   0.025
0.714918   0.0569012   0.025
0.738041   0.0569012   0.025
0.760504   0.0569012   0.025
0.782266   0.0569012   0.025
0.803293   0.0569012   0.025
0.823557   0.0569012   0.025
0.843039   0.0569012   0.025
0.861725   0.0569012   0.025
0.879605   0.0569012   0.025
0.896677   0.0569012   0.025
0.912945   0.0569012   0.025
0.928415   0.0569012   0.025
0.943099   0.0569012   0.025
0.957011   0.0569012   0.025
0.970171   0.0569012   0.025
0.982598   0.0569012   0.025
0.994315   0.0569012   0.025
0.00568455   0.0715849   0.025
0.0174023   0.0715849   0.025
0.0298294   0.0715849   0.025
0.0429888   0.0715849   0.025
0.0569012   0.0715849   0.025
0.0715849   0.0715849   0.025
0.0870549   0.0715849   0.025
0.103323   0.0715849   0.025
0.120395   0.0715849   0.025
0.138275   0.0715849   0.025
0.156961   0.0715849   0.025
0.176443   0.0715849   0.025
0.196707   0.0715849   0.025
0.217734   0.0715849   0.025
0.239496   0.0715849   0.025
0.261959   0.0715849   0.025
0.285082   0.0715849   0.025
0.308818   0.0715849   0.025
0.333113   0.0715849   0.025
0.357906   0.0715849   0.025
0.383132   0.0715849   0.025
0.408719   0.0715849   0.025
0.434592   0.0715849   0.025
0.460672   0.0715849   0.025
0.486877   0.0715849   0.025
0.513123   0.0715849   0.025
0.539328   0.0715849   0.025
0.565408   0.0715849   0.025
0.591281   0.0715849   0.025
0.616868   0.0715849   0.025
0.642094   0.0715849   0.025
0.666887   0.0715849   0.025
0.691182   0.0715849   0.025
0.714918   0.0715849   0.025
0.738041   0.0715849   0.025
0.760504   0.0715849   0.025
0.782266   0.0715849   0.025
0.803293   0.0715849   0.025
0.823557   0.0715849   0.025
0.843039   0.0715849   0.025
0.861725   0.0715849   0.025
0.879605   0.0715849   0.025
0.896677   0.0715849   0.025
0.912945   0.0715849   0.025
0.928415   0.0715849   0.025
0.943099   0.0715849   0.025
0.957011   0.0715849   0.025
0.970171   0.0715849   0.025
0.982598   0.0715849   0.025
0.994315   0.0715849   0.025
0.00568455   0.0870549   0.025
0.0174023   0.0870549   0.025
0.0298294   0.0870549   0.025
0.0429888   0.0870549   0.025
0.0569012   0.0870549   0.025
0.0715849   0.0870549   0.025
0.0870549   0.0870549   0.025
0.103323   0.0870549   0.025
0.120395   0.0870549   0.025
0.138275   0.0870549   0.025
0.156961   0.0870549   0.025
0.176443   0.0870549   0.025
0.196707   0.0870549   0.025
0.217734   0.0870549   0.025
0.239496   0.0870549   0.025
0.261959   0.0870549   0.025
0.285082   0.0870549   0.025
0.308818   0.0870549   0.025
0.333113   0.0870549   0.025
0.357906   0.0870549   0.025
0.383132   0.0870549   0.025
0.408719   0.0870549   0.025
0.434592   0.0870549   0.025
0.460672   0.0870549   0.025
0.486877   0.0870549   0.025
0.513123   0.0870549   0.025
0.539328   0.0870549   0.025
0.565408   0.0870549   0.025
0.591281   0.0870549   0.025
0.616868   0.0870549   0.025
0.642094   0.0870549   0.025
0.666887   0.0870549   0.025
0.691182   0.0870549   0.025
0.714918   0.0870549   0.025
0.738041   0.0870549   0.025
0.760504   0.0870549   0.025
0.782266   0.0870549   0.025
[...]
POINT_DATA   50000
SCALARS Presion double
LOOKUP_TABLE   Presion

0 0 0 0 0 0 0 0 0 0 0 0 0 0 0 0 0 0 0 0 0 0 0 0 0 0 0 0 0 0 0 0 0 0 0 0 0 0 0 0 0 0 0 0 0 0 0 0 0 0 0.000714168 0.000772057 0.000836651 0.000876027 0.000886072 0.000869324 0.000829569 0.000770359 0.000694475 0.000603586 0.000498084 0.000376579 0.000130265 1.89257e-05 -6.51658e-05 -0.000123705 -0.000157026 -0.000163549 -0.000140606 -8.56247e-05 2.59071e-06 0.000122729 0.00027032 0.000437614 0.000620301 0.000784614 0.000918696 0.00100601 0.00103339 0.000992527 0.000881132 0.000703596 0.000470845 0.000199517 -8.94878e-05 -0.000372271 -0.00055728 -0.000823627 -0.00107536 -0.00129851 -0.00148394 -0.00162636 -0.001723 -0.00177261 -0.00177489 -0.00173 -0.0016387 -0.00150423 -0.00134127 -0.0012132 0.000956339 0.000946207 0.000957244 0.000965318 0.00095944 0.000936094 0.000895247 0.000838234 0.000766704 0.000682161 0.000586146 0.000479217 0.000186447 8.99922e-05 1.24343e-05 -4.42999e-05 -7.88317e-05 -8.89832e-05 -7.20261e-05 -2.55533e-05 5.14349e-05 0.000157501 0.000288055 0.000434211 0.000601271 0.000745657 0.000860732 0.000930831 0.000943696 0.000891744 0.000773187 0.000592545 0.000360392 9.22885e-05 -0.000193096 -0.000474689 -0.0006098 -0.000875111 -0.00112015 -0.00133496 -0.00151272 -0.0016496 -0.00174403 -0.00179613 -0.0018075 -0.0017815 -0.00172444 -0.00164876 -0.00157954 -0.00156436 0.00113601 0.00110615 0.00108842 0.0010726 0.00105079 0.00101854 0.000974097 0.000917285 0.000848787 0.000769775 0.000682195 0.000586201 0.000241164 0.000157359 8.60964e-05 3.0827e-05 -5.86643e-06 -2.11819e-05 -1.21396e-05 2.37645e-05 8.76308e-05 0.000178198 0.000291019 0.000416393 0.000569655 0.000698112 0.000798493 0.000855842 0.000858256 0.000798241 0.000673929 0.000489619 0.000255457 -1.38158e-05 -0.000300987 -0.000585695 -0.000666097 -0.00093436 -0.00117722 -0.00138761 -0.00156103 -0.00169534 -0.00179038 -0.00184765 -0.0018703 -0.00186354 -0.00183555 -0.00179891 -0.00177164 -0.00177507 0.00129625 0.00125764 0.00122351 0.00119072 0.00115526 0.00111386 0.00106456 0.00100653 0.000939783 0.000865087 0.000784296 0.000696228 0.000294879 0.00022064 0.000154122 9.9e-05 5.84788e-05 3.5866e-05 3.45097e-05 5.7255e-05 0.000105627 0.000178909 0.000273213 0.000378514 0.000518719 0.000635342 0.000725537 0.000774947 0.000771514 0.000707192 0.000579419 0.000391845 0.000154029 -0.000119913 -0.000413543 -0.00070589 -0.00072869 -0.00100372 -0.00124848 -0.00145817 -0.00163049 -0.00176504 -0.00186303 -0.00192705 -0.00196108 -0.00197071 -0.00196331 -0.00194812 -0.00193514 -0.0019322 0.00145514 0.0014077 0.0013613 0.00131545 0.00126849 0.0012185 0.00116393 0.00110374 0.00103757 0.000965744 0.000889752 0.00080665 0.000346161 0.000277962 0.000213531 0.000156141 0.000109152 7.6212e-05 6.11021e-05 6.72359e-05 9.69092e-05 0.000150391 0.000224891 0.000310638 0.000437984 0.000546536 0.000631074 0.000677752 0.000673872 0.000610156 0.000482664 0.000293823 5.22891e-05 -0.000228403 -0.00053212 -0.000836315 -0.000800234 -0.0010857 -0.00133592 -0.00154825 -0.00172248 -0.00185984 -0.00196266 -0.00203426 -0.00207879 -0.00210126 -0.00210735 -0.00210298 -0.00209326 -0.00208094 0.00161813 0.00155924 0.00150087 0.00144337 0.00138617 0.00132819 0.00126825 0.00120527 0.00113856 0.001068 0.000994546 0.00091329 0.000391646 0.000325516 0.000259469 0.00019615 0.000138781 9.12017e-05 5.76657e-05 4.23725e-05 4.87586e-05 7.85809e-05 0.000130805 0.000196549 0.000311605 0.000414913 0.000498075 0.000547688 0.000549903 0.000493473 0.000372238 0.000186619 -5.62092e-05 -0.000343517 -0.000659273 -0.000978647 -0.000884099 -0.00118304 -0.00144151 -0.00165926 -0.00183807 -0.00198058 -0.00208993 -0.00216975 -0.00222397 -0.00225671 -0.00227209 -0.00227381 -0.00226464 -0.00224591 0.00178393 0.00171074 0.0016393 0.00157015 0.00150312 0.00143746 0.00137206 0.00130571 0.00123732 0.00116624 0.00109276 0.00100992 0.000425658 0.000356994 0.000284484 0.00021011 0.000136798 6.84704e-05 9.89423e-06 -3.37322e-05 -5.74398e-05 -5.74156e-05 -3.21807e-05 1.10122e-05 0.000116059 0.000215113 0.000300504 0.000359179 0.000375594 0.000335685 0.000230013 5.58746e-05 -0.000181997 -0.000472294 -0.000799256 -0.00113531 -0.00098505 -0.001299 -0.00156719 -0.00179229 -0.00197798 -0.00212789 -0.00224561 -0.00233469 -0.00239863 -0.00244072 -0.00246394 -0.0024708 -0.00246315 -0.00244215 0.00194676 0.00185677 0.00177077 0.00168934 0.00161235 0.00153897 0.00146789 0.00139748 0.00132609 0.0012524 0.00117593 0.00108754 0.000439582 0.000362863 0.000277654 0.000185291 8.83081e-05 -9.35729e-06 -0.000102388 -0.000184373 -0.000248396 -0.000287959 -0.000298204 -0.000283842 -0.000183099 -9.04526e-05 -6.28484e-07 7.35265e-05 0.000114211 0.00010357 2.75233e-05 -0.000121323 -0.000342191 -0.000626374 -0.000959047 -0.00130981 -0.0011103 -0.0014378 -0.00171496 -0.00194813 -0.00214254 -0.00230223 -0.00243061 -0.00253082 -0.00260575 -0.00265798 -0.00268977 -0.00270304 -0.00269938 -0.00268012 0.002097 0.00198809 0.0018861 0.00179159 0.00170423 0.00162285 0.00154561 0.0014702 0.00139418 0.00131535 0.00123228 0.00113364 0.000421071 0.000329484 0.000223557 0.000103956 -2.72729e-05 -0.000166259 -0.000307104 -0.000441982 -0.000561596 -0.000656064 -0.000716182 -0.000742921 -0.000635558 -0.000556442 -0.000462554 -0.000366726 -0.000289515 -0.000253646 -0.000279533 -0.000381392 -0.00056464 -0.000825143 -0.00115039 -0.00150768 -0.00127133 -0.00160555 -0.0018874 -0.00212752 -0.0023319 -0.00250393 -0.00264602 -0.00276034 -0.00284891 -0.00291366 -0.00295635 -0.0029786 -0.002982 -0.00296817 0.00222112 0.00209158 0.00197238 0.00186402 0.0017658 0.00167595 0.0015918 0.00151009 0.00142731 0.00134013 0.00124597 0.00113125 0.000353126 0.000238105 0.000101126 -5.7957e-05 -0.000237755 -0.000434598 -0.000642025 -0.000850608 -0.00104822 -0.00122083 -0.00135384 -0.00144282 -0.00131159 -0.00126043 -0.0011672 -0.00104482 -0.00091689 -0.000812044 -0.000759003 -0.000781542 -0.000894397 -0.00110101 -0.0013936 -0.00173874 -0.00148692 -0.00181208 -0.00208879 -0.00233193 -0.00254655 -0.00273364 -0.00289333 -0.00302594 -0.00313224 -0.00321331 -0.00327046 -0.00330515 -0.003319 -0.00331392 0.00230135 0.00214989 0.00201261 0.0018898 0.00178023 0.00168126 0.00158913 0.00149932 0.00140695 0.00130729 0.00119634 0.0010582 0.000213158 6.38418e-05 -0.000117505 -0.00033215 -0.000579674 -0.000856852 -0.00115675 -0.00146819 -0.00177573 -0.00206038 -0.00230096 -0.00248548 -0.00230776 -0.00230888 -0.00222776 -0.00207718 -0.00188349 -0.00168204 -0.00151186 -0.00140949 -0.00140299 -0.00150765 -0.00172413 -0.00202179 -0.00178837 -0.00207443 -0.00232771 -0.00256554 -0.00278878 -0.00299334 -0.00317509 -0.0033313 -0.00346072 -0.00356322 -0.00363948 -0.00369074 -0.0037187 -0.0037255 0.00231544 0.00214131 0.00198544 0.00184782 0.00172644 0.00161754 0.00151595 0.00141558 0.00130989 0.0011924 0.00105735 0.000886428 -2.78104e-05 -0.000225161 -0.000467904 -0.000758963 -0.00109939 -0.00148679 -0.00191395 -0.0023678 -0.00282908 -0.00327286 -0.00367018 -0.00399847 -0.00375128 -0.00384112 -0.00379302 -0.00361846 -0.00334554 -0.00301635 -0.00268181 -0.00239438 -0.00220013 -0.00213158 -0.00220325 -0.00239362 -0.00222739 -0.00242304 -0.00262193 -0.00283887 -0.00306533 -0.00328819 -0.00349633 -0.0036821 -0.00384106 -0.0039712 -0.00407219 -0.00414488 -0.00419095 -0.00421276 0.00223662 0.00203971 0.00186524 0.0017127 0.00157908 0.00145919 0.00134616 0.00123198 0.00110807 0.000965869 0.000797412 0.000581816 -0.000405519 -0.000668058 -0.000993628 -0.00138759 -0.00185316 -0.00238935 -0.00298887 -0.00363662 -0.00430883 -0.00497353 -0.00559252 -0.0061289 -0.00579979 -0.0060275 -0.00604487 -0.00585961 -0.00549939 -0.00501191 -0.00446031 -0.00391532 -0.00344533 -0.00310626 -0.00293334 -0.00292454 -0.00288718 -0.0029114 -0.00300636 -0.00317483 -0.00339167 -0.00362955 -0.00386657 -0.0040875 -0.00428289 -0.00444769 -0.00457991 -0.00467964 -0.00474839 -0.00478867 0.002034 0.00181503 0.00162253 0.00145528 0.00130899 0.00117675 0.00104965 0.000917398 0.000769033 0.000593447 0.000379957 0.000104844 -0.000962028 -0.00131067 -0.00174533 -0.00227483 -0.00290545 -0.00363816 -0.00446586 -0.00537106 -0.0063245 -0.00728565 -0.00820529 -0.0090277 -0.00863149 -0.00905636 -0.00918326 -0.00901217 -0.008567 -0.00789826 -0.0070796 -0.00620017 -0.00535345 -0.00462421 -0.00407605 -0.00374134 -0.0038942 -0.0036284 -0.00354339 -0.00361645 -0.00379748 -0.00403871 -0.00430244 -0.00456198 -0.00480012 -0.00500691 -0.00517756 -0.00531079 -0.00540759 -0.00547054 0.00167368 0.00143439 0.0012251 0.00104367 0.000884275 0.000737954 0.00059341 0.000437758 0.000257208 3.76247e-05 -0.000234997 -0.000587612 -0.00174396 -0.00220331 -0.0027781 -0.00348173 -0.00432445 -0.00530978 -0.00643074 -0.00766667 -0.00898136 -0.0103235 -0.0116305 -0.012823 -0.0124203 -0.0131048 -0.0133934 -0.0132733 -0.0127607 -0.0119043 -0.0107841 -0.00950463 -0.0081837 -0.00693783 -0.00586577 -0.00505292 -0.00542371 -0.0047087 -0.00433275 -0.00423471 -0.00433237 -0.00455083 -0.00483027 -0.00512711 -0.0054122 -0.00566781 -0.00588451 -0.00605855 -0.00618989 -0.0062809 0.00112064 0.00086392 0.000639874 0.000445199 0.000272231 0.000109701 -5.6383e-05 -0.000241871 -0.000463783 -0.000739805 -0.00108794 -0.00153893 -0.00279894 -0.00339667 -0.00414643 -0.00506735 -0.00617442 -0.00747389 -0.00895835 -0.0106025 -0.0123609 -0.0141685 -0.015946 -0.0175862 -0.0172938 -0.0182927 -0.0187953 -0.0187717 -0.0182262 -0.0172008 -0.0157752 -0.0140627 -0.0122001 -0.010334 -0.00860201 -0.00716157 -0.00768665 -0.00633184 -0.00551508 -0.00513343 -0.00507035 -0.00521837 -0.0054884 -0.0058129 -0.00614489 -0.0064545 -0.00672476 -0.00694774 -0.00712139 -0.00724747 0.000341551 7.15787e-05 -0.000164344 -0.000370922 -0.00055788 -0.00073906 -0.000931411 -0.00115406 -0.00142765 -0.00177393 -0.00221557 -0.0027878 -0.00417005 -0.00493539 -0.00589675 -0.00707985 -0.00850477 -0.0101801 -0.0120965 -0.0142217 -0.0164977 -0.0188421 -0.0211548 -0.0232984 -0.0232811 -0.0246293 -0.0253872 -0.0255063 -0.0249766 -0.0238288 -0.0221358 -0.0200101 -0.0175983 -0.0150695 -0.0125987 -0.010429 -0.010888 -0.00870081 -0.00726354 -0.00644825 -0.00611186 -0.00611359 -0.00632908 -0.00665889 -0.00703058 -0.00739606 -0.00772651 -0.00800705 -0.00823212 -0.0084021 -0.000691623 -0.000969371 -0.00121342 -0.00143006 -0.00163129 -0.00183368 -0.00205735 -0.00232494 -0.00266103 -0.00309187 -0.00364539 -0.00436203 -0.00588846 -0.00684987 -0.00805805 -0.00954564 -0.0113374 -0.0134429 -0.0158487 -0.0185122 -0.0213586 -0.0242842 -0.0271645 -0.0298318 -0.030268 -0.0319717 -0.033005 -0.0333032 -0.0328425 -0.0316412 -0.0297603 -0.0273028 -0.0244128 -0.0212704 -0.0180801 -0.0151702 -0.0151632 -0.0119994 -0.00976133 -0.00833764 -0.00758189 -0.00732937 -0.00741965 -0.00771475 -0.0081082 -0.0085258 -0.00892084 -0.00926744 -0.00955409 -0.00977857 -0.00199753 -0.0022764 -0.00252397 -0.00274831 -0.00296374 -0.00318971 -0.00344957 -0.00376961 -0.00417854 -0.0047074 -0.00538975 -0.00627187 -0.00796525 -0.00914743 -0.0106321 -0.0124586 -0.014655 -0.0172296 -0.0201616 -0.023394 -0.0268315 -0.0303452 -0.0337841 -0.036954 -0.0379856 -0.0400208 -0.0413227 -0.0418167 -0.0414701 -0.0402914 -0.0383285 -0.0356695 -0.0324454 -0.0288329 -0.0250523 -0.0214956 -0.0205232 -0.0163413 -0.0131672 -0.0109637 -0.00962144 -0.00897653 -0.00884212 -0.00904008 -0.00942241 -0.00987975 -0.0103397 -0.0107595 -0.0111184 -0.0114093 -0.00358145 -0.00385387 -0.00409965 -0.00432869 -0.00455771 -0.00480897 -0.00510904 -0.00548784 -0.00597824 -0.00661608 -0.00744066 -0.00850436 -0.0103842 -0.0118048 -0.0135859 -0.0157722 -0.0183932 -0.0214531 -0.0249198 -0.0287183 -0.0327295 -0.0367977 -0.0407452 -0.0443583 -0.0460472 -0.0483663 -0.0499045 -0.0505868 -0.0503795 -0.0492874 -0.0473489 -0.0446363 -0.0412611 -0.0373835 -0.0332207 -0.029186 -0.0268363 -0.0217284 -0.0175736 -0.0144607 -0.0123684 -0.011174 -0.0106885 -0.0107019 -0.0110214 -0.0114941 -0.0120126 -0.0125101 -0.0129511 -0.0133212 -0.00543216 -0.00569007 -0.00592819 -0.00615832 -0.00639946 -0.00667657 -0.00701926 -0.00746091 -0.00803831 -0.00879191 -0.00976639 -0.0110201 -0.0130975 -0.014764 -0.0168478 -0.0193973 -0.0224408 -0.0259751 -0.0299538 -0.0342809 -0.0388121 -0.0433654 -0.0477399 -0.0517106 -0.0540249 -0.0565672 -0.058292 -0.0591335 -0.059066 -0.058098 -0.0562646 -0.053626 -0.0502734 -0.0463413 -0.0420242 -0.0377034 -0.0338483 -0.028029 -0.0229646 -0.0188935 -0.0159257 -0.0140283 -0.0130491 -0.0127676 -0.0129521 -0.0134008 -0.0139624 -0.0145372 -0.0150682 -0.0155299 -0.00752038 -0.00775577 -0.00798014 -0.00820712 -0.00845785 -0.00875973 -0.00914512 -0.00965047 -0.0103161 -0.0111865 -0.0123111 -0.0137533 -0.0160261 -0.0179336 -0.0203107 -0.0232069 -0.0266471 -0.0306181 -0.0350571 -0.039846 -0.0448159 -0.0497619 -0.0544649 -0.0586975 -0.0615329 -0.0642354 -0.0660908 -0.0670495 -0.0671008 -0.0662633 -0.0645753 -0.0620913 -0.0588854 -0.055064 -0.0507835 -0.0463486 -0.0412191 -0.0349766 -0.0291859 -0.0242147 -0.0203212 -0.0176032 -0.0159916 -0.0152919 -0.0152508 -0.0156204 -0.0161984 -0.0168433 -0.017469 -0.0180333 -0.00979951 -0.010005 -0.0102096 -0.0104287 -0.0106853 -0.0110089 -0.0114341 -0.0120001 -0.01275 -0.0137316 -0.0149981 -0.0166163 -0.0190647 -0.0211955 -0.0238401 -0.0270476 -0.0308373 -0.0351849 -0.0400103 -0.0451748 -0.0504877 -0.0557258 -0.0606585 -0.065062 -0.0682833 -0.0710886 -0.0730225 -0.0740541 -0.0741909 -0.0734652 -0.0719235 -0.0696206 -0.0666204 -0.0630037 -0.0588841 -0.0544687 -0.0485617 -0.0421963 -0.0359419 -0.0302379 -0.0254699 -0.0218833 -0.0195338 -0.0182972 -0.0179304 -0.0181519 -0.0187082 -0.019408 -0.0201282 -0.0208036 -0.0122086 -0.0123781 -0.0125575 -0.0127636 -0.0130211 -0.0133611 -0.0138202 -0.0144394 -0.015264 -0.0163442 -0.0177355 -0.0195067 -0.0220923 -0.0244158 -0.0272877 -0.0307549 -0.0348305 -0.0394789 -0.0446046 -0.0500507 -0.0556097 -0.0610452 -0.0661205 -0.0706194 -0.0740999 -0.0769614 -0.0789319 -0.0799985 -0.0801856 -0.0795394 -0.0781173 -0.0759795 -0.0731863 -0.0698011 -0.0658996 -0.0615988 -0.0554856 -0.0492568 -0.0428305 -0.0366439 -0.0311568 -0.0267466 -0.0236154 -0.0217516 -0.0209632 -0.0209612 -0.021448 -0.0221796 -0.0229882 -0.0237795 -0.0146777 -0.0148067 -0.0149563 -0.0151444 -0.0153968 -0.015746 -0.0162297 -0.0168903 -0.0177746 -0.018934 -0.0204253 -0.022317 -0.0249835 -0.0274586 -0.0305058 -0.0341696 -0.0384572 -0.0433233 -0.0486599 -0.0542965 -0.0600135 -0.0655665 -0.070717 -0.0752565 -0.0789001 -0.0817838 -0.0837628 -0.0848372 -0.0850446 -0.0844437 -0.0831025 -0.0810895 -0.0784682 -0.0752939 -0.0716175 -0.0674914 -0.0616469 -0.0557409 -0.0494099 -0.0430244 -0.0370523 -0.0319575 -0.0280808 -0.0255502 -0.0242669 -0.0239691 -0.0243341 -0.0250677 -0.0259534 -0.026861 -0.0171342 -0.0172204 -0.0173368 -0.0175021 -0.0177429 -0.0180922 -0.0185885 -0.0192749 -0.0201988 -0.0214121 -0.0229717 -0.0249443 -0.0276206 -0.0301977 -0.0333605 -0.0371514 -0.0415731 -0.0465734 -0.0520359 -0.0577816 -0.0635836 -0.0691935 -0.0743726 -0.0789191 -0.0826642 -0.0855491 -0.0875212 -0.088588 -0.0887953 -0.0882106 -0.0869117 -0.0849768 -0.0824768 -0.0794686 -0.0759932 -0.07207 -0.0667889 -0.0613085 -0.0552739 -0.0489525 -0.0427606 -0.0371893 -0.0326821 -0.0295087 -0.0276948 -0.0270445 -0.0272372 -0.02794 -0.0288866 -0.0299068 -0.0195094 -0.0195528 -0.0196342 -0.0197727 -0.019995 -0.0203341 -0.0208288 -0.021522 -0.0224613 -0.0236984 -0.0252895 -0.027298 -0.0299035 -0.0325276 -0.0357423 -0.0395888 -0.0440676 -0.0491234 -0.054636 -0.0604225 -0.0662531 -0.0718779 -0.0770586 -0.0815965 -0.0854085 -0.0882848 -0.0902457 -0.0912996 -0.0914956 -0.0909069 -0.0896189 -0.0877198 -0.0852905 -0.0823966 -0.0790821 -0.0753608 -0.070761 -0.0657321 -0.06011 -0.0540516 -0.047885 -0.042071 -0.0371044 -0.0333729 -0.0310382 -0.0300036 -0.0299825 -0.030622 -0.0316109 -0.0327369 -0.021745 -0.0217479 -0.0217942 -0.0219029 -0.0221 -0.0224181 -0.0228951 -0.0235739 -0.0245011 -0.0257281 -0.0273103 -0.0293066 -0.0317557 -0.0343692 -0.0375712 -0.0414036 -0.0458674 -0.0509081 -0.0564059 -0.0621786 -0.0679967 -0.0736105 -0.0787811 -0.0833087 -0.087168 -0.0900357 -0.0919889 -0.0930324 -0.0932141 -0.0926098 -0.0913109 -0.0894145 -0.0870128 -0.084184 -0.0809838 -0.0774393 -0.0735121 -0.0689004 -0.0637237 -0.0580431 -0.0520856 -0.0462428 -0.0410075 -0.0368442 -0.0340404 -0.0326179 -0.0323555 -0.0329035 -0.033916 -0.0351391 -0.0237968 -0.0237635 -0.0237764 -0.0238536 -0.0240196 -0.0243057 -0.0247485 -0.0253896 -0.0262751 -0.0274556 -0.0289856 -0.0309204 -0.0331277 -0.0356724 -0.0387992 -0.0425522 -0.0469362 -0.0519006 -0.0573303 -0.0630471 -0.0688244 -0.0744134 -0.079573 -0.0840983 -0.0879903 -0.0908565 -0.0928112 -0.093852 -0.0940226 -0.0933985 -0.0920756 -0.0901586 -0.0877508 -0.084944 -0.0818101 -0.0783993 -0.0750686 -0.0707988 -0.0660329 -0.0607604 -0.0551152 -0.0494014 -0.044069 -0.0396128 -0.0364187 -0.0346296 -0.0341132 -0.0345477 -0.0355669 -0.0368787 -0.0256373 -0.025574 -0.025557 -0.0256023 -0.0257325 -0.0259761 -0.0263675 -0.0269469 -0.0277593 -0.0288549 -0.0302883 -0.0321117 -0.033996 -0.0364153 -0.0394081 -0.0430232 -0.0472712 -0.0521085 -0.0574277 -0.0630574 -0.0687757 -0.0743346 -0.0794896 -0.0840267 -0.0879347 -0.090812 -0.0927812 -0.0938309 -0.093998 -0.0933559 -0.0920028 -0.0900499 -0.0876104 -0.0847888 -0.0816734 -0.0783406 -0.0755092 -0.0714822 -0.0670445 -0.0621398 -0.0568277 -0.0513256 -0.0460176 -0.0413895 -0.0378893 -0.0357689 -0.0349971 -0.0353024 -0.0363141 -0.0377081 -0.0272557 -0.0271702 -0.0271282 -0.027143 -0.0272336 -0.0274249 -0.027748 -0.0282408 -0.0289476 -0.0299188 -0.0312104 -0.0328734 -0.0343606 -0.0366007 -0.0394068 -0.0428334 -0.046899 -0.0515693 -0.0567463 -0.0622673 -0.0679159 -0.0734453 -0.0786064 -0.0831734 -0.0870742 -0.0899794 -0.0919793 -0.0930522 -0.093227 -0.0925731 -0.0911891 -0.0891911 -0.0867002 -0.0838316 -0.0806877 -0.0773692 -0.0749451 -0.0710494 -0.0668268 -0.0621968 -0.0571665 -0.0518802 -0.0466501 -0.0419271 -0.0381876 -0.0357699 -0.0347451 -0.0349087 -0.0359013 -0.0373741 -0.0286563 -0.0285578 -0.0284973 -0.0284843 -0.0285329 -0.0286626 -0.0289003 -0.0292812 -0.029849 -0.0306556 -0.0317601 -0.033215 -0.0342403 -0.0362522 -0.0388257 -0.0420227 -0.0458705 -0.050345 -0.0553588 -0.0607582 -0.0663332 -0.0718379 -0.0770184 -0.0816357 -0.0854974 -0.0884506 -0.0905001 -0.0916135 -0.0918105 -0.0911549 -0.0897438 -0.087696 -0.0851381 -0.0821932 -0.0789738 -0.0755998 -0.073506 -0.0696244 -0.0654856 -0.0609998 -0.0561426 -0.0510034 -0.0458305 -0.041029 -0.0370787 -0.0343801 -0.0330986 -0.0331061 -0.0340688 -0.03562 -0.0298564 -0.0297551 -0.029684 -0.0296472 -0.0296519 -0.0297111 -0.029846 -0.0300887 -0.030483 -0.0310842 -0.0319569 -0.0331586 -0.0336681 -0.0354084 -0.0377123 -0.0406493 -0.0442557 -0.0485177 -0.0533579 -0.0586317 -0.0641351 -0.0696236 -0.0748379 -0.0795273 -0.0833086 -0.0863325 -0.0884532 -0.0896272 -0.0898641 -0.0892206 -0.0877904 -0.0856921 -0.083055 -0.0800064 -0.0766642 -0.0731604 -0.071332 -0.0673439 -0.0631449 -0.0586467 -0.053809 -0.0486864 -0.0434778 -0.0385451 -0.0343593 -0.031363 -0.0298035 -0.0296325 -0.0305519 -0.0321838 -0.0308827 -0.0307908 -0.0307183 -0.0306624 -0.0306217 -0.0306005 -0.0306136 -0.0306899 -0.0308749 -0.0312294 -0.0318273 -0.0327341 -0.0326859 -0.0341192 -0.0361261 -0.0387844 -0.0421387 -0.0461837 -0.0508511 -0.0560042 -0.0614444 -0.0669284 -0.0721924 -0.0769757 -0.0806266 -0.0837455 -0.0859612 -0.0872186 -0.0875164 -0.0869025 -0.0854649 -0.0833191 -0.0805935 -0.0774153 -0.0739028 -0.0701912 -0.0685666 -0.0643471 -0.0599342 -0.0552456 -0.0502382 -0.0449488 -0.0395453 -0.0343582 -0.0298492 -0.0264928 -0.0246058 -0.0242181 -0.0250744 -0.0267901 -0.0317697 -0.0317011 -0.031638 -0.0315683 -0.0314796 -0.0313659 -0.0312348 -0.0311135 -0.0310511 -0.0311179 -0.0314003 -0.031976 -0.0313413 -0.0324411 -0.0341353 -0.036509 -0.0396133 -0.0434495 -0.0479558 -0.0530018 -0.0583934 -0.0638883 -0.0692189 -0.0741174 -0.0775817 -0.0808199 -0.0831556 -0.0845212 -0.0849033 -0.0843395 -0.0829096 -0.0807226 -0.0779018 -0.0745701 -0.0708405 -0.0668405 -0.0653504 -0.0607691 -0.0559773 -0.0509013 -0.0455034 -0.03981