# vtk DataFile Version 2.0
Presion
ASCII

DATASET STRUCTURED_GRID
DIMENSIONS   50   50   20

POINTS   50000   double
0.00568455   0.00568455   0.025
0.0174023   0.00568455   0.025
0.0298294   0.00568455   0.025
0.0429888   0.00568455   0.025
0.0569012   0.00568455   0.025
0.0715849   0.00568455   0.025
0.0870549   0.00568455   0.025
0.103323   0.00568455   0.025
0.120395   0.00568455   0.025
0.138275   0.00568455   0.025
0.156961   0.00568455   0.025
0.176443   0.00568455   0.025
0.196707   0.00568455   0.025
0.217734   0.00568455   0.025
0.239496   0.00568455   0.025
0.261959   0.00568455   0.025
0.285082   0.00568455   0.025
0.308818   0.00568455   0.025
0.333113   0.00568455   0.025
0.357906   0.00568455   0.025
0.383132   0.00568455   0.025
0.408719   0.00568455   0.025
0.434592   0.00568455   0.025
0.460672   0.00568455   0.025
0.486877   0.00568455   0.025
0.513123   0.00568455   0.025
0.539328   0.00568455   0.025
0.565408   0.00568455   0.025
0.591281   0.00568455   0.025
0.616868   0.00568455   0.025
0.642094   0.00568455   0.025
0.666887   0.00568455   0.025
0.691182   0.00568455   0.025
0.714918   0.00568455   0.025
0.738041   0.00568455   0.025
0.760504   0.00568455   0.025
0.782266   0.00568455   0.025
0.803293   0.00568455   0.025
0.823557   0.00568455   0.025
0.843039   0.00568455   0.025
0.861725   0.00568455   0.025
0.879605   0.00568455   0.025
0.896677   0.00568455   0.025
0.912945   0.00568455   0.025
0.928415   0.00568455   0.025
0.943099   0.00568455   0.025
0.957011   0.00568455   0.025
0.970171   0.00568455   0.025
0.982598   0.00568455   0.025
0.994315   0.00568455   0.025
0.00568455   0.0174023   0.025
0.0174023   0.0174023   0.025
0.0298294   0.0174023   0.025
0.0429888   0.0174023   0.025
0.0569012   0.0174023   0.025
0.0715849   0.0174023   0.025
0.0870549   0.0174023   0.025
0.103323   0.0174023   0.025
0.120395   0.0174023   0.025
0.138275   0.0174023   0.025
0.156961   0.0174023   0.025
0.176443   0.0174023   0.025
0.196707   0.0174023   0.025
0.217734   0.0174023   0.025
0.239496   0.0174023   0.025
0.261959   0.0174023   0.025
0.285082   0.0174023   0.025
0.308818   0.0174023   0.025
0.333113   0.0174023   0.025
0.357906   0.0174023   0.025
0.383132   0.0174023   0.025
0.408719   0.0174023   0.025
0.434592   0.0174023   0.025
0.460672   0.0174023   0.025
0.486877   0.0174023   0.025
0.513123   0.0174023   0.025
0.539328   0.0174023   0.025
0.565408   0.0174023   0.025
0.591281   0.0174023   0.025
0.616868   0.0174023   0.025
0.642094   0.0174023   0.025
0.666887   0.0174023   0.025
0.691182   0.0174023   0.025
0.714918   0.0174023   0.025
0.738041   0.0174023   0.025
0.760504   0.0174023   0.025
0.782266   0.0174023   0.025
0.803293   0.0174023   0.025
0.823557   0.0174023   0.025
0.843039   0.0174023   0.025
0.861725   0.0174023   0.025
0.879605   0.0174023   0.025
0.896677   0.0174023   0.025
0.912945   0.0174023   0.025
0.928415   0.0174023   0.025
0.943099   0.0174023   0.025
0.957011   0.0174023   0.025
0.970171   0.0174023   0.025
0.982598   0.0174023   0.025
0.994315   0.0174023   0.025
0.00568455   0.0298294   0.025
0.0174023   0.0298294   0.025
0.0298294   0.0298294   0.025
0.0429888   0.0298294   0.025
0.0569012   0.0298294   0.025
0.0715849   0.0298294   0.025
0.0870549   0.0298294   0.025
0.103323   0.0298294   0.025
0.120395   0.0298294   0.025
0.138275   0.0298294   0.025
0.156961   0.0298294   0.025
0.176443   0.0298294   0.025
0.196707   0.0298294   0.025
0.217734   0.0298294   0.025
0.239496   0.0298294   0.025
0.261959   0.0298294   0.025
0.285082   0.0298294   0.025
0.308818   0.0298294   0.025
0.333113   0.0298294   0.025
0.357906   0.0298294   0.025
0.383132   0.0298294   0.025
0.408719   0.0298294   0.025
0.434592   0.0298294   0.025
0.460672   0.0298294   0.025
0.486877   0.0298294   0.025
0.513123   0.0298294   0.025
0.539328   0.0298294   0.025
0.565408   0.0298294   0.025
0.591281   0.0298294   0.025
0.616868   0.0298294   0.025
0.642094   0.0298294   0.025
0.666887   0.0298294   0.025
0.691182   0.0298294   0.025
0.714918   0.0298294   0.025
0.738041   0.0298294   0.025
0.760504   0.0298294   0.025
0.782266   0.0298294   0.025
0.803293   0.0298294   0.025
0.823557   0.0298294   0.025
0.843039   0.0298294   0.025
0.861725   0.0298294   0.025
0.879605   0.0298294   0.025
0.896677   0.0298294   0.025
0.912945   0.0298294   0.025
0.928415   0.0298294   0.025
0.943099   0.0298294   0.025
0.957011   0.0298294   0.025
0.970171   0.0298294   0.025
0.982598   0.0298294   0.025
0.994315   0.0298294   0.025
0.00568455   0.0429888   0.025
0.0174023   0.0429888   0.025
0.0298294   0.0429888   0.025
0.0429888   0.0429888   0.025
0.0569012   0.0429888   0.025
0.0715849   0.0429888   0.025
0.0870549   0.0429888   0.025
0.103323   0.0429888   0.025
0.120395   0.0429888   0.025
0.138275   0.0429888   0.025
0.156961   0.0429888   0.025
0.176443   0.0429888   0.025
0.196707   0.0429888   0.025
0.217734   0.0429888   0.025
0.239496   0.0429888   0.025
0.261959   0.0429888   0.025
0.285082   0.0429888   0.025
0.308818   0.0429888   0.025
0.333113   0.0429888   0.025
0.357906   0.0429888   0.025
0.383132   0.0429888   0.025
0.408719   0.0429888   0.025
0.434592   0.0429888   0.025
0.460672   0.0429888   0.025
0.486877   0.0429888   0.025
0.513123   0.0429888   0.025
0.539328   0.0429888   0.025
0.565408   0.0429888   0.025
0.591281   0.0429888   0.025
0.616868   0.0429888   0.025
0.642094   0.0429888   0.025
0.666887   0.0429888   0.025
0.691182   0.0429888   0.025
0.714918   0.0429888   0.025
0.738041   0.0429888   0.025
0.760504   0.0429888   0.025
0.782266   0.0429888   0.025
0.803293   0.0429888   0.025
0.823557   0.0429888   0.025
0.843039   0.0429888   0.025
0.861725   0.0429888   0.025
0.879605   0.0429888   0.025
0.896677   0.0429888   0.025
0.912945   0.0429888   0.025
0.928415   0.0429888   0.025
0.943099   0.0429888   0.025
0.957011   0.0429888   0.025
0.970171   0.0429888   0.025
0.982598   0.0429888   0.025
0.994315   0.0429888   0.025
0.00568455   0.0569012   0.025
0.0174023   0.0569012   0.025
0.0298294   0.0569012   0.025
0.0429888   0.0569012   0.025
0.0569012   0.0569012   0.025
0.0715849   0.0569012   0.025
0.0870549   0.0569012   0.025
0.103323   0.0569012   0.025
0.120395   0.0569012   0.025
0.138275   0.0569012   0.025
0.156961   0.0569012   0.025
0.176443   0.0569012   0.025
0.196707   0.0569012   0.025
0.217734   0.0569012   0.025
0.239496   0.0569012   0.025
0.261959   0.0569012   0.025
0.285082   0.0569012   0.025
0.308818   0.0569012   0.025
0.333113   0.0569012   0.025
0.357906   0.0569012   0.025
0.383132   0.0569012   0.025
0.408719   0.0569012   0.025
0.434592   0.0569012   0.025
0.460672   0.0569012   0.025
0.486877   0.0569012   0.025
0.513123   0.0569012   0.025
0.539328   0.0569012   0.025
0.565408   0.0569012   0.025
0.591281   0.0569012   0.025
0.616868   0.0569012   0.025
0.642094   0.0569012   0.025
0.666887   0.0569012   0.025
0.691182   0.0569012   0.025
0.714918   0.0569012   0.025
0.738041   0.0569012   0.025
0.760504   0.0569012   0.025
0.782266   0.0569012   0.025
0.803293   0.0569012   0.025
0.823557   0.0569012   0.025
0.843039   0.0569012   0.025
0.861725   0.0569012   0.025
0.879605   0.0569012   0.025
0.896677   0.0569012   0.025
0.912945   0.0569012   0.025
0.928415   0.0569012   0.025
0.943099   0.0569012   0.025
0.957011   0.0569012   0.025
0.970171   0.0569012   0.025
0.982598   0.0569012   0.025
0.994315   0.0569012   0.025
0.00568455   0.0715849   0.025
0.0174023   0.0715849   0.025
0.0298294   0.0715849   0.025
0.0429888   0.0715849   0.025
0.0569012   0.0715849   0.025
0.0715849   0.0715849   0.025
0.0870549   0.0715849   0.025
0.103323   0.0715849   0.025
0.120395   0.0715849   0.025
0.138275   0.0715849   0.025
0.156961   0.0715849   0.025
0.176443   0.0715849   0.025
0.196707   0.0715849   0.025
0.217734   0.0715849   0.025
0.239496   0.0715849   0.025
0.261959   0.0715849   0.025
0.285082   0.0715849   0.025
0.308818   0.0715849   0.025
0.333113   0.0715849   0.025
0.357906   0.0715849   0.025
0.383132   0.0715849   0.025
0.408719   0.0715849   0.025
0.434592   0.0715849   0.025
0.460672   0.0715849   0.025
0.486877   0.0715849   0.025
0.513123   0.0715849   0.025
0.539328   0.0715849   0.025
0.565408   0.0715849   0.025
0.591281   0.0715849   0.025
0.616868   0.0715849   0.025
0.642094   0.0715849   0.025
0.666887   0.0715849   0.025
0.691182   0.0715849   0.025
0.714918   0.0715849   0.025
0.738041   0.0715849   0.025
0.760504   0.0715849   0.025
0.782266   0.0715849   0.025
0.803293   0.0715849   0.025
0.823557   0.0715849   0.025
0.843039   0.0715849   0.025
0.861725   0.0715849   0.025
0.879605   0.0715849   0.025
0.896677   0.0715849   0.025
0.912945   0.0715849   0.025
0.928415   0.0715849   0.025
0.943099   0.0715849   0.025
0.957011   0.0715849   0.025
0.970171   0.0715849   0.025
0.982598   0.0715849   0.025
0.994315   0.0715849   0.025
0.00568455   0.0870549   0.025
0.0174023   0.0870549   0.025
0.0298294   0.0870549   0.025
0.0429888   0.0870549   0.025
0.0569012   0.0870549   0.025
0.0715849   0.0870549   0.025
0.0870549   0.0870549   0.025
0.103323   0.0870549   0.025
0.120395   0.0870549   0.025
0.138275   0.0870549   0.025
0.156961   0.0870549   0.025
0.176443   0.0870549   0.025
0.196707   0.0870549   0.025
0.217734   0.0870549   0.025
0.239496   0.0870549   0.025
0.261959   0.0870549   0.025
0.285082   0.0870549   0.025
0.308818   0.0870549   0.025
0.333113   0.0870549   0.025
0.357906   0.0870549   0.025
0.383132   0.0870549   0.025
0.408719   0.0870549   0.025
0.434592   0.0870549   0.025
0.460672   0.0870549   0.025
0.486877   0.0870549   0.025
0.513123   0.0870549   0.025
0.539328   0.0870549   0.025
0.565408   0.0870549   0.025
0.591281   0.0870549   0.025
0.616868   0.0870549   0.025
0.642094   0.0870549   0.025
0.666887   0.0870549   0.025
0.691182   0.0870549   0.025
0.714918   0.0870549   0.025
0.738041   0.0870549   0.025
0.760504   0.0870549   0.025
0.782266   0.0870549   0.025
[...]
POINT_DATA   50000
SCALARS Presion double
LOOKUP_TABLE   Presion

0 0 0 0 0 0 0 0 0 0 0 0 0 0 0 0 0 0 0 0 0 0 0 0 0 0 0 0 0 0 0 0 0 0 0 0 0 0 0 0 0 0 0 0 0 0 0 0 0 0 -0.00124481 -0.00136294 -0.00152718 -0.00167728 -0.00180236 -0.00190257 -0.00197978 -0.00203566 -0.0020715 -0.0020885 -0.002088 -0.00207219 -0.00211134 -0.00206359 -0.00198609 -0.001881 -0.00175028 -0.00159559 -0.00141855 -0.00122099 -0.00100508 -0.000773465 -0.000529181 -0.000275487 -3.53223e-05 0.000221042 0.000474085 0.000717699 0.000946395 0.00115546 0.00134114 0.00150088 0.00163345 0.00173911 0.00181956 0.00187788 0.00199674 0.00201313 0.00200076 0.0019656 0.00191258 0.00184545 0.00176691 0.00167862 0.00158115 0.00147402 0.00135592 0.00122643 0.00109357 0.00100487 -0.00160132 -0.00159909 -0.00166552 -0.0017545 -0.00184309 -0.00192117 -0.00198445 -0.00203113 -0.0020604 -0.00207196 -0.00206549 -0.00204133 -0.00210338 -0.00204905 -0.00196863 -0.00186229 -0.00173107 -0.00157623 -0.00139925 -0.0012019 -0.000986369 -0.000755262 -0.00051154 -0.000258372 -2.30039e-05 0.000232056 0.000482406 0.000722406 0.000946733 0.00115077 0.00133087 0.00148453 0.00161054 0.00170889 0.0017803 0.00182621 0.00196794 0.00197537 0.00195907 0.00192301 0.00187137 0.00180776 0.0017351 0.00165571 0.00157148 0.00148448 0.00139821 0.00132041 0.00126889 0.00128016 -0.00179678 -0.00177168 -0.00179321 -0.00184107 -0.00189856 -0.00195461 -0.00200248 -0.00203816 -0.0020592 -0.00206393 -0.00205083 -0.00201978 -0.00210395 -0.00204335 -0.00195937 -0.00185112 -0.00171891 -0.00156359 -0.00138641 -0.00118906 -0.000973653 -0.000742799 -0.00049945 -0.000247072 -1.48606e-05 0.00023964 0.000488371 0.000725916 0.000947046 0.00114718 0.00132267 0.00147103 0.001591 0.00168233 0.00174527 0.00178158 0.00194461 0.001944 0.00192329 0.00188564 0.00183481 0.0017744 0.0017076 0.00163732 0.0015665 0.00149874 0.00143934 0.00139666 0.00138336 0.00141487 -0.00191294 -0.00189314 -0.0018995 -0.00192516 -0.00196103 -0.00199888 -0.00203234 -0.00205678 -0.00206888 -0.0020661 -0.00204617 -0.00200908 -0.00211367 -0.00204739 -0.00195959 -0.00184896 -0.00171531 -0.00155911 -0.00138139 -0.00118368 -0.00096805 -0.000737063 -0.000493732 -0.000241926 -1.11611e-05 0.000243662 0.000491983 0.0007284 0.000947665 0.00114514 0.00131712 0.00146106 0.0015756 0.0016604 0.00171566 0.00174418 0.00192614 0.0019184 0.00189302 0.00185313 0.00180244 0.00174459 0.00168301 0.00162097 0.00156186 0.00150955 0.00146883 0.00144556 0.00144596 0.00147426 -0.0019908 -0.00198245 -0.0019872 -0.00200327 -0.0020263 -0.00205109 -0.00207271 -0.00208694 -0.00209033 -0.00208004 -0.00205345 -0.00201094 -0.00213384 -0.00206248 -0.00197081 -0.00185748 -0.00172196 -0.00156446 -0.00138576 -0.00118725 -0.000970879 -0.0007392 -0.0004953 -0.000243436 -1.24047e-05 0.00024386 0.000493169 0.000729973 0.000948887 0.00114511 0.0013148 0.00145527 0.00156508 0.00164391 0.00169221 0.00171406 0.00191239 0.00189806 0.0018677 0.00182488 0.00177344 0.00171715 0.00165957 0.00160403 0.00155379 0.00151218 0.00148257 0.00146808 0.00147082 0.00149068 -0.0020517 -0.00205483 -0.00206339 -0.00207703 -0.00209367 -0.00211018 -0.00212304 -0.00212886 -0.00212452 -0.00210727 -0.0020745 -0.00202713 -0.00216627 -0.00209031 -0.00199487 -0.0018786 -0.00174085 -0.00158158 -0.00140138 -0.00120147 -0.000983687 -0.000750551 -0.000505218 -0.000252286 -1.93152e-05 0.0002398 0.000491737 0.000730674 0.000950959 0.00114752 0.00131626 0.0014543 0.00156013 0.00163354 0.0016754 0.00169109 0.00190339 0.00188252 0.00184667 0.00180002 0.0017467 0.00169064 0.00163538 0.00158408 0.00153955 0.00150422 0.00148005 0.00146822 0.00146877 0.00148029 -0.00210818 -0.00212145 -0.00213563 -0.00215052 -0.00216494 -0.0021769 -0.00218392 -0.00218338 -0.0021727 -0.00214941 -0.00211117 -0.00205949 -0.00221311 -0.00213301 -0.00203391 -0.00191456 -0.00177421 -0.00161268 -0.00143037 -0.00122833 -0.00100829 -0.000772696 -0.000524769 -0.000269389 -3.28693e-05 0.000230833 0.000487327 0.000730415 0.000954047 0.00115275 0.00132204 0.0014588 0.00156142 0.00162985 0.00166548 0.001675 0.00189927 0.00187138 0.00182917 0.0017775 0.00172091 0.00166343 0.00160852 0.00155904 0.00151721 0.00148463 0.00146214 0.0014498 0.00144679 0.00145142 -0.00216883 -0.00219082 -0.00221093 -0.00222879 -0.00224346 -0.0022535 -0.00225706 -0.00225212 -0.00223659 -0.0022084 -0.00216551 -0.00211009 -0.0022769 -0.00219306 -0.00209046 -0.0019679 -0.00182463 -0.00166031 -0.00147521 -0.00127018 -0.00104683 -0.000807536 -0.000555541 -0.000295969 -5.43645e-05 0.000216011 0.000479331 0.000728918 0.000958181 0.00116109 0.00133265 0.00146939 0.00156956 0.00163332 0.00166261 0.00166541 0.00190017 0.00186419 0.00181431 0.00175611 0.00169452 0.00163372 0.00157705 0.00152702 0.00148532 0.00145285 0.00142975 0.00141546 0.00140884 0.00140828 -0.00224044 -0.00226992 -0.00229572 -0.00231722 -0.0023335 -0.00234332 -0.0023452 -0.00233751 -0.00231854 -0.00228658 -0.0022399 -0.0021813 -0.00236058 -0.00227338 -0.00216742 -0.00204159 -0.00189507 -0.00172744 -0.00153877 -0.00132977 -0.00110189 -0.000857396 -0.000599548 -0.000333688 -8.55357e-05 0.000193964 0.000466763 0.000725588 0.000963148 0.00117267 0.00134849 0.00148661 0.00158512 0.00164434 0.00166682 0.00166184 0.00190612 0.0018604 0.00180103 0.00173434 0.00166572 0.00159949 0.00153887 0.00148608 0.00144236 0.00140812 0.00138307 0.00136633 0.00135665 0.00135254 -0.00232897 -0.00236493 -0.00239598 -0.00242129 -0.00243986 -0.00245051 -0.00245194 -0.00244277 -0.00242155 -0.00238684 -0.00233721 -0.00227597 -0.0024675 -0.00237731 -0.00226818 -0.00213902 -0.00198896 -0.00181746 -0.00162443 -0.00141038 -0.00117657 -0.000925174 -0.0006594 -0.000384818 -0.000128737 0.000162708 0.000448064 0.000719329 0.000968325 0.00118732 0.00136973 0.0015109 0.00160856 0.00166322 0.00167804 0.0016637 0.00191701 0.00185924 0.00178797 0.00171037 0.00163233 0.00155833 0.00149153 0.00143391 0.00138639 0.00134903 0.00132125 0.00130203 0.00129004 0.00128386 -0.00244001 -0.00248165 -0.00251749 -0.00254652 -0.00256765 -0.00257973 -0.00258152 -0.00257179 -0.00254926 -0.0025127 -0.00246085 -0.00239751 -0.0026015 -0.00250869 -0.0023966 -0.00226411 -0.00211027 -0.00193439 -0.00173619 -0.00151596 -0.00127475 -0.00101455 -0.000738532 -0.000452489 -0.000187208 0.000119361 0.000420804 0.000708246 0.000972398 0.00120429 0.00139615 0.00154235 0.00164015 0.00169009 0.001696 0.00167015 0.00193239 0.00185952 0.00177329 0.00168184 0.0015916 0.00150726 0.00143199 0.00136757 0.00131467 0.00127313 0.00124217 0.00122062 0.0012071 0.00120017 -0.00257902 -0.0026257 -0.00266589 -0.00269846 -0.00272223 -0.00273605 -0.00273871 -0.00272906 -0.00270595 -0.00266824 -0.00261482 -0.00254988 -0.00276692 -0.00267191 -0.00255713 -0.0024214 -0.00226363 -0.00208296 -0.00187886 -0.00165135 -0.00140123 -0.00113027 -0.000841517 -0.000541028 -0.000265445 5.97226e-05 0.000381234 0.000689186 0.000972918 0.00122187 0.00142671 0.00158048 0.00167965 0.00172468 0.00172007 0.00167996 0.00195123 0.00185941 0.00175448 0.00164567 0.00154003 0.00144254 0.00135637 0.00128317 0.00122343 0.00117678 0.00114225 0.00111855 0.00110419 0.00109764 -0.0027514 -0.00280263 -0.0028468 -0.0028827 -0.00290909 -0.00292479 -0.00292865 -0.00291953 -0.00289637 -0.00285812 -0.0028037 -0.00273768 -0.00296865 -0.00287193 -0.00275484 -0.0026161 -0.00245444 -0.00226875 -0.00205822 -0.00182253 -0.00156212 -0.00127848 -0.000974471 -0.000656416 -0.000369719 -2.23231e-05 0.000323627 0.000657037 0.000965585 0.00123671 0.00145899 0.00162364 0.00172594 0.001766 0.00174896 0.00169119 0.00197157 0.00185609 0.00172802 0.0015978 0.00147317 0.00135942 0.00125976 0.00117573 0.00110762 0.00105487 0.00101631 0.000990498 0.000975796 0.000970531 -0.00296258 -0.00301797 -0.00306584 -0.00310487 -0.00313382 -0.00315149 -0.00315674 -0.00314851 -0.00312575 -0.00308747 -0.00303262 -0.00296609 -0.00321211 -0.00311429 -0.00299548 -0.00285421 -0.00268899 -0.0024984 -0.00228126 -0.00203684 -0.00176512 -0.00146719 -0.00114558 -0.000806894 -0.000508775 -0.000135646 0.000239301 0.000603654 0.000943112 0.00124262 0.00148802 0.00166805 0.00177612 0.00181163 0.00178021 0.00170078 0.00198992 0.00184533 0.00168911 0.00153299 0.00138545 0.00125209 0.00113615 0.00103904 0.000960854 0.00090079 0.00085749 0.000829292 0.000814397 0.000810951 -0.00321798 -0.00327723 -0.00332856 -0.00337058 -0.00340204 -0.00342173 -0.00342857 -0.00342152 -0.0033996 -0.00336182 -0.00330715 -0.0032408 -0.00350323 -0.00340515 -0.00328548 -0.00314253 -0.00297454 -0.00277972 -0.00255642 -0.00230337 -0.00201998 -0.00170676 -0.00136578 -0.00100378 -0.000694751 -0.000293043 0.000115203 0.000516208 0.000893401 0.00122868 0.00150443 0.00170597 0.00182402 0.00185652 0.00180926 0.00170396 0.00200028 0.00182087 0.00163142 0.00144487 0.00127036 0.00111382 0.000978548 0.000865814 0.000775477 0.000706476 0.000657213 0.000625814 0.000610291 0.00060861 -0.00352295 -0.00358585 -0.00364045 -0.00368535 -0.00371929 -0.0037411 -0.00374973 -0.00374421 -0.00372359 -0.00368693 -0.00363322 -0.00356794 -0.00384833 -0.00375115 -0.00363192 -0.00348871 -0.00331942 -0.00312181 -0.00289371 -0.00263319 -0.00233891 -0.00201058 -0.00164954 -0.00126249 -0.000944393 -0.000512858 -6.81419e-05 0.000374689 0.000796626 0.00117604 0.00149103 0.00172247 0.0018572 0.00189062 0.00182792 0.00169342 0.00199246 0.0017737 0.00154708 0.00132626 0.00112099 0.000937634 0.000779648 0.000648238 0.000543041 0.000462728 0.000405448 0.000369116 0.000351575 0.000350634 -0.0038827 -0.00394904 -0.00400677 -0.00405449 -0.00409093 -0.00411499 -0.00412569 -0.00412212 -0.00410341 -0.00406867 -0.0040169 -0.00395388 -0.00425399 -0.00415932 -0.00404241 -0.00390108 -0.00373286 -0.00353506 -0.00330486 -0.00303957 -0.00273694 -0.00239562 -0.00201587 -0.00160393 -0.00128058 -0.000821139 -0.000339552 0.000148146 0.000620604 0.00105246 0.00141692 0.00168935 0.00185136 0.00189423 0.00182104 0.00165765 0.00194893 0.00169091 0.00142685 0.00117016 0.000931337 0.000717631 0.000533076 0.000379081 0.000255215 0.000159954 9.12334e-05 4.67947e-05 2.43524e-05 2.16133e-05 -0.00430209 -0.00437168 -0.00443242 -0.00448291 -0.00452194 -0.00454846 -0.00456159 -0.00456053 -0.00454451 -0.00451272 -0.0044642 -0.00440505 -0.00472676 -0.00463677 -0.00452481 -0.00438845 -0.00422489 -0.00403095 -0.00380319 -0.00353806 -0.00323223 -0.00288306 -0.00248929 -0.00205609 -0.00173423 -0.00125444 -0.000741175 -0.000210788 0.000313642 0.000803487 0.00122717 0.0015541 0.00175935 0.00182816 0.00175904 0.00157648 0.00183792 0.00155263 0.00125951 0.000970584 0.00069793 0.000450935 0.0002353 5.34023e-05 -9.47761e-05 -0.000210678 -0.000296417 -0.000354325 -0.000386737 -0.000395985 -0.00478546 -0.00485809 -0.00492172 -0.00497498 -0.00501671 -0.00504597 -0.00506202 -0.00506419 -0.00505186 -0.00502433 -0.00498074 -0.00492753 -0.00527283 -0.00519036 -0.00508683 -0.00495966 -0.00480579 -0.00462166 -0.00440323 -0.00414614 -0.00384596 -0.00349857 -0.00310082 -0.00265588 -0.00234637 -0.00186314 -0.00133357 -0.000773381 -0.000205932 0.00033865 0.000825786 0.00122011 0.00149016 0.00161336 0.00158035 0.00140813 0.00159829 0.00132298 0.001027 0.00072061 0.000419815 0.000138806 -0.000112747 -0.000329757 -0.000510635 -0.000655983 -0.000767517 -0.000847379 -0.000897806 -0.000921104 -0.00533637 -0.00541179 -0.00547817 -0.00553418 -0.00557878 -0.00561116 -0.00563073 -0.00563702 -0.00562959 -0.00560795 -0.00557137 -0.0055267 -0.00589753 -0.0058261 -0.00573541 -0.00562291 -0.00548543 -0.00531922 -0.00511989 -0.0048825 -0.00460169 -0.00427197 -0.00388821 -0.00345055 -0.00317022 -0.00271477 -0.00220131 -0.00164378 -0.00106339 -0.000487874 5.00639e-05 0.000515119 0.000872552 0.00109232 0.00115391 0.00105603 0.00110839 0.000926787 0.000687551 0.00040135 9.22423e-05 -0.00021636 -0.000506653 -0.000767328 -0.000992549 -0.00118027 -0.00133069 -0.0014451 -0.00152534 -0.00157355 -0.00595726 -0.00603518 -0.00610416 -0.00616294 -0.0062106 -0.00624652 -0.00627032 -0.00628176 -0.00628067 -0.0062668 -0.00623969 -0.00620662 -0.00660466 -0.00654844 -0.00647593 -0.0063848 -0.00627214 -0.00613433 -0.00596709 -0.00576543 -0.00552372 -0.00523575 -0.00489495 -0.0044978 -0.00427221 -0.00389591 -0.00345698 -0.00296682 -0.00244104 -0.0018983 -0.00135975 -0.000849519 -0.000395812 -3.06067e-05 0.000213813 0.000301345 0.000135027 0.000203142 0.000137488 -4.65678e-05 -0.000312936 -0.000623574 -0.000946097 -0.00125665 -0.00153984 -0.00178708 -0.00199444 -0.00216087 -0.002287 -0.00237456 -0.00664923 -0.00672932 -0.00680071 -0.00686226 -0.00691321 -0.00695315 -0.00698194 -0.00699966 -0.00700647 -0.00700245 -0.0069875 -0.00696945 -0.00739588 -0.00735948 -0.00731116 -0.00724918 -0.00717127 -0.00707456 -0.00695563 -0.00681039 -0.00663417 -0.00642165 -0.0061666 -0.00586249 -0.0057302 -0.0055098 -0.00523924 -0.00492783 -0.00458159 -0.00420023 -0.00377746 -0.00330658 -0.00279001 -0.00224769 -0.00171851 -0.00129399 -0.0017188 -0.00115656 -0.000847183 -0.000771867 -0.000884714 -0.00112998 -0.00145293 -0.00180732 -0.00215876 -0.00248446 -0.00277105 -0.00301182 -0.0032044 -0.00334934 -0.00741173 -0.00749364 -0.00756726 -0.00763159 -0.00768606 -0.00773048 -0.00776504 -0.00779016 -0.0078064 -0.00781432 -0.00781429 -0.00781478 -0.00826986 -0.00825802 -0.00824022 -0.00821574 -0.00818355 -0.00814233 -0.00809053 -0.00802649 -0.00794852 -0.00785488 -0.00774335 -0.0076074 -0.00762574 -0.00766499 -0.00769762 -0.00773299 -0.00776335 -0.00775639 -0.00765624 -0.00739737 -0.0069285 -0.00623579 -0.00535361 -0.00444752 -0.0050065 -0.00364124 -0.00266109 -0.00206691 -0.00182207 -0.00186024 -0.00210005 -0.00246108 -0.00287566 -0.00329379 -0.00368273 -0.00402356 -0.00430723 -0.00453134 -0.00824242 -0.00832583 -0.00840152 -0.00846865 -0.00852683 -0.00857616 -0.00861715 -0.00865065 -0.0086777 -0.00869942 -0.0087168 -0.00873905 -0.00922173 -0.00923879 -0.00925752 -0.00927874 -0.00930335 -0.00933253 -0.009368 -0.0094124 -0.00946979 -0.00954595 -0.00964821 -0.00977645 -0.0100267 -0.0104505 -0.0109569 -0.0115584 -0.0122283 -0.0128863 -0.0134006 -0.0136156 -0.0133971 -0.0126764 -0.0114726 -0.010032 -0.0102998 -0.00785254 -0.00585611 -0.00438897 -0.00347085 -0.00305499 -0.0030435 -0.00331513 -0.00375239 -0.00425921 -0.00476724 -0.00523379 -0.00563611 -0.00596529 -0.00913716 -0.00922183 -0.0092995 -0.00936945 -0.00943151 -0.00948605 -0.00953393 -0.00957646 -0.00961524 -0.00965205 -0.00968869 -0.00973517 -0.0102425 -0.0102918 -0.0103519 -0.0104259 -0.0105172 -0.0106306 -0.0107726 -0.0109523 -0.0111826 -0.0114815 -0.0118726 -0.0123718 -0.0129586 -0.0138973 -0.0150616 -0.0164686 -0.0180652 -0.0197042 -0.0211521 -0.022138 -0.0224274 -0.0218886 -0.020525 -0.0186479 -0.0179378 -0.0143031 -0.0110109 -0.00829518 -0.00630622 -0.00507943 -0.00453998 -0.0045381 -0.00489676 -0.00545253 -0.00607866 -0.00669048 -0.00723949 -0.00770376 -0.0100901 -0.010176 -0.0102557 -0.0103285 -0.0103946 -0.0104544 -0.0105093 -0.010561 -0.0106117 -0.0106639 -0.0107205 -0.0107923 -0.0113191 -0.0114021 -0.0115065 -0.0116378 -0.0118031 -0.0120114 -0.0122755 -0.0126129 -0.0130485 -0.0136168 -0.0143642 -0.0153322 -0.0163713 -0.0179354 -0.0199168 -0.0223336 -0.0250939 -0.0279646 -0.0305913 -0.0325783 -0.0335946 -0.0334577 -0.0321676 -0.0300592 -0.0277947 -0.023134 -0.0184742 -0.0142507 -0.0108134 -0.00836303 -0.0069231 -0.00636287 -0.00645918 -0.00696813 -0.0076794 -0.00844133 -0.00916123 -0.00979325 -0.0110943 -0.0111816 -0.0112634 -0.0113393 -0.0114094 -0.0114743 -0.0115358 -0.0115959 -0.0116577 -0.0117245 -0.0118 -0.0118963 -0.0124346 -0.0125503 -0.0126987 -0.0128886 -0.0131306 -0.0134393 -0.0138345 -0.0143437 -0.0150057 -0.0158745 -0.0170229 -0.0185254 -0.0201151 -0.0223689 -0.0252589 -0.0287939 -0.0328283 -0.0370278 -0.0409109 -0.0439663 -0.0457905 -0.0461784 -0.0451441 -0.0429958 -0.0391812 -0.033876 -0.0280634 -0.022338 -0.0172562 -0.0132435 -0.0105125 -0.00903838 -0.008606 -0.00890403 -0.00962222 -0.0105145 -0.0114192 -0.0122504 -0.0121418 -0.0122311 -0.0123157 -0.0123949 -0.0124688 -0.0125383 -0.0126052 -0.0126722 -0.0127428 -0.0128214 -0.0129128 -0.0130302 -0.013569 -0.0137131 -0.0139017 -0.0141466 -0.0144628 -0.0148704 -0.0153968 -0.0160799 -0.0169731 -0.0181502 -0.0197106 -0.0217624 -0.0239476 -0.0268912 -0.0306844 -0.0353138 -0.0405673 -0.0460042 -0.0510252 -0.055028 -0.0575697 -0.0584534 -0.0577237 -0.0556373 -0.0509225 -0.0454214 -0.038913 -0.0320207 -0.0254208 -0.0197463 -0.015456 -0.0127316 -0.0114624 -0.0113261 -0.011923 -0.0128932 -0.0139794 -0.0150337 -0.013225 -0.0133175 -0.0134057 -0.0134885 -0.013566 -0.013639 -0.0137095 -0.0137804 -0.013856 -0.0139415 -0.0140432 -0.0141753 -0.0147005 -0.0148652 -0.0150857 -0.015377 -0.0157586 -0.0162558 -0.0169034 -0.0177493 -0.01886 -0.0203273 -0.0222729 -0.0248327 -0.0275761 -0.0311429 -0.0357358 -0.0413084 -0.0475784 -0.0540085 -0.0599047 -0.064605 -0.0676567 -0.0688936 -0.0684019 -0.0664092 -0.0616564 -0.0563288 -0.0496664 -0.0421787 -0.0345185 -0.0274211 -0.0215656 -0.0174009 -0.0150291 -0.0142166 -0.014526 -0.0154884 -0.01673 -0.0180182 -0.0143371 -0.0144348 -0.0145277 -0.0146148 -0.0146956 -0.0147705 -0.0148414 -0.0149119 -0.0149866 -0.0150718 -0.0151753 -0.0153125 -0.0158071 -0.0159807 -0.0162204 -0.0165447 -0.0169766 -0.0175466 -0.0182958 -0.0192805 -0.0205781 -0.0222939 -0.0245653 -0.0275456 -0.0307233 -0.0347932 -0.0400082 -0.0462853 -0.0532807 -0.0603837 -0.0668384 -0.0719532 -0.0752846 -0.0767044 -0.0763449 -0.0744498 -0.0702795 -0.0653403 -0.0589665 -0.0514789 -0.0433862 -0.0353833 -0.0282595 -0.0227058 -0.0191038 -0.0174192 -0.0172687 -0.0181145 -0.0194636 -0.02098 -0.0154736 -0.0155789 -0.0156786 -0.0157707 -0.015854 -0.0159285 -0.0159958 -0.0160596 -0.0161253 -0.0162005 -0.0162944 -0.0164237 -0.0168678 -0.0170351 -0.0172776 -0.0176165 -0.0180786 -0.0186984 -0.0195219 -0.0206119 -0.0220532 -0.0239595 -0.0264764 -0.0297626 -0.033186 -0.0376086 -0.0432321 -0.0499409 -0.0573486 -0.0648025 -0.0715201 -0.0768052 -0.0802311 -0.0817017 -0.0813885 -0.0795827 -0.076254 -0.0717622 -0.0659135 -0.0588499 -0.0508906 -0.0425818 -0.0346843 -0.0280269 -0.0232556 -0.0206082 -0.0198597 -0.0204766 -0.0218705 -0.0235941 -0.0166326 -0.0167493 -0.0168583 -0.0169564 -0.0170412 -0.0171119 -0.0171699 -0.0172188 -0.0172651 -0.0173177 -0.0173875 -0.0174929 -0.0178645 -0.018007 -0.0182325 -0.0185647 -0.0190331 -0.0196755 -0.0205416 -0.0216979 -0.0232336 -0.0252656 -0.0279404 -0.0314121 -0.0348676 -0.0394875 -0.0453068 -0.0521875 -0.0597227 -0.0672508 -0.0739939 -0.0792699 -0.0826692 -0.084114 -0.0837978 -0.0820605 -0.0795932 -0.0754956 -0.0702066 -0.0637462 -0.0562657 -0.0481271 -0.0399614 -0.0326057 -0.0268827 -0.0233056 -0.0218846 -0.022178 -0.0235498 -0.0254497 -0.0178162 -0.0179494 -0.018071 -0.0181763 -0.0182611 -0.0183236 -0.0183645 -0.0183879 -0.0184016 -0.018416 -0.0184446 -0.0185073 -0.0187826 -0.0188797 -0.0190662 -0.0193682 -0.0198175 -0.020454 -0.0213296 -0.0225128 -0.0240939 -0.0261889 -0.0289394 -0.0324878 -0.0357775 -0.0404552 -0.0462869 -0.0531234 -0.0605586 -0.0679486 -0.0745449 -0.079692 -0.0829949 -0.0843781 -0.0840359 -0.0823347 -0.0806529 -0.0768357 -0.0720043 -0.0661168 -0.0592102 -0.0514855 -0.0434081 -0.0357272 -0.02933 -0.0249446 -0.0228417 -0.0227456 -0.0240344 -0.0260769 -0.0190317 -0.019188 -0.0193266 -0.0194403 -0.0195228 -0.0195706 -0.0195841 -0.0195685 -0.0195331 -0.0194912 -0.0194587 -0.019458 -0.0196117 -0.0196413 -0.0197662 -0.0200145 -0.0204194 -0.0210224 -0.0218765 -0.0230506 -0.0246339 -0.0267386 -0.0294972 -0.0330359 -0.0360069 -0.0406323 -0.0463378 -0.0529731 -0.0601482 -0.0672557 -0.0735918 -0.0785358 -0.081704 -0.0830105 -0.0826292 -0.0809221 -0.0799249 -0.0762504 -0.0717037 -0.0662234 -0.0597862 -0.0524821 -0.0446292 -0.0368487 -0.0300037 -0.0249506 -0.0221942 -0.0216671 -0.022821 -0.0249756 -0.0202924 -0.0204806 -0.0206418 -0.020765 -0.0208411 -0.020865 -0.0208373 -0.0207651 -0.0206608 -0.0205413 -0.0204262 -0.0203399 -0.0203462 -0.0202859 -0.020327 -0.0204991 -0.0208367 -0.0213818 -0.0221878 -0.0233232 -0.0248749 -0.0269494 -0.029668 -0.0331376 -0.0356945 -0.0401923 -0.0456827 -0.0520211 -0.0588425 -0.0655855 -0.0715987 -0.07