# vtk DataFile Version 2.0
Presion
ASCII

DATASET STRUCTURED_GRID
DIMENSIONS   50   50   20

POINTS   50000   double
0.00568455   0.00568455   0.025
0.0174023   0.00568455   0.025
0.0298294   0.00568455   0.025
0.0429888   0.00568455   0.025
0.0569012   0.00568455   0.025
0.0715849   0.00568455   0.025
0.0870549   0.00568455   0.025
0.103323   0.00568455   0.025
0.120395   0.00568455   0.025
0.138275   0.00568455   0.025
0.156961   0.00568455   0.025
0.176443   0.00568455   0.025
0.196707   0.00568455   0.025
0.217734   0.00568455   0.025
0.239496   0.00568455   0.025
0.261959   0.00568455   0.025
0.285082   0.00568455   0.025
0.308818   0.00568455   0.025
0.333113   0.00568455   0.025
0.357906   0.00568455   0.025
0.383132   0.00568455   0.025
0.408719   0.00568455   0.025
0.434592   0.00568455   0.025
0.460672   0.00568455   0.025
0.486877   0.00568455   0.025
0.513123   0.00568455   0.025
0.539328   0.00568455   0.025
0.565408   0.00568455   0.025
0.591281   0.00568455   0.025
0.616868   0.00568455   0.025
0.642094   0.00568455   0.025
0.666887   0.00568455   0.025
0.691182   0.00568455   0.025
0.714918   0.00568455   0.025
0.738041   0.00568455   0.025
0.760504   0.00568455   0.025
0.782266   0.00568455   0.025
0.803293   0.00568455   0.025
0.823557   0.00568455   0.025
0.843039   0.00568455   0.025
0.861725   0.00568455   0.025
0.879605   0.00568455   0.025
0.896677   0.00568455   0.025
0.912945   0.00568455   0.025
0.928415   0.00568455   0.025
0.943099   0.00568455   0.025
0.957011   0.00568455   0.025
0.970171   0.00568455   0.025
0.982598   0.00568455   0.025
0.994315   0.00568455   0.025
0.00568455   0.0174023   0.025
0.0174023   0.0174023   0.025
0.0298294   0.0174023   0.025
0.0429888   0.0174023   0.025
0.0569012   0.0174023   0.025
0.0715849   0.0174023   0.025
0.0870549   0.0174023   0.025
0.103323   0.0174023   0.025
0.120395   0.0174023   0.025
0.138275   0.0174023   0.025
0.156961   0.0174023   0.025
0.176443   0.0174023   0.025
0.196707   0.0174023   0.025
0.217734   0.0174023   0.025
0.239496   0.0174023   0.025
0.261959   0.0174023   0.025
0.285082   0.0174023   0.025
0.308818   0.0174023   0.025
0.333113   0.0174023   0.025
0.357906   0.0174023   0.025
0.383132   0.0174023   0.025
0.408719   0.0174023   0.025
0.434592   0.0174023   0.025
0.460672   0.0174023   0.025
0.486877   0.0174023   0.025
0.513123   0.0174023   0.025
0.539328   0.0174023   0.025
0.565408   0.0174023   0.025
0.591281   0.0174023   0.025
0.616868   0.0174023   0.025
0.642094   0.0174023   0.025
0.666887   0.0174023   0.025
0.691182   0.0174023   0.025
0.714918   0.0174023   0.025
0.738041   0.0174023   0.025
0.760504   0.0174023   0.025
0.782266   0.0174023   0.025
0.803293   0.0174023   0.025
0.823557   0.0174023   0.025
0.843039   0.0174023   0.025
0.861725   0.0174023   0.025
0.879605   0.0174023   0.025
0.896677   0.0174023   0.025
0.912945   0.0174023   0.025
0.928415   0.0174023   0.025
0.943099   0.0174023   0.025
0.957011   0.0174023   0.025
0.970171   0.0174023   0.025
0.982598   0.0174023   0.025
0.994315   0.0174023   0.025
0.00568455   0.0298294   0.025
0.0174023   0.0298294   0.025
0.0298294   0.0298294   0.025
0.0429888   0.0298294   0.025
0.0569012   0.0298294   0.025
0.0715849   0.0298294   0.025
0.0870549   0.0298294   0.025
0.103323   0.0298294   0.025
0.120395   0.0298294   0.025
0.138275   0.0298294   0.025
0.156961   0.0298294   0.025
0.176443   0.0298294   0.025
0.196707   0.0298294   0.025
0.217734   0.0298294   0.025
0.239496   0.0298294   0.025
0.261959   0.0298294   0.025
0.285082   0.0298294   0.025
0.308818   0.0298294   0.025
0.333113   0.0298294   0.025
0.357906   0.0298294   0.025
0.383132   0.0298294   0.025
0.408719   0.0298294   0.025
0.434592   0.0298294   0.025
0.460672   0.0298294   0.025
0.486877   0.0298294   0.025
0.513123   0.0298294   0.025
0.539328   0.0298294   0.025
0.565408   0.0298294   0.025
0.591281   0.0298294   0.025
0.616868   0.0298294   0.025
0.642094   0.0298294   0.025
0.666887   0.0298294   0.025
0.691182   0.0298294   0.025
0.714918   0.0298294   0.025
0.738041   0.0298294   0.025
0.760504   0.0298294   0.025
0.782266   0.0298294   0.025
0.803293   0.0298294   0.025
0.823557   0.0298294   0.025
0.843039   0.0298294   0.025
0.861725   0.0298294   0.025
0.879605   0.0298294   0.025
0.896677   0.0298294   0.025
0.912945   0.0298294   0.025
0.928415   0.0298294   0.025
0.943099   0.0298294   0.025
0.957011   0.0298294   0.025
0.970171   0.0298294   0.025
0.982598   0.0298294   0.025
0.994315   0.0298294   0.025
0.00568455   0.0429888   0.025
0.0174023   0.0429888   0.025
0.0298294   0.0429888   0.025
0.0429888   0.0429888   0.025
0.0569012   0.0429888   0.025
0.0715849   0.0429888   0.025
0.0870549   0.0429888   0.025
0.103323   0.0429888   0.025
0.120395   0.0429888   0.025
0.138275   0.0429888   0.025
0.156961   0.0429888   0.025
0.176443   0.0429888   0.025
0.196707   0.0429888   0.025
0.217734   0.0429888   0.025
0.239496   0.0429888   0.025
0.261959   0.0429888   0.025
0.285082   0.0429888   0.025
0.308818   0.0429888   0.025
0.333113   0.0429888   0.025
0.357906   0.0429888   0.025
0.383132   0.0429888   0.025
0.408719   0.0429888   0.025
0.434592   0.0429888   0.025
0.460672   0.0429888   0.025
0.486877   0.0429888   0.025
0.513123   0.0429888   0.025
0.539328   0.0429888   0.025
0.565408   0.0429888   0.025
0.591281   0.0429888   0.025
0.616868   0.0429888   0.025
0.642094   0.0429888   0.025
0.666887   0.0429888   0.025
0.691182   0.0429888   0.025
0.714918   0.0429888   0.025
0.738041   0.0429888   0.025
0.760504   0.0429888   0.025
0.782266   0.0429888   0.025
0.803293   0.0429888   0.025
0.823557   0.0429888   0.025
0.843039   0.0429888   0.025
0.861725   0.0429888   0.025
0.879605   0.0429888   0.025
0.896677   0.0429888   0.025
0.912945   0.0429888   0.025
0.928415   0.0429888   0.025
0.943099   0.0429888   0.025
0.957011   0.0429888   0.025
0.970171   0.0429888   0.025
0.982598   0.0429888   0.025
0.994315   0.0429888   0.025
0.00568455   0.0569012   0.025
0.0174023   0.0569012   0.025
0.0298294   0.0569012   0.025
0.0429888   0.0569012   0.025
0.0569012   0.0569012   0.025
0.0715849   0.0569012   0.025
0.0870549   0.0569012   0.025
0.103323   0.0569012   0.025
0.120395   0.0569012   0.025
0.138275   0.0569012   0.025
0.156961   0.0569012   0.025
0.176443   0.0569012   0.025
0.196707   0.0569012   0.025
0.217734   0.0569012   0.025
0.239496   0.0569012   0.025
0.261959   0.0569012   0.025
0.285082   0.0569012   0.025
0.308818   0.0569012   0.025
0.333113   0.0569012   0.025
0.357906   0.0569012   0.025
0.383132   0.0569012   0.025
0.408719   0.0569012   0.025
0.434592   0.0569012   0.025
0.460672   0.0569012   0.025
0.486877   0.0569012   0.025
0.513123   0.0569012   0.025
0.539328   0.0569012   0.025
0.565408   0.0569012   0.025
0.591281   0.0569012   0.025
0.616868   0.0569012   0.025
0.642094   0.0569012   0.025
0.666887   0.0569012   0.025
0.691182   0.0569012   0.025
0.714918   0.0569012   0.025
0.738041   0.0569012   0.025
0.760504   0.0569012   0.025
0.782266   0.0569012   0.025
0.803293   0.0569012   0.025
0.823557   0.0569012   0.025
0.843039   0.0569012   0.025
0.861725   0.0569012   0.025
0.879605   0.0569012   0.025
0.896677   0.0569012   0.025
0.912945   0.0569012   0.025
0.928415   0.0569012   0.025
0.943099   0.0569012   0.025
0.957011   0.0569012   0.025
0.970171   0.0569012   0.025
0.982598   0.0569012   0.025
0.994315   0.0569012   0.025
0.00568455   0.0715849   0.025
0.0174023   0.0715849   0.025
0.0298294   0.0715849   0.025
0.0429888   0.0715849   0.025
0.0569012   0.0715849   0.025
0.0715849   0.0715849   0.025
0.0870549   0.0715849   0.025
0.103323   0.0715849   0.025
0.120395   0.0715849   0.025
0.138275   0.0715849   0.025
0.156961   0.0715849   0.025
0.176443   0.0715849   0.025
0.196707   0.0715849   0.025
0.217734   0.0715849   0.025
0.239496   0.0715849   0.025
0.261959   0.0715849   0.025
0.285082   0.0715849   0.025
0.308818   0.0715849   0.025
0.333113   0.0715849   0.025
0.357906   0.0715849   0.025
0.383132   0.0715849   0.025
0.408719   0.0715849   0.025
0.434592   0.0715849   0.025
0.460672   0.0715849   0.025
0.486877   0.0715849   0.025
0.513123   0.0715849   0.025
0.539328   0.0715849   0.025
0.565408   0.0715849   0.025
0.591281   0.0715849   0.025
0.616868   0.0715849   0.025
0.642094   0.0715849   0.025
0.666887   0.0715849   0.025
0.691182   0.0715849   0.025
0.714918   0.0715849   0.025
0.738041   0.0715849   0.025
0.760504   0.0715849   0.025
0.782266   0.0715849   0.025
0.803293   0.0715849   0.025
0.823557   0.0715849   0.025
0.843039   0.0715849   0.025
0.861725   0.0715849   0.025
0.879605   0.0715849   0.025
0.896677   0.0715849   0.025
0.912945   0.0715849   0.025
0.928415   0.0715849   0.025
0.943099   0.0715849   0.025
0.957011   0.0715849   0.025
0.970171   0.0715849   0.025
0.982598   0.0715849   0.025
0.994315   0.0715849   0.025
0.00568455   0.0870549   0.025
0.0174023   0.0870549   0.025
0.0298294   0.0870549   0.025
0.0429888   0.0870549   0.025
0.0569012   0.0870549   0.025
0.0715849   0.0870549   0.025
0.0870549   0.0870549   0.025
0.103323   0.0870549   0.025
0.120395   0.0870549   0.025
0.138275   0.0870549   0.025
0.156961   0.0870549   0.025
0.176443   0.0870549   0.025
0.196707   0.0870549   0.025
0.217734   0.0870549   0.025
0.239496   0.0870549   0.025
0.261959   0.0870549   0.025
0.285082   0.0870549   0.025
0.308818   0.0870549   0.025
0.333113   0.0870549   0.025
0.357906   0.0870549   0.025
0.383132   0.0870549   0.025
0.408719   0.0870549   0.025
0.434592   0.0870549   0.025
0.460672   0.0870549   0.025
0.486877   0.0870549   0.025
0.513123   0.0870549   0.025
0.539328   0.0870549   0.025
0.565408   0.0870549   0.025
0.591281   0.0870549   0.025
0.616868   0.0870549   0.025
0.642094   0.0870549   0.025
0.666887   0.0870549   0.025
0.691182   0.0870549   0.025
0.714918   0.0870549   0.025
0.738041   0.0870549   0.025
0.760504   0.0870549   0.025
0.782266   0.0870549   0.025
[...]
POINT_DATA   50000
SCALARS Presion double
LOOKUP_TABLE   Presion

0 0 0 0 0 0 0 0 0 0 0 0 0 0 0 0 0 0 0 0 0 0 0 0 0 0 0 0 0 0 0 0 0 0 0 0 0 0 0 0 0 0 0 0 0 0 0 0 0 0 0.00165718 0.00180412 0.0019815 0.00210979 0.00217454 0.00217692 0.00212152 0.00201344 0.00185754 0.00165807 0.0014184 0.00114022 0.000681926 0.000403759 0.000155554 -6.06506e-05 -0.000239775 -0.000373461 -0.000451949 -0.000466466 -0.000411656 -0.000287599 -0.000100776 0.000136231 0.000386448 0.00063553 0.000849892 0.00100263 0.00107232 0.00104512 0.000916382 0.000691304 0.000384608 1.93835e-05 -0.000374794 -0.000763216 -0.00101159 -0.00137316 -0.00170973 -0.00200381 -0.00224494 -0.00242743 -0.00254836 -0.00260631 -0.0026005 -0.00253044 -0.0023962 -0.00220127 -0.00196609 -0.00178316 0.00217543 0.0021643 0.00221411 0.00226482 0.00228679 0.00226781 0.00220418 0.00209618 0.00194602 0.00175691 0.00153316 0.00127878 0.000759574 0.000507977 0.000273652 6.37307e-05 -0.000114431 -0.000251821 -0.000338733 -0.000366645 -0.000330334 -0.00022972 -7.08565e-05 0.000132587 0.000354982 0.000572816 0.000758191 0.000885649 0.000934939 0.000893069 0.000755841 0.000528439 0.000224952 -0.000133154 -0.000519678 -0.000904529 -0.00108118 -0.00143981 -0.00176553 -0.00204691 -0.00227671 -0.0024512 -0.00256909 -0.00263086 -0.00263859 -0.00259658 -0.00251324 -0.00240592 -0.00231075 -0.00229718 0.00252672 0.00247688 0.00246229 0.0024569 0.00243925 0.00239577 0.00231929 0.00220706 0.00205913 0.00187766 0.00166705 0.00143057 0.000841814 0.000612617 0.000390655 0.0001851 4.80295e-06 -0.000140564 -0.000241066 -0.000287989 -0.000275675 -0.00020326 -7.58944e-05 9.15709e-05 0.000290783 0.000483338 0.000647223 0.000757896 0.000795201 0.000745714 0.000604558 0.000376157 7.37274e-05 -0.000282567 -0.000668763 -0.00105625 -0.00115717 -0.00151798 -0.0018384 -0.00211175 -0.00233421 -0.0025044 -0.00262296 -0.00269229 -0.00271677 -0.00270349 -0.00266375 -0.00261527 -0.00258396 -0.00260076 0.0028191 0.00275952 0.00271312 0.00267118 0.00262203 0.00255555 0.00246468 0.00234553 0.00219688 0.00201997 0.00181878 0.00159465 0.000931052 0.000718097 0.000504284 0.000298949 0.000111544 -4.78001e-05 -0.000168722 -0.000241852 -0.000260445 -0.000222096 -0.000130276 -2.98265e-07 0.00017766 0.000351029 0.000501182 0.000604171 0.000638962 0.000590482 0.000451998 0.000226277 -7.47908e-05 -0.000432196 -0.00082326 -0.00121877 -0.00124394 -0.00161096 -0.00193054 -0.00220005 -0.00241897 -0.00258832 -0.00271054 -0.00278951 -0.00283082 -0.00284207 -0.00283347 -0.0028179 -0.00280955 -0.00281953 0.00310189 0.003034 0.00296779 0.00290091 0.00282764 0.00274139 0.0026365 0.00250908 0.00235732 0.00218167 0.00198544 0.00176747 0.00102666 0.000822186 0.00060969 0.000397771 0.000195773 1.40444e-05 -0.000136463 -0.000245235 -0.000303708 -0.000307035 -0.00025597 -0.000165142 -8.31615e-06 0.000151262 0.000295395 0.000400491 0.000443757 0.000407266 0.000281135 6.53236e-05 -0.000230374 -0.000588291 -0.000986441 -0.00139353 -0.00134641 -0.00172234 -0.00204416 -0.00231318 -0.00253192 -0.00270349 -0.00283171 -0.00292128 -0.00297792 -0.00300837 -0.00302032 -0.00302181 -0.00301983 -0.003018 0.00339474 0.00331317 0.00322934 0.00314264 0.00305 0.00294702 0.0028292 0.00269288 0.00253587 0.00235791 0.00216142 0.00194242 0.00112448 0.000918964 0.00069823 0.000469831 0.000242576 2.68645e-05 -0.000165564 -0.000322521 -0.000432816 -0.000488145 -0.00048531 -0.000436903 -0.000301083 -0.000151773 -6.47554e-06 0.000111281 0.000176091 0.000165918 6.62322e-05 -0.000127324 -0.000408296 -0.000761032 -0.00116415 -0.0015833 -0.00147096 -0.00185615 -0.00218133 -0.00245202 -0.00267334 -0.00284987 -0.00298615 -0.003087 -0.00315756 -0.00320321 -0.00322925 -0.00324047 -0.0032404 -0.00323052 0.00370174 0.00360034 0.00349724 0.00339201 0.00328236 0.00316468 0.00303486 0.0028891 0.00272462 0.00254025 0.00233725 0.00210865 0.00121575 0.000997536 0.000756021 0.000497676 0.000230606 -3.47589e-05 -0.000285617 -0.00050751 -0.000685751 -0.000807486 -0.000864223 -0.000865068 -0.000747591 -0.000608425 -0.000456044 -0.000314401 -0.000212359 -0.000177413 -0.000230532 -0.000382389 -0.000631727 -0.000966262 -0.00136577 -0.00179252 -0.0016265 -0.0020173 -0.00234412 -0.00261703 -0.00284303 -0.00302714 -0.00317373 -0.00328706 -0.00337132 -0.00343046 -0.00346809 -0.00348717 -0.00348986 -0.0034773 0.00401711 0.00389047 0.00376535 0.00364108 0.00351516 0.00338373 0.0032422 0.00308599 0.00291123 0.00271545 0.00249838 0.00224993 0.0012856 0.0010405 0.000762296 0.000456445 0.000130351 -0.00020538 -0.000536501 -0.000845622 -0.00111365 -0.00132204 -0.00145565 -0.00151857 -0.00141152 -0.00128761 -0.00112462 -0.000947612 -0.000789719 -0.000685334 -0.000663971 -0.000745194 -0.00093559 -0.00122847 -0.00160621 -0.00202816 -0.00182626 -0.00221256 -0.00253512 -0.00280868 -0.00304064 -0.003235 -0.00339479 -0.00352293 -0.00362232 -0.00369568 -0.00374542 -0.00377361 -0.00378196 -0.00377189 0.00432698 0.00417069 0.0040209 0.00387646 0.00373412 0.00358898 0.00343519 0.00326665 0.0030778 0.0028643 0.00262386 0.00234321 0.00131147 0.00102233 0.000687715 0.000312128 -9.76222e-05 -0.000530485 -0.000970278 -0.00139596 -0.00178307 -0.00210626 -0.00234242 -0.00248892 -0.00237738 -0.00228104 -0.00210787 -0.00188476 -0.00164972 -0.00144545 -0.00131234 -0.00128199 -0.00137236 -0.00158566 -0.00190945 -0.002302 -0.00209072 -0.00245247 -0.00275892 -0.0030285 -0.00326656 -0.00347385 -0.0036505 -0.00379712 -0.00391488 -0.00400525 -0.00406977 -0.00411006 -0.00412779 -0.00412473 0.00460953 0.00442034 0.0042438 0.00407809 0.00391876 0.00375926 0.00359172 0.00340783 0.00319966 0.00296042 0.00268523 0.00235756 0.00126155 0.000907832 0.000492869 2.01073e-05 -0.000504082 -0.00106785 -0.0016525 -0.00223257 -0.00277727 -0.00325326 -0.00362828 -0.00389101 -0.00375391 -0.00370642 -0.00352941 -0.00325192 -0.002917 -0.00257672 -0.00228464 -0.00208784 -0.00201996 -0.00209672 -0.00231481 -0.0026354 -0.00245257 -0.00275494 -0.00302482 -0.00328123 -0.00352347 -0.00374592 -0.00394363 -0.00411359 -0.00425454 -0.00436641 -0.00444993 -0.00450637 -0.00453747 -0.00454535 0.00483468 0.00461058 0.00440603 0.00421831 0.00404129 0.00386616 0.0036824 0.00347882 0.00324445 0.00296943 0.00264563 0.00225335 0.0010937 0.000651226 0.000127397 -0.000475586 -0.00115167 -0.00188781 -0.00266216 -0.00344397 -0.00419508 -0.00487302 -0.00543525 -0.00585917 -0.00567476 -0.00570715 -0.00554049 -0.00520527 -0.00474895 -0.00423325 -0.00372645 -0.00329437 -0.00299106 -0.00285133 -0.00288669 -0.00306811 -0.00296403 -0.00315134 -0.00335185 -0.00357863 -0.00381913 -0.00405717 -0.00427984 -0.00447862 -0.00464868 -0.00478782 -0.00489565 -0.00497304 -0.00502172 -0.00504413 0.00496399 0.00470439 0.00447157 0.00426157 0.0040661 0.00387354 0.00367007 0.00344099 0.00317172 0.00284864 0.00245979 0.00198228 0.00075519 0.000196113 -0.000469713 -0.00124163 -0.00211379 -0.00307151 -0.00408909 -0.0051295 -0.00614602 -0.00708576 -0.00789474 -0.00853589 -0.00829289 -0.00844496 -0.0083119 -0.00792343 -0.00732971 -0.00660088 -0.0058201 -0.00507387 -0.00444086 -0.00398107 -0.00372783 -0.0036729 -0.00370646 -0.00369528 -0.00377594 -0.00394489 -0.00417023 -0.00441998 -0.0046695 -0.00490208 -0.00510754 -0.00528048 -0.00541878 -0.00552254 -0.00559336 -0.00563388 0.0049512 0.00465711 0.00439685 0.00416485 0.00395018 0.00373781 0.0035101 0.00324827 0.00293351 0.00254791 0.002075 0.00148867 0.000184069 -0.000522831 -0.00136797 -0.0023526 -0.00347094 -0.00470613 -0.0060277 -0.00739116 -0.00873976 -0.0100087 -0.0111312 -0.0120518 -0.0117649 -0.0120814 -0.0120136 -0.0115868 -0.0108507 -0.00988078 -0.00877276 -0.0076334 -0.00656815 -0.00566738 -0.00499395 -0.00457564 -0.00479956 -0.0044728 -0.00435862 -0.00442312 -0.00460695 -0.00485629 -0.00512984 -0.00539897 -0.00564545 -0.00585888 -0.00603433 -0.00617052 -0.0062686 -0.00633126 0.00474387 0.00441814 0.00413248 0.00387934 0.00364467 0.00340958 0.0031521 0.00284887 0.00247637 0.00201184 0.00143369 0.000712421 -0.000687516 -0.00157589 -0.00264066 -0.00388526 -0.00530369 -0.00687613 -0.00856615 -0.0103202 -0.0120696 -0.0137358 -0.0152378 -0.0164979 -0.0162218 -0.016746 -0.0167805 -0.0163416 -0.0154746 -0.0142552 -0.0127865 -0.0111915 -0.0096011 -0.00813836 -0.0069024 -0.00597544 -0.0064037 -0.00560957 -0.00519413 -0.00508115 -0.00517732 -0.00540061 -0.00568706 -0.00599087 -0.00628185 -0.00654184 -0.00676132 -0.00693663 -0.0070679 -0.00715765 0.00428654 0.00393396 0.0036262 0.00335337 0.00309793 0.00283674 0.00254312 0.00218875 0.00174504 0.00118385 0.000477968 -0.000405909 -0.00192734 -0.00303162 -0.00435717 -0.00590957 -0.00768204 -0.00965058 -0.0117711 -0.0139788 -0.0161912 -0.0183137 -0.0202492 -0.0218952 -0.0217296 -0.0224945 -0.0226675 -0.0222526 -0.0212857 -0.0198366 -0.0180085 -0.0159329 -0.0137597 -0.0116428 -0.00972108 -0.00814958 -0.00870572 -0.00726755 -0.00641055 -0.00601443 -0.00595016 -0.00610246 -0.0063779 -0.00670695 -0.00704192 -0.00735288 -0.00762305 -0.00784473 -0.00801617 -0.00813931 0.00352527 0.00315263 0.00282735 0.0025369 0.00226002 0.00196907 0.00163246 0.00121671 0.000687804 1.19566e-05 -0.000844113 -0.00191804 -0.00359456 -0.00494749 -0.00657252 -0.00847693 -0.010652 -0.0130677 -0.0156702 -0.018381 -0.0211011 -0.0237181 -0.0261176 -0.0281716 -0.0282472 -0.0292682 -0.0296084 -0.0292577 -0.0282394 -0.0266121 -0.0244708 -0.0219451 -0.0191936 -0.0163932 -0.0137213 -0.0114184 -0.0118819 -0.00962493 -0.00816131 -0.00734408 -0.00701607 -0.00702786 -0.00725093 -0.00758459 -0.00795673 -0.00832007 -0.00864666 -0.00892232 -0.00914201 -0.00930638 0.00241362 0.00202958 0.00169256 0.00138724 0.00108854 0.000764273 0.000377911 -0.000109251 -0.000736697 -0.00154404 -0.00257078 -0.00385952 -0.00572924 -0.0073588 -0.00931547 -0.0116071 -0.0142213 -0.01712 -0.0202364 -0.023476 -0.0267211 -0.0298405 -0.0327018 -0.0351551 -0.0356018 -0.0368726 -0.0373944 -0.0371449 -0.0361339 -0.0344058 -0.0320409 -0.0291569 -0.0259085 -0.0224834 -0.0190898 -0.0160529 -0.016046 -0.0128403 -0.010606 -0.00920901 -0.00848535 -0.00825966 -0.00836713 -0.00866968 -0.00906293 -0.00947519 -0.009862 -0.0101991 -0.010476 -0.0106909 0.000919197 0.00053398 0.000192102 -0.000124586 -0.000444928 -0.000805472 -0.00124751 -0.0018148 -0.00255216 -0.0035049 -0.00471856 -0.00624119 -0.00834183 -0.0102678 -0.0125773 -0.0152772 -0.0183489 -0.0217435 -0.025379 -0.0291423 -0.032896 -0.0364903 -0.0397763 -0.0425893 -0.0434972 -0.0449917 -0.0456923 -0.0455692 -0.0446219 -0.0428815 -0.0404106 -0.0373082 -0.0337137 -0.0298108 -0.0258243 -0.0221442 -0.0212051 -0.0170119 -0.0138827 -0.0117503 -0.010481 -0.00989512 -0.00979935 -0.0100162 -0.0104019 -0.0108524 -0.0112997 -0.0117046 -0.012048 -0.0123242 -0.00096998 -0.00134507 -0.00168404 -0.00200779 -0.00234867 -0.00274724 -0.00324916 -0.00390283 -0.004758 -0.00586522 -0.00727553 -0.00904246 -0.0114047 -0.0136356 -0.0163044 -0.0194147 -0.0229395 -0.0268164 -0.0309459 -0.0351951 -0.0394073 -0.043416 -0.0470599 -0.0501684 -0.0515607 -0.0532386 -0.0540989 -0.0541108 -0.0532695 -0.0515966 -0.0491397 -0.0459765 -0.0422236 -0.0380469 -0.033669 -0.0295049 -0.027247 -0.0221453 -0.0180751 -0.0150868 -0.0131238 -0.0120381 -0.0116285 -0.0116838 -0.0120177 -0.0124858 -0.0129886 -0.0134654 -0.0138841 -0.0142327 -0.00324061 -0.00359385 -0.00392156 -0.00424721 -0.00460626 -0.00504276 -0.00560616 -0.00634886 -0.00732488 -0.00858924 -0.0101975 -0.012208 -0.0148489 -0.0173796 -0.0203972 -0.0238994 -0.0278487 -0.0321673 -0.0367371 -0.0414059 -0.0459996 -0.0503389 -0.0542553 -0.0575816 -0.0594129 -0.0612279 -0.0622168 -0.0623548 -0.0616398 -0.0600903 -0.0577434 -0.0546586 -0.0509275 -0.0466882 -0.0421413 -0.0376767 -0.0339563 -0.0281356 -0.0231793 -0.0192822 -0.0165076 -0.0147835 -0.0139342 -0.0137327 -0.0139532 -0.0144058 -0.0149514 -0.0155002 -0.0160016 -0.0164336 -0.00585186 -0.00617189 -0.00647979 -0.00680136 -0.00717467 -0.00764663 -0.00826975 -0.00909965 -0.0101937 -0.0116103 -0.0134082 -0.0156495 -0.0185662 -0.0213778 -0.0247163 -0.0285721 -0.0328956 -0.037593 -0.0425281 -0.0475312 -0.0524143 -0.0569901 -0.0610889 -0.064554 -0.0667329 -0.0686389 -0.0697199 -0.069962 -0.0693714 -0.0679692 -0.0657886 -0.0628767 -0.0593025 -0.0551724 -0.0506489 -0.0460532 -0.0410444 -0.0347663 -0.0290791 -0.0243112 -0.0206677 -0.0181931 -0.0167791 -0.0162128 -0.0162424 -0.016633 -0.0171996 -0.0178149 -0.0184035 -0.0189289 -0.00873661 -0.00901318 -0.00929298 -0.00960379 -0.00998577 -0.010488 -0.0111653 -0.0120756 -0.0132785 -0.0148346 -0.0168044 -0.0192517 -0.0224188 -0.025479 -0.0290955 -0.0332504 -0.0378817 -0.0428805 -0.0480943 -0.0533394 -0.0584183 -0.0631401 -0.0673388 -0.0708726 -0.0732946 -0.0752508 -0.0763883 -0.0767059 -0.0762209 -0.0749613 -0.0729619 -0.0702636 -0.0669191 -0.0630049 -0.0586385 -0.0540485 -0.0481801 -0.0417265 -0.0355393 -0.0300348 -0.0255496 -0.0222672 -0.0201867 -0.0191483 -0.0188996 -0.0191699 -0.0197256 -0.0203955 -0.0210718 -0.0216985 -0.0118062 -0.012031 -0.0122751 -0.012568 -0.0129515 -0.0134761 -0.0141982 -0.015177 -0.0164735 -0.0181489 -0.0202641 -0.0228826 -0.0262524 -0.0295177 -0.0333579 -0.0377467 -0.0426108 -0.0478281 -0.0532334 -0.0586328 -0.0638232 -0.0686145 -0.0728471 -0.0763951 -0.0789695 -0.0809436 -0.0821072 -0.0824717 -0.0820652 -0.0809243 -0.0790887 -0.0765992 -0.0734993 -0.0698421 -0.0657037 -0.0612211 -0.0550222 -0.0486476 -0.042227 -0.0361988 -0.0309905 -0.0269193 -0.0241181 -0.0225199 -0.0219065 -0.0219906 -0.0224951 -0.0232007 -0.0239604 -0.0246933 -0.0149583 -0.0151254 -0.0153275 -0.0155954 -0.0159718 -0.0165085 -0.0172624 -0.0182933 -0.0196624 -0.0214308 -0.0236582 -0.0264055 -0.0299108 -0.03333 -0.0373326 -0.0418854 -0.0469058 -0.0522617 -0.057779 -0.0632575 -0.0684924 -0.0732964 -0.0775173 -0.0810434 -0.0837071 -0.0856759 -0.0868438 -0.087231 -0.0868748 -0.0858199 -0.0841129 -0.0817983 -0.078917 -0.0755087 -0.0716183 -0.0673112 -0.0612568 -0.0551565 -0.0487588 -0.0424612 -0.0367241 -0.0319657 -0.0284549 -0.0262478 -0.0251981 -0.0250311 -0.025439 -0.0261553 -0.0269894 -0.0278297 -0.0180868 -0.018193 -0.0183483 -0.0185844 -0.0189446 -0.0194809 -0.0202506 -0.0213134 -0.0227299 -0.0245599 -0.0268611 -0.0296902 -0.0332497 -0.0367668 -0.0408683 -0.0455155 -0.05062 -0.0560434 -0.0616064 -0.067106 -0.0723381 -0.0771189 -0.0813029 -0.0847888 -0.0875069 -0.0894571 -0.0906159 -0.0910084 -0.0906782 -0.0896767 -0.0880574 -0.085871 -0.0831616 -0.0799644 -0.0763077 -0.0722133 -0.0666314 -0.060927 -0.0547597 -0.048443 -0.0424123 -0.0371361 -0.0329966 -0.0301834 -0.0286546 -0.0281815 -0.0284475 -0.029146 -0.0300411 -0.0309862 -0.0210914 -0.0211366 -0.0212423 -0.0214406 -0.021775 -0.0222973 -0.0230646 -0.024136 -0.025571 -0.0274278 -0.0297615 -0.0326235 -0.0361467 -0.0397042 -0.0438418 -0.0485184 -0.0536427 -0.0590739 -0.0646314 -0.070112 -0.0753131 -0.0800541 -0.0841933 -0.0876362 -0.0903952 -0.0923221 -0.0934662 -0.0938538 -0.0935313 -0.0925552 -0.0909855 -0.0888801 -0.0862898 -0.0832536 -0.0797959 -0.0759221 -0.0709764 -0.0657169 -0.059916 -0.0537858 -0.047694 -0.0421059 -0.037475 -0.0341125 -0.0320992 -0.0312842 -0.0313689 -0.0320205 -0.0329606 -0.0340049 -0.0238865 -0.0238734 -0.0239289 -0.0240848 -0.0243841 -0.0248783 -0.0256235 -0.0266782 -0.0281005 -0.0299468 -0.0322697 -0.035115 -0.0385081 -0.0420491 -0.0461632 -0.0508101 -0.0558992 -0.061291 -0.0668062 -0.0722435 -0.0774017 -0.0821015 -0.0862021 -0.0896107 -0.0924105 -0.0943169 -0.0954471 -0.0958254 -0.0954986 -0.0945264 -0.0929745 -0.0909083 -0.0883876 -0.0854598 -0.082156 -0.0784852 -0.0742065 -0.0693798 -0.064005 -0.0581978 -0.0522366 -0.04654 -0.0415846 -0.0377729 -0.0353074 -0.0341384 -0.0340131 -0.0345916 -0.0355598 -0.0366955 -0.0264075 -0.0263414 -0.026348 -0.0264586 -0.0267148 -0.0271667 -0.0278696 -0.0288808 -0.0302574 -0.0320542 -0.0343221 -0.0371017 -0.0402708 -0.04374 -0.0477755 -0.0523405 -0.0573488 -0.0626651 -0.0681137 -0.073496 -0.0786115 -0.0832801 -0.0873584 -0.0907501 -0.0935963 -0.0954911 -0.0966131 -0.0969826 -0.0966449 -0.0956615 -0.0941028 -0.0920415 -0.089547 -0.0866781 -0.0834781 -0.0799722 -0.076308 -0.071857 -0.0669009 -0.0614769 -0.0557728 -0.0501346 -0.0450191 -0.0408798 -0.0380237 -0.0365115 -0.0361605 -0.0366446 -0.0376251 -0.0388444 -0.0286137 -0.0285021 -0.0284635 -0.0285275 -0.0287338 -0.0291303 -0.0297706 -0.0307108 -0.0320073 -0.0337144 -0.0358822 -0.0385477 -0.0414019 -0.0447464 -0.0486529 -0.0530907 -0.0579807 -0.0631946 -0.068562 -0.0738869 -0.0789688 -0.0836239 -0.0877027 -0.0911011 -0.0940003 -0.095897 -0.0970206 -0.0973858 -0.0970352 -0.0960309 -0.0944469 -0.0923631 -0.089858 -0.0870023 -0.0838539 -0.0804605 -0.07732 -0.0731582 -0.0685616 -0.0635119 -0.0581183 -0.052646 -0.0475027 -0.0431539 -0.0399822 -0.0381542 -0.037573 -0.0379473 -0.0389268 -0.0402227 -0.0304888 -0.0303407 -0.0302623 -0.0302806 -0.030432 -0.030761 -0.0313189 -0.0321603 -0.0333414 -0.0349171 -0.0369389 -0.0394425 -0.0418954 -0.045065 -0.0487966 -0.0530681 -0.05781 -0.0629024 -0.0681811 -0.0734529 -0.0785156 -0.0831798 -0.0872863 -0.090719 -0.0936752 -0.0955914 -0.0967296 -0.0970986 -0.0967371 -0.0957067 -0.0940844 -0.0919562 -0.089409 -0.0865245 -0.0833747 -0.0800308 -0.0773165 -0.0733405 -0.0690087 -0.0642689 -0.0591702 -0.0539029 -0.0488116 -0.0443438 -0.040926 -0.038815 -0.038006 -0.0382592 -0.039227 -0.0405951 -0.032038 -0.0318638 -0.0317528 -0.0317281 -0.0318212 -0.0320723 -0.0325286 -0.0332432 -0.0342726 -0.0356741 -0.037503 -0.039797 -0.041768 -0.0447153 -0.0482309 -0.0523033 -0.0568738 -0.061832 -0.0670205 -0.072248 -0.0773096 -0.0820078 -0.0861715 -0.089669 -0.0926809 -0.0946378 -0.0958072 -0.0961914 -0.0958247 -0.0947674 -0.0930984 -0.0909083 -0.0882915 -0.0853389 -0.0821343 -0.0787699 -0.076394 -0.0724912 -0.0683067 -0.0637715 -0.0588938 -0.0538031 -0.048781 -0.044239 -0.0406203 -0.0382512 -0.037216 -0.0373382 -0.0382853 -0.0397241 -0.0332845 -0.0330955 -0.0329604 -0.0328969 -0.0329303 -0.033094 -0.0334302 -0.0339897 -0.0348301 -0.0360133 -0.0376015 -0.0396385 -0.0410538 -0.0437347 -0.0469984 -0.0508453 -0.055228 -0.0600459 -0.0651475 -0.0703432 -0.0754236 -0.0801819 -0.0844333 -0.0880279 -0.0910867 -0.0931085 -0.0943289 -0.0947435 -0.0943817 -0.0933009 -0.0915811 -0.0893162 -0.0866057 -0.0835476 -0.0802342 -0.0767741 -0.0746626 -0.0707157 -0.0665462 -0.0620807 -0.0573035 -0.0523006 -0.0472999 -0.0426718 -0.0388583 -0.0362347 -0.0349652 -0.0349424 -0.0358597 -0.0373706 -0.0342643 -0.0340726 -0.0339231 -0.0338266 -0.0337998 -0.0338674 -0.0340649 -0.0344402 -0.0350531 -0.0359725 -0.0372716 -0.039005 -0.0397997 -0.0421743 -0.0451565 -0.0487588 -0.0529448 -0.0576227 -0.0626461 -0.0678254 -0.0729462 -0.0777911 -0.0821603 -0.085885 -0.0889721 -0.0910857 -0.0923803 -0.0928444 -0.0925016 -0.0914059 -0.089636 -0.0872874 -0.0844627 -0.0812636 -0.077787 -0.0741516 -0.0722416 -0.068129 -0.0638314 -0.0592783 -0.0544441 -0.0493878 -0.0442984 -0.0395107 -0.0354583 -0.0325501 -0.0310192 -0.0308278 -0.0317027 -0.0332891 -0.0350218 -0.0348406 -0.0346876 -0.0345647 -0.0344776 -0.0344399 -0.0344787 -0.034639 -0.034984 -0.0355932 -0.0365553 -0.0379407 -0.0380603 -0.0400948 -0.0427737 -0.046121 -0.05011 -0.0546556 -0.0596148 -0.0647968 -0.0699808 -0.0749384 -0.0794544 -0.0833417 -0.0864275 -0.0886614 -0.0900562 -0.0905927 -0.0902876 -0.08919 -0.087376 -0.0849397 -0.081984 -0.0786107 -0.074917 -0.0710234 -0.0692548 -0.0648501 -0.0602707 -0.0554533 -0.0503727 -0.0450765 -0.0397309 -0.0346476 -0.0302546 -0.0269885 -0.0251412 -0.0247416 -0.0255547 -0.0272205 -0.0356058 -0.03545 -0.0353057 -0.0351635 -0.0350151 -0.0348605 -0.0347175 -0.0346284 -0.0346628 -0.0349148 -0.0354937 -0.0364911 -0.0358951 -0.0375641 -0.0399275 -0.0430196 -0.0468208 -0.0512499 -0.0561647 -0.0613717 -0.0666431 -0.0717392 -0.0764293 -0.0805099 -0.0835535 -0.0859364 -0.0874592 -0.0880938 -0.0878488 -0.086767 -0.0849193 -0.082396 -0.0792964 -0.0757189 -0.0717555 -0.0675185 -0.0658254 -0.060996 -0.0559696 -0.0506923 -0.0451464 -0.0393821 -0.0335592 -0.0279823 -0.0230855 -0.0193366 -0.0170818 -0.0164123 -0.0171334 -0.0188809 -0.0360672 -0.0359548 -0.0358333 -0.0356785 -0.0354649 -0.035177 -0.0348228