# vtk DataFile Version 2.0
Velocidades
ASCII

DATASET STRUCTURED_GRID
DIMENSIONS   50   50   20

POINTS   50000   double
0.00568455   0.00568455   0.025
0.0174023   0.00568455   0.025
0.0298294   0.00568455   0.025
0.0429888   0.00568455   0.025
0.0569012   0.00568455   0.025
0.0715849   0.00568455   0.025
0.0870549   0.00568455   0.025
0.103323   0.00568455   0.025
0.120395   0.00568455   0.025
0.138275   0.00568455   0.025
0.156961   0.00568455   0.025
0.176443   0.00568455   0.025
0.196707   0.00568455   0.025
0.217734   0.00568455   0.025
0.239496   0.00568455   0.025
0.261959   0.00568455   0.025
0.285082   0.00568455   0.025
0.308818   0.00568455   0.025
0.333113   0.00568455   0.025
0.357906   0.00568455   0.025
0.383132   0.00568455   0.025
0.408719   0.00568455   0.025
0.434592   0.00568455   0.025
0.460672   0.00568455   0.025
0.486877   0.00568455   0.025
0.513123   0.00568455   0.025
0.539328   0.00568455   0.025
0.565408   0.00568455   0.025
0.591281   0.00568455   0.025
0.616868   0.00568455   0.025
0.642094   0.00568455   0.025
0.666887   0.00568455   0.025
0.691182   0.00568455   0.025
0.714918   0.00568455   0.025
0.738041   0.00568455   0.025
0.760504   0.00568455   0.025
0.782266   0.00568455   0.025
0.803293   0.00568455   0.025
0.823557   0.00568455   0.025
0.843039   0.00568455   0.025
0.861725   0.00568455   0.025
0.879605   0.00568455   0.025
0.896677   0.00568455   0.025
0.912945   0.00568455   0.025
0.928415   0.00568455   0.025
0.943099   0.00568455   0.025
0.957011   0.00568455   0.025
0.970171   0.00568455   0.025
0.982598   0.00568455   0.025
0.994315   0.00568455   0.025
0.00568455   0.0174023   0.025
0.0174023   0.0174023   0.025
0.0298294   0.0174023   0.025
0.0429888   0.0174023   0.025
0.0569012   0.0174023   0.025
0.0715849   0.0174023   0.025
0.0870549   0.0174023   0.025
0.103323   0.0174023   0.025
0.120395   0.0174023   0.025
0.138275   0.0174023   0.025
0.156961   0.0174023   0.025
0.176443   0.0174023   0.025
0.196707   0.0174023   0.025
0.217734   0.0174023   0.025
0.239496   0.0174023   0.025
0.261959   0.0174023   0.025
0.285082   0.0174023   0.025
0.308818   0.0174023   0.025
0.333113   0.0174023   0.025
0.357906   0.0174023   0.025
0.383132   0.0174023   0.025
0.408719   0.0174023   0.025
0.434592   0.0174023   0.025
0.460672   0.0174023   0.025
0.486877   0.0174023   0.025
0.513123   0.0174023   0.025
0.539328   0.0174023   0.025
0.565408   0.0174023   0.025
0.591281   0.0174023   0.025
0.616868   0.0174023   0.025
0.642094   0.0174023   0.025
0.666887   0.0174023   0.025
0.691182   0.0174023   0.025
0.714918   0.0174023   0.025
0.738041   0.0174023   0.025
0.760504   0.0174023   0.025
0.782266   0.0174023   0.025
0.803293   0.0174023   0.025
0.823557   0.0174023   0.025
0.843039   0.0174023   0.025
0.861725   0.0174023   0.025
0.879605   0.0174023   0.025
0.896677   0.0174023   0.025
0.912945   0.0174023   0.025
0.928415   0.0174023   0.025
0.943099   0.0174023   0.025
0.957011   0.0174023   0.025
0.970171   0.0174023   0.025
0.982598   0.0174023   0.025
0.994315   0.0174023   0.025
0.00568455   0.0298294   0.025
0.0174023   0.0298294   0.025
0.0298294   0.0298294   0.025
0.0429888   0.0298294   0.025
0.0569012   0.0298294   0.025
0.0715849   0.0298294   0.025
0.0870549   0.0298294   0.025
0.103323   0.0298294   0.025
0.120395   0.0298294   0.025
0.138275   0.0298294   0.025
0.156961   0.0298294   0.025
0.176443   0.0298294   0.025
0.196707   0.0298294   0.025
0.217734   0.0298294   0.025
0.239496   0.0298294   0.025
0.261959   0.0298294   0.025
0.285082   0.0298294   0.025
0.308818   0.0298294   0.025
0.333113   0.0298294   0.025
0.357906   0.0298294   0.025
0.383132   0.0298294   0.025
0.408719   0.0298294   0.025
0.434592   0.0298294   0.025
0.460672   0.0298294   0.025
0.486877   0.0298294   0.025
0.513123   0.0298294   0.025
0.539328   0.0298294   0.025
0.565408   0.0298294   0.025
0.591281   0.0298294   0.025
0.616868   0.0298294   0.025
0.642094   0.0298294   0.025
0.666887   0.0298294   0.025
0.691182   0.0298294   0.025
0.714918   0.0298294   0.025
0.738041   0.0298294   0.025
0.760504   0.0298294   0.025
0.782266   0.0298294   0.025
0.803293   0.0298294   0.025
0.823557   0.0298294   0.025
0.843039   0.0298294   0.025
0.861725   0.0298294   0.025
0.879605   0.0298294   0.025
0.896677   0.0298294   0.025
0.912945   0.0298294   0.025
0.928415   0.0298294   0.025
0.943099   0.0298294   0.025
0.957011   0.0298294   0.025
0.970171   0.0298294   0.025
0.982598   0.0298294   0.025
0.994315   0.0298294   0.025
0.00568455   0.0429888   0.025
0.0174023   0.0429888   0.025
0.0298294   0.0429888   0.025
0.0429888   0.0429888   0.025
0.0569012   0.0429888   0.025
0.0715849   0.0429888   0.025
0.0870549   0.0429888   0.025
0.103323   0.0429888   0.025
0.120395   0.0429888   0.025
0.138275   0.0429888   0.025
0.156961   0.0429888   0.025
0.176443   0.0429888   0.025
0.196707   0.0429888   0.025
0.217734   0.0429888   0.025
0.239496   0.0429888   0.025
0.261959   0.0429888   0.025
0.285082   0.0429888   0.025
0.308818   0.0429888   0.025
0.333113   0.0429888   0.025
0.357906   0.0429888   0.025
0.383132   0.0429888   0.025
0.408719   0.0429888   0.025
0.434592   0.0429888   0.025
0.460672   0.0429888   0.025
0.486877   0.0429888   0.025
0.513123   0.0429888   0.025
0.539328   0.0429888   0.025
0.565408   0.0429888   0.025
0.591281   0.0429888   0.025
0.616868   0.0429888   0.025
0.642094   0.0429888   0.025
0.666887   0.0429888   0.025
0.691182   0.0429888   0.025
0.714918   0.0429888   0.025
0.738041   0.0429888   0.025
0.760504   0.0429888   0.025
0.782266   0.0429888   0.025
0.803293   0.0429888   0.025
0.823557   0.0429888   0.025
0.843039   0.0429888   0.025
0.861725   0.0429888   0.025
0.879605   0.0429888   0.025
0.896677   0.0429888   0.025
0.912945   0.0429888   0.025
0.928415   0.0429888   0.025
0.943099   0.0429888   0.025
0.957011   0.0429888   0.025
0.970171   0.0429888   0.025
0.982598   0.0429888   0.025
0.994315   0.0429888   0.025
0.00568455   0.0569012   0.025
0.0174023   0.0569012   0.025
0.0298294   0.0569012   0.025
0.0429888   0.0569012   0.025
0.0569012   0.0569012   0.025
0.0715849   0.0569012   0.025
0.0870549   0.0569012   0.025
0.103323   0.0569012   0.025
0.120395   0.0569012   0.025
0.138275   0.0569012   0.025
0.156961   0.0569012   0.025
0.176443   0.0569012   0.025
0.196707   0.0569012   0.025
0.217734   0.0569012   0.025
0.239496   0.0569012   0.025
0.261959   0.0569012   0.025
0.285082   0.0569012   0.025
0.308818   0.0569012   0.025
0.333113   0.0569012   0.025
0.357906   0.0569012   0.025
0.383132   0.0569012   0.025
0.408719   0.0569012   0.025
0.434592   0.0569012   0.025
0.460672   0.0569012   0.025
0.486877   0.0569012   0.025
0.513123   0.0569012   0.025
0.539328   0.0569012   0.025
0.565408   0.0569012   0.025
0.591281   0.0569012   0.025
0.616868   0.0569012   0.025
0.642094   0.0569012   0.025
0.666887   0.0569012   0.025
0.691182   0.0569012   0.025
0.714918   0.0569012   0.025
0.738041   0.0569012   0.025
0.760504   0.0569012   0.025
0.782266   0.0569012   0.025
0.803293   0.0569012   0.025
0.823557   0.0569012   0.025
0.843039   0.0569012   0.025
0.861725   0.0569012   0.025
0.879605   0.0569012   0.025
0.896677   0.0569012   0.025
0.912945   0.0569012   0.025
0.928415   0.0569012   0.025
0.943099   0.0569012   0.025
0.957011   0.0569012   0.025
0.970171   0.0569012   0.025
0.982598   0.0569012   0.025
0.994315   0.0569012   0.025
0.00568455   0.0715849   0.025
0.0174023   0.0715849   0.025
0.0298294   0.0715849   0.025
0.0429888   0.0715849   0.025
0.0569012   0.0715849   0.025
0.0715849   0.0715849   0.025
0.0870549   0.0715849   0.025
0.103323   0.0715849   0.025
0.120395   0.0715849   0.025
0.138275   0.0715849   0.025
0.156961   0.0715849   0.025
0.176443   0.0715849   0.025
0.196707   0.0715849   0.025
0.217734   0.0715849   0.025
0.239496   0.0715849   0.025
0.261959   0.0715849   0.025
0.285082   0.0715849   0.025
0.308818   0.0715849   0.025
0.333113   0.0715849   0.025
0.357906   0.0715849   0.025
0.383132   0.0715849   0.025
0.408719   0.0715849   0.025
0.434592   0.0715849   0.025
0.460672   0.0715849   0.025
0.486877   0.0715849   0.025
0.513123   0.0715849   0.025
0.539328   0.0715849   0.025
0.565408   0.0715849   0.025
0.591281   0.0715849   0.025
0.616868   0.0715849   0.025
0.642094   0.0715849   0.025
0.666887   0.0715849   0.025
0.691182   0.0715849   0.025
0.714918   0.0715849   0.025
0.738041   0.0715849   0.025
0.760504   0.0715849   0.025
0.782266   0.0715849   0.025
0.803293   0.0715849   0.025
0.823557   0.0715849   0.025
0.843039   0.0715849   0.025
0.861725   0.0715849   0.025
0.879605   0.0715849   0.025
0.896677   0.0715849   0.025
0.912945   0.0715849   0.025
0.928415   0.0715849   0.025
0.943099   0.0715849   0.025
0.957011   0.0715849   0.025
0.970171   0.0715849   0.025
0.982598   0.0715849   0.025
0.994315   0.0715849   0.025
0.00568455   0.0870549   0.025
0.0174023   0.0870549   0.025
0.0298294   0.0870549   0.025
0.0429888   0.0870549   0.025
0.0569012   0.0870549   0.025
0.0715849   0.0870549   0.025
0.0870549   0.0870549   0.025
0.103323   0.0870549   0.025
0.120395   0.0870549   0.025
0.138275   0.0870549   0.025
0.156961   0.0870549   0.025
0.176443   0.0870549   0.025
0.196707   0.0870549   0.025
0.217734   0.0870549   0.025
0.239496   0.0870549   0.025
0.261959   0.0870549   0.025
0.285082   0.0870549   0.025
0.308818   0.0870549   0.025
0.333113   0.0870549   0.025
0.357906   0.0870549   0.025
0.383132   0.0870549   0.025
0.408719   0.0870549   0.025
0.434592   0.0870549   0.025
0.460672   0.0870549   0.025
0.486877   0.0870549   0.025
0.513123   0.0870549   0.025
0.539328   0.0870549   0.025
0.565408   0.0870549   0.025
0.591281   0.0870549   0.025
0.616868   0.0870549   0.025
0.642094   0.0870549   0.025
0.666887   0.0870549   0.025
0.691182   0.0870549   0.025
0.714918   0.0870549   0.025
0.738041   0.0870549   0.025
0.760504   0.0870549   0.025
0.782266   0.0870549   0.025
[...]
POINT_DATA   50000
VECTORS Velocidades double

-7.68496e-05 -0.00168898 0
-0.000207924 -0.00331744 0
-0.000285501 -0.00423437 0
-0.000313938 -0.00474961 0
-0.000321006 -0.00498869 0
-0.000333955 -0.00501505 0
-0.00037353 -0.00486766 0
-0.000454314 -0.00457422 0
-0.000586141 -0.00415584 0
-0.000775626 -0.00362783 0
-0.00102821 -0.00299663 0
-0.00115401 -0.00224619 0
-0.00133387 -0.00127791 0
-0.0017761 -0.000549484 0
-0.00229367 5.80355e-05 0
-0.0028591 0.00057143 0
-0.00346301 0.000987578 0
-0.00409634 0.00128953 0
-0.00474594 0.00145478 0
-0.00539286 0.00146189 0
-0.00601173 0.00129629 0
-0.00657126 0.000955328 0
-0.00703706 0.000451771 0
-0.00736326 -0.000183755 0
-0.00750805 -0.000890892 0
-0.00744338 -0.00160258 0
-0.00715174 -0.00223937 0
-0.00663687 -0.00272679 0
-0.00592273 -0.00300099 0
-0.00505407 -0.00301746 0
-0.00409229 -0.00275829 0
-0.00310732 -0.00223573 0
-0.00216752 -0.00149136 0
-0.00132968 -0.000591813 0
-0.000630525 0.000376232 0
-0.000238668 0.0013042 0
2.08632e-06 0.00203258 0
0.000272535 0.00287549 0
0.000437767 0.00367518 0
0.000503976 0.0043727 0
0.000490935 0.00494222 0
0.000418454 0.00537188 0
0.000304778 0.00565561 0
0.00016708 0.00578865 0
2.25209e-05 0.00576424 0
-0.000110301 0.00556972 0
-0.000209559 0.00517953 0
-0.000249252 0.00453919 0
-0.000204938 0.00352205 0
-7.95889e-05 0.00179159 0
-0.000257118 -0.00310507 0
-0.000677326 -0.00647179 0
-0.000894592 -0.00841762 0
-0.000950678 -0.00949752 0
-0.000950636 -0.00997903 0
-0.000977565 -0.010007 0
-0.00109058 -0.00967133 0
-0.00133115 -0.0090352 0
-0.001728 -0.00814569 0
-0.00230144 -0.00703589 0
-0.0030694 -0.00571827 0
-0.00340563 -0.00415621 0
-0.0039693 -0.00216879 0
-0.00539772 -0.000667085 0
-0.00700996 0.000577648 0
-0.00876972 0.00162625 0
-0.0106518 0.0024737 0
-0.0126258 0.00308389 0
-0.0146459 0.00340815 0
-0.0166473 0.00339942 0
-0.0185444 0.00302476 0
-0.0202353 0.00227626 0
-0.0216091 0.0011791 0
-0.0225366 -0.000203117 0
-0.0228988 -0.00176875 0
-0.0226168 -0.00334784 0
-0.0216575 -0.00477803 0
-0.0200462 -0.00590029 0
-0.0178615 -0.00657473 0
-0.0152366 -0.00670063 0
-0.0123472 -0.00623337 0
-0.0093913 -0.00519327 0
-0.0065635 -0.00366494 0
-0.00402912 -0.00178883 0
-0.00190092 0.000248495 0
-0.000743619 0.00220954 0
-2.23237e-06 0.00376266 0
0.000881212 0.00554828 0
0.00140369 0.00724379 0
0.00161397 0.00872346 0
0.00157385 0.00993382 0
0.00134379 0.0108509 0
0.000980273 0.011462 0
0.000537161 0.0117559 0
6.84434e-05 0.0117157 0
-0.000367878 0.0113103 0
-0.000704033 0.0104783 0
-0.000854922 0.00909456 0
-0.000720657 0.00689268 0
-0.000284619 0.00328111 0
-0.000185429 -0.00262362 0
-0.000589062 -0.00607746 0
-0.000961358 -0.00821241 0
-0.00122061 -0.00939644 0
-0.00142812 -0.00988911 0
-0.00167601 -0.00986038 0
-0.00204805 -0.0094248 0
-0.00261089 -0.00866393 0
-0.00341504 -0.00763738 0
-0.00449896 -0.00638522 0
-0.00589493 -0.0049208 0
-0.00652722 -0.00320351 0
-0.00749995 -0.00108806 0
-0.00990083 0.000529951 0
-0.0125992 0.0018588 0
-0.0155503 0.00296948 0
-0.0187076 0.00385806 0
-0.0220106 0.00448231 0
-0.0253742 0.00478379 0
-0.0286822 0.00470465 0
-0.0317876 0.00420225 0
-0.0345185 0.00326217 0
-0.0366907 0.00190876 0
-0.0381336 0.000210052 0
-0.0386505 -0.00175708 0
-0.0381051 -0.00375488 0
-0.0364847 -0.00560415 0
-0.0338366 -0.0071194 0
-0.0302884 -0.0081298 0
-0.0260461 -0.0085052 0
-0.0213775 -0.00817865 0
-0.0165831 -0.00715957 0
-0.0119599 -0.00553551 0
-0.00776447 -0.00346451 0
-0.00417912 -0.00116556 0
-0.00220644 0.00107747 0
-0.000921782 0.00290156 0
0.000637403 0.00495902 0
0.00161227 0.00691168 0
0.00208673 0.00861851 0
0.00215628 0.0100212 0
0.00191669 0.0110937 0
0.00146124 0.0118201 0
0.000881892 0.0121836 0
0.000271781 0.0121583 0
-0.00027202 0.0116985 0
-0.000648066 0.0107234 0
-0.000760758 0.00909025 0
-0.000565332 0.00655587 0
-0.000195198 0.00275948 0
-0.00011711 -0.00227567 0
-0.000450279 -0.00560393 0
-0.000900717 -0.00781031 0
-0.00137299 -0.00905915 0
-0.00187736 -0.0095453 0
-0.00247861 -0.00943639 0
-0.00325686 -0.00886406 0
-0.00428788 -0.00792896 0
-0.00563618 -0.00670608 0
-0.00735435 -0.00524578 0
-0.00948451 -0.00356692 0
-0.0104781 -0.00163611 0
-0.0118944 0.000650962 0
-0.0152937 0.00243553 0
-0.0190914 0.00389798 0
-0.0232404 0.00510809 0
-0.0276725 0.00605814 0
-0.0322932 0.00669559 0
-0.0369725 0.00694764 0
-0.0415402 0.00674106 0
-0.0457874 0.00601992 0
-0.0494754 0.00476161 0
-0.0523532 0.00298998 0
-0.0542456 0.000779794 0
-0.0548765 -0.00178761 0
-0.054048 -0.0044172 0
-0.0517975 -0.00689566 0
-0.0481909 -0.00899942 0
-0.0433939 -0.0105146 0
-0.0376692 -0.0112704 0
-0.0313552 -0.0111687 0
-0.024833 -0.0102024 0
-0.0184835 -0.0084612 0
-0.0126432 -0.00612517 0
-0.00756443 -0.0034545 0
-0.00474434 -0.000787335 0
-0.00287127 0.00147249 0
-0.000540087 0.00394715 0
0.00100311 0.00628533 0
0.00187627 0.00833393 0
0.00220307 0.0100278 0
0.00210883 0.0113351 0
0.00171901 0.0122328 0
0.00115879 0.0126947 0
0.000552257 0.0126824 0
1.92569e-05 0.0121368 0
-0.000334296 0.0109693 0
-0.000439841 0.00905448 0
-0.000310715 0.00624188 0
-9.80187e-05 0.00242327 0
-8.39396e-05 -0.00203076 0
-0.000381451 -0.00510865 0
-0.00089897 -0.00722256 0
-0.00158076 -0.00842211 0
-0.00242044 -0.00883121 0
-0.00345559 -0.00859222 0
-0.00474835 -0.00783772 0
-0.00636839 -0.00667974 0
-0.00838239 -0.00520642 0
-0.0108486 -0.00347966 0
-0.0138123 -0.00152909 0
-0.0152214 0.000660869 0
-0.0171179 0.0031486 0
-0.0215621 0.00514279 0
-0.0264896 0.00678558 0
-0.0318533 0.00813085 0
-0.0375646 0.00915833 0
-0.0434931 0.00979956 0
-0.0494623 0.0099628 0
-0.0552473 0.00955584 0
-0.0605796 0.00850733 0
-0.0651603 0.00678636 0
-0.0686816 0.00441849 0
-0.0709816 0.00149231 0
-0.0717115 -0.00187813 0
-0.0706197 -0.00534837 0
-0.0678054 -0.00866304 0
-0.0633442 -0.0115509 0
-0.0574262 -0.0137445 0
-0.0503521 -0.015023 0
-0.0425118 -0.0152481 0
-0.0343486 -0.0143897 0
-0.0263143 -0.0125359 0
-0.01882 -0.00988894 0
-0.0121925 -0.00675312 0
-0.00849286 -0.00352342 0
-0.00597958 -0.000651165 0
-0.00275254 0.00238699 0
-0.000501011 0.00523671 0
0.000923512 0.00774017 0
0.00166674 0.00982472 0
0.00187659 0.0114488 0
0.00170346 0.0125784 0
0.0012971 0.0131755 0
0.000800901 0.0131913 0
0.000342675 0.0125629 0
1.99304e-05 0.0112137 0
-0.000120885 0.00906495 0
-0.000105447 0.00606769 0
-3.34802e-05 0.00226452 0
-7.80847e-05 -0.0018217 0
-0.000391684 -0.00456145 0
-0.00101296 -0.0064281 0
-0.00192889 -0.00743236 0
-0.00313912 -0.00765222 0
-0.00466678 -0.00720097 0
-0.00655555 -0.00620043 0
-0.00886131 -0.00476393 0
-0.0116434 -0.00298688 0
-0.014957 -0.000941405 0
-0.018844 0.00132867 0
-0.0207145 0.00381378 0
-0.0231264 0.0065222 0
-0.0286714 0.00876105 0
-0.0347694 0.010624 0
-0.0413726 0.012134 0
-0.048372 0.0132473 0
-0.055602 0.0138724 0
-0.06284 0.0138943 0
-0.0698093 0.0131993 0
-0.0761878 0.0117003 0
-0.0816257 0.00935973 0
-0.0857708 0.00620916 0
-0.088464 0.00235983 0
-0.0893066 -0.00202247 0
-0.0880229 -0.00653583 0
-0.0847557 -0.0108917 0
-0.0795772 -0.0147635 0
-0.0726839 -0.0178215 0
-0.0643961 -0.0197847 0
-0.0551366 -0.0204656 0
-0.0453965 -0.0198019 0
-0.03569 -0.0178723 0
-0.0265024 -0.0148962 0
-0.0182423 -0.0112199 0
-0.0136189 -0.00729527 0
-0.0104009 -0.00362843 0
-0.0061248 0.000117775 0
-0.00299683 0.00360325 0
-0.000846018 0.00667592 0
0.000486635 0.00925599 0
0.00116343 0.0112885 0
0.00135168 0.0127248 0
0.0012175 0.0135153 0
0.000915537 0.0136061 0
0.000576624 0.0129411 0
0.000294334 0.0114696 0
0.000113823 0.00916435 0
2.9981e-05 0.0060488 0
4.30347e-06 0.00222814 0
-9.04262e-05 -0.00159197 0
-0.000467036 -0.00389093 0
-0.00124631 -0.00536159 0
-0.0024442 -0.00601528 0
-0.00407168 -0.00591089 0
-0.00614654 -0.00514057 0
-0.0086984 -0.00381162 0
-0.0117678 -0.00203103 0
-0.0154016 0.000105089 0
-0.0196453 0.00251761 0
-0.0245325 0.00514751 0
-0.0269023 0.00795616 0
-0.0298617 0.0108997 0
-0.0365641 0.0134113 0
-0.0438773 0.0155256 0
-0.0517487 0.0172205 0
-0.0600487 0.0184176 0
-0.0685778 0.0189953 0
-0.0770712 0.0188112 0
-0.0852064 0.0177293 0
-0.0926172 0.0156477 0
-0.0989145 0.0125258 0
-0.103715 0.00840639 0
-0.106815 0.00343029 0
-0.107815 -0.00217834 0
-0.106471 -0.00792981 0
-0.102914 -0.013533 0
-0.0971933 -0.0185993 0
-0.0894948 -0.0227278 0
-0.0801381 -0.0255683 0
-0.0695619 -0.0268721 0
-0.0582928 -0.0265318 0
-0.0469015 -0.0246042 0
-0.0359502 -0.0213154 0
-0.025939 -0.0170465 0
-0.0203291 -0.0123038 0
-0.0163238 -0.00765733 0
-0.0108096 -0.00306456 0
-0.00660246 0.00117937 0
-0.00352253 0.00494133 0
-0.00140928 0.00813421 0
-9.47792e-05 0.0106849 0
0.000598678 0.0125272 0
0.00084877 0.0136002 0
0.000819634 0.0138494 0
0.000648794 0.0132316 0
0.000437383 0.0117251 0
0.000246825 0.00934326 0
0.000105212 0.00615015 0
2.42221e-05 0.00226765 0
-0.000115232 -0.00129683 0
-0.000593271 -0.00301343 0
-0.00158582 -0.0039289 0
-0.00312322 -0.00407069 0
-0.00522351 -0.0034959 0
-0.0079015 -0.00228521 0
-0.0111759 -0.000532419 0
-0.0150727 0.00166613 0
-0.0196245 0.00421924 0
-0.0248642 0.00704468 0
-0.0308135 0.0100692 0
-0.0337116 0.0132242 0
-0.0372451 0.0164141 0
-0.0451565 0.0192208 0
-0.0537272 0.0216084 0
-0.062895 0.0234977 0
-0.0725091 0.0247653 0
-0.0823391 0.0252532 0
-0.092084 0.0247893 0
-0.101385 0.0232153 0
-0.109844 0.0204179 0
-0.117045 0.0163576 0
-0.122584 0.0110925 0
-0.12613 0.00479536 0
-0.127363 -0.00225606 0
-0.126152 -0.00943365 0
-0.12252 -0.0164959 0
-0.116476 -0.0229845 0
-0.108173 -0.0284193 0
-0.0979118 -0.0323703 0
-0.0861304 -0.0345139 0
-0.0733777 -0.0346803 0
-0.0602757 -0.032886 0
-0.0474662 -0.0293466 0
-0.0355516 -0.0244651 0
-0.0288735 -0.0187972 0
-0.0239764 -0.0129854 0
-0.0169896 -0.00741887 0
-0.0114573 -0.00229417 0
-0.00721026 0.00228941 0
-0.00410089 0.00623397 0
-0.00196366 0.00944109 0
-0.000614165 0.0118218 0
0.000136641 0.0133025 0
0.000465905 0.0138293 0
0.000525706 0.0133727 0
0.00043588 0.0119346 0
0.000284117 0.0095558 0
0.000133112 0.00631972 0
3.21989e-05 0.00234866 0
-0.000149127 -0.000898644 0
-0.000759357 -0.0018444 0
-0.00201468 -0.00202259 0
-0.00394835 -0.00148087 0
-0.00657834 -0.000282669 0
-0.00991402 0.00149661 0
-0.0139636 0.00377517 0
-0.0187393 0.0064699 0
-0.0242594 0.00949897 0
-0.030543 0.012781 0
-0.0375994 0.0162309 0
-0.0410453 0.0197512 0
-0.0451724 0.0231979 0
-0.054334 0.0263178 0
-0.0641962 0.0289917 0
-0.0746829 0.0310734 0
-0.0856222 0.0323874 0
-0.0967571 0.0327346 0
-0.107759 0.0319122 0
-0.118244 0.0297421 0
-0.127794 0.0261032 0
-0.13598 0.020961 0
-0.142385 0.0143908 0
-0.146434 0.00659393 0
-0.148 -0.00211129 0
-0.147173 -0.0108983 0
-0.143729 -0.0196415 0
-0.137618 -0.0278022 0
-0.128949 -0.0348145 0
-0.117983 -0.0401583 0
-0.105138 -0.0434191 0
-0.090969 -0.0443434 0
-0.0761406 -0.0428826 0
-0.0613729 -0.0392171 0
-0.0473796 -0.0337515 0
-0.0395399 -0.0270796 0
-0.0336242 -0.019922 0
-0.0248755 -0.0132731 0
-0.0177192 -0.00714299 0
-0.0120243 -0.00158438 0
-0.00767234 0.00328328 0
-0.00450628 0.00732359 0
-0.00233522 0.0104161 0
-0.000955044 0.0124702 0
-0.000168843 0.0134297 0
0.000198779 0.0132749 0
0.000294887 0.0120245 0
0.000238274 0.00973592 0
0.000124356 0.00650243 0
3.18719e-05 0.00244486 0
-0.000189893 -0.00036402 0
-0.000956521 -0.000302648 0
-0.00251559 0.000467391 0
-0.00489493 0.00187854 0
-0.00810526 0.00385926 0
-0.0121462 0.00633791 0
-0.0170136 0.00924527 0
-0.0227061 0.0125144 0
-0.0292278 0.0160769 0
-0.0365846 0.0198565 0
-0.0447741 0.0237593 0
-0.0487771 0.0276618 0
-0.0535083 0.0313768 0
-0.0639457 0.0348238 0
-0.0751189 0.0377886 0
-0.0869354 0.0400508 0
-0.099203 0.0413779 0
-0.111644 0.0415286 0
-0.123913 0.0402703 0
-0.135611 0.0374082 0
-0.146313 0.0328175 0
-0.155586 0.0264712 0
-0.163009 0.0184605 0
-0.167621 0.00900698 0
-0.169632 -0.00154566 0
-0.169475 -0.0121241 0
-0.166514 -0.0227816 0
-0.160633 -0.0328856 0
-0.15188 -0.0417818 0
-0.140461 -0.0488517 0
-0.12675 -0.053574 0
-0.11129 -0.0555874 0
-0.0947666 -0.0547474 0
-0.0779694 -0.0511655 0
-0.0617252 -0.0452172 0
-0.0526369 -0.0375136 0
-0.045558 -0.0288513 0
-0.0346966 -0.0210391 0
-0.0255586 -0.0137716 0
-0.0180877 -0.00705235 0
-0.0122107 -0.00104551 0
-0.00778305 0.00405408 0
-0.00460435 0.0080811 0
-0.00244912 0.0109195 0
-0.00109255 0.012505 0
-0.000327658 0.0128222 0
2.63476e-05 0.0119002 0
0.000122284 0.00980758 0
8.71562e-05 0.00664471 0
2.55975e-05 0.00253502 0
-0.000235734 0.000337117 0
-0.00117675 0.00168687 0
-0.00307039 0.00364563 0
-0.00593294 0.00612783 0
-0.00976186 0.00905594 0
-0.0145424 0.0123648 0
-0.0202556 0.0160013 0
-0.0268856 0.0199192 0
-0.0344228 0.0240688 0
-0.0428612 0.0283831 0
-0.0521881 0.0327632 0
-0.0567464 0.0370639 0
-0.0620816 0.0410609 0
-0.0737987 0.0448453 0
-0.0862815 0.048098 0
-0.0994193 0.0505201 0
-0.113003 0.0518214 0
-0.126741 0.0517188 0
-0.140278 0.0499533 0
-0.153213 0.0463171 0
-0.165122 0.0406846 0
-0.175577 0.0330369 0
-0.184158 0.023478 0
-0.189377 0.0122405 0
-0.191939 -0.000319828 0
-0.192745 -0.0128735 0
-0.190572 -0.0256841 0
-0.185242 -0.038014 0
-0.176734 -0.0491254 0
-0.165184 -0.0582976 0
-0.150897 -0.06489 0
-0.13437 -0.0684098 0
-0.116281 -0.0685819 0
-0.097464 -0.0654062 0
-0.0788456 -0.0591854 0
-0.068459 -0.0505112 0
-0.0600667 -0.0402395 0
-0.0466833 -0.0312225 0
-0.0351503 -0.022671 0
-0.0255298 -0.0145614 0
-0.0178092 -0.00714319 0
-0.0118575 -0.000698797 0
-0.00746051 0.00454288 0
-0.00436436 0.00842857 0
-0.0023083 0.010878 0
-0.00104616 0.0118741 0
-0.00035774 0.0114523 0
-5.304e-05 0.00968963 0
2.75702e-05 0.00669544 0
1.49735e-05 0.00260133 0
-0.000284847 0.00123089 0
-0.00141162 0.00418942 0
-0.00365878 0.00760365 0
-0.00702667 0.0113726 0
-0.0114949 0.0154175 0
-0.0170305 0.0196854 0
-0.0235974 0.0241462 0
-0.0311641 0.0287812 0
-0.0397079 0.0335655 0
-0.0492118 0.0384468 0
-0.0596552 0.0433258 0
-0.0647552 0.0480399 0
-0.0706809 0.0523356 0
-0.0836531 0.0564636 0
-0.0974148 0.0599935 0
-0.111837 0.0625481 0
-0.126697 0.0637808 0
-0.141695 0.0633704 0
-0.156475 0.061035 0
-0.17064 0.0565574 0
-0.183774 0.0498136 0
-0.195459 0.0407924 0
-0.205281 0.029607 0
-0.211115 0.0164947 0
-0.214307 0.00181777 0
-0.216327 -0.012895 0
-0.215224 -0.0280862 0
-0.210771 -0.0429148 0
-0.202883 -0.056573 0
-0.191604 -0.0682438 0
-0.177148 -0.0771629 0
-0.159924 -0.0826876 0
-0.140557 -0.0843775 0
-0.119876 -0.0820714 0
-0.0988768 -0.0759412 0
-0.087226 -0.0665027 0
-0.0773893 -0.0546296 0
-0.0610388 -0.0444162 0
-0.0466634 -0.0344126 0
-0.0344896 -0.0246321 0
-0.0245764 -0.0154672 0
-0.0168081 -0.00732583 0
-0.0109546 -0.00052401 0
-0.00672826 0.00473248 0
-0.00382574 0.00833752 0
-0.00195495 0.0102663 0
-0.000850545 0.0105573 0
-0.000280982 0.00929652 0
-5.06064e-05 0.00660504 0
9.9583e-07 0.00262821 0
-0.000335181 0.00233776 0
-0.00165146 0.00725552 0
-0.00425717 0.0124117 0
-0.00813379 0.017693 0
-0.0132401 0.0230257 0
-0.0195225 0.0283778 0
-0.0269257 0.0337512 0
-0.0354023 0.0391638 0
-0.0449165 0.0446232 0
-0.055442 0.0500982 0
-0.0669516 0.0554941 0
-0.0725659 0.0606363 0
-0.0790529 0.0652491 0
-0.0932193 0.0697208 0
-0.10819 0.0735096 0
-0.12382 0.0761623 0
-0.139874 0.0772808 0
-0.156051 0.0765096 0
-0.171995 0.0735481 0
-0.187318 0.0681731 0
-0.201618 0.0602635 0
-0.214488 0.0498167 0
-0.225536 0.0369551 0
-0.231933 0.0219206 0
-0.235777 0.00508596 0
-0.239175 -0.0119591 0
-0.239359 -0.0297184 0
-0.236089 -0.0472746 0
-0.229216 -0.0637734 0
-0.218689 -0.07832 0
-0.204599 -0.0900353 0
-0.187224 -0.0981203 0
-0.167075 -0.101942 0
-0.144911 -0.101128 0
-0.121727 -0.0956512 0
-0.108988 -0.0858719 0
-0.0976364 -0.0726074 0
-0.0778966 -0.0612629 0
-0.0602492 -0.04962 0
-0.0451192 -0.0378437 0
-0.032648 -0.0265392 0
-0.0227436 -0.0162818 0
-0.0151649 -0.00750396 0
-0.00959111 -0.000484192 0
-0.00567263 0.00463246 0
-0.00306613 0.00780602 0
-0.00145517 0.00907513 0
-0.000560958 0.00853534 0
-0.000146355 0.00632262 0
-1.59832e-05 0.00260092 0
-0.000384319 0.00367007 0
-0.00188497 0.0109147 0
-0.00483803 0.0181093 0
-0.00920497 0.0251322 0
-0.0149225 0.0319219 0
-0.0219152 0.0384773 0
-0.0301082 0.0448436 0
-0.0394375 0.0510856 0
-0.049855 0.0572526 0
-0.0613255 0.0633415 0
-0.0738169 0.0692679 0
-0.0799035 0.0748507 0
-0.0869037 0.0797984 0
-0.102158 0.0846055 0
-0.11822 0.0886245 0
-0.134925 0.0913326 0
-0.152033 0.0922848 0
-0.169236 0.0910967 0
-0.186185 0.0874524 0
-0.202501 0.0811256 0
-0.217793 0.0720014 0
-0.231678 0.0600897 0
-0.243791 0.0455278 0
-0.250632 0.0285711 0
-0.255077 0.00961418 0
-0.259874 -0.00990241 0
-0.261458 -0.0303406 0
-0.259611 -0.0507668 0
-0.254134 -0.0703123 0
-0.244881 -0.0880377 0
-0.2318 -0.102976 0
-0.214999 -0.114184 0
-0.194804 -0.120827 0
-0.171818 -0.122281 0
-0.146943 -0.118248 0
-0.133492 -0.108844 0
-0.120676 -0.0947119 0
-0.0972581 -0.0823634 0
-0.0760138 -0.0689058 0
-0.0575777 -0.0548019 0
-0.0421914 -0.040933 0
-0.0298124 -0.0280862 0
-0.0202088 -0.0168476 0
-0.013037 -0.00759676 0
-0.00790398 -0.00053747 0
-0.00441215 0.00426386 0
-0.00218851 0.00684116 0
-0.000900323 0.0072991 0
-0.000262034 0.00579105 0
-3.63582e-05 0.00250344 0
-0.000429462 0.00522917 0
-0.0020992 0.0151685 0
-0.00537012 0.0246961 0
-0.0101845 0.0336853 0
-0.0164577 0.0420948 0
-0.0240932 0.0499648 0
-0.0329967 0.0573952 0
-0.0430883 0.0645094 0
-0.0543075 0.0714079 0
-0.0666106 0.0781234 0
-0.079961 0.0845878 0
-0.0864613 0.0906185 0
-0.0939047 0.0959142 0
-0.110087 0.101036 0
-0.127061 0.105242 0
-0.144646 0.107949 0
-0.162589 0.108671 0
-0.180582 0.106997 0
-0.198275 0.102602 0
-0.215298 0.0952584 0
-0.231277 0.0848653 0
-0.245856 0.0714539 0
-0.258719 0.055189 0
-0.265814 0.0363559 0
-0.270721 0.0153859 0
-0.276763 -0.00667115 0
-0.27972 -0.0297857 0
-0.279426 -0.0530954 0
-0.275655 -0.0757532 0
-0.268177 -0.0968233 0
-0.256796 -0.115297 0
-0.241416 -0.130123 0
-0.222126 -0.140281 0
-0.199283 -0.14488 0
-0.173575 -0.143301 0
-0.160017 -0.135319 0
-0.145982 -0.121264 0
-0.1189 -0.108124 0
-0.09396 -0.0927711 0
-0.0719931 -0.0760803 0
-0.0533835 -0.0592465 0
-0.0381924 -0.0433149 0
-0.0262395 -0.0290745 0
-0.017185 -0.0170495 0
-0.0106042 -0.00753337 0
-0.00604789 -0.000638455 0
-0.00308257 0.00365478 0
-0.00131504 0.00545706 0
-0.000403603 0.00494013 0
-6.13093e-05 0.00231571 0
-0.000467529 0.00700257 0
-0.00228 0.0199841 0
-0.00581951 0.0321225 0
-0.0110122 0.0432892 0
-0.0177552 0.0534699 0
-0.025933 0.0627555 0
-0.0354337 0.0713121 0
-0.0461619 0.0793321 0
-0.0580448 0.0869769 0
-0.0710299 0.0943227 0
-0.0850748 0.101324 0
-0.0919129 0.107801 0
-0.0997059 0.113446 0
-0.116597 0.118843 0
-0.13424 0.123175 0
-0.152433 0.125805 0
-0.170912 0.12621 0
-0.189362 0.12396 0
-0.207433 0.118721 0
-0.22476 0.110275 0
-0.240992 0.098545 0
-0.255812 0.0835975 0
-0.268966 0.0656438 0
-0.27607 0.0450181 0
-0.281222 0.0222009 0
-0.288174 -0.00235443 0
-0.292317 -0.0280048 0
-0.293556 -0.0540505 0
-0.291664 -0.0797035 0
-0.286357 -0.10409 0
-0.277308 -0.12622 0
-0.264219 -0.144999 0
-0.246907 -0.159264 0
-0.225413 -0.167886 0
-0.2001 -0.169903 0
-0.187235 -0.164689 0
-0.172487 -0.152109 0
-0.142253 -0.138553 0
-0.113877 -0.121466 0
-0.0883743 -0.102127 0
-0.0663478 -0.0820442 0
-0.0480494 -0.0625694 0
-0.033421 -0.0447626 0
-0.0221739 -0.0293569 0
-0.013879 -0.0167853 0
-0.00804597 -0.00723931 0
-0.00418194 -0.000732295 0
-0.00182835 0.00284434 0
-0.000580097 0.00367903 0
-9.26884e-05 0.00201051 0
-0.000495344 0.0089617 0
-0.00241285 0.0252888 0
-0.00615162 0.0402828 0
-0.0116272 0.0538148 0
-0.0187235 0.0659018 0
-0.0273103 0.0766927 0
-0.0372607 0.0864277 0
-0.0484649 0.0953779 0
-0.0608375 0.103774 0
-0.0743155 0.111743 0
-0.088849 0.119267 0
-0.0959314 0.126174 0
-0.103956 0.132154 0
-0.121278 0.137763 0
-0.13928 0.142134 0
-0.15774 0.144583 0
-0.176379 0.144558 0
-0.194871 0.14161 0
-0.212863 0.135405 0
-0.230003 0.125746 0
-0.245966 0.112594 0
-0.260487 0.0960712 0
-0.273383 0.0764553 0
-0.280226 0.0541462 0
-0.285351 0.0296783 0
-0.292742 0.00280909 0
-0.297739 -0.0250958 0
-0.300324 -0.0535603 0
-0.300302 -0.0818929 0
-0.297369 -0.109338 0
-0.291109 -0.134997 0
-0.281052 -0.157807 0
-0.266752 -0.176551 0
-0.247907 -0.189921 0
-0.224481 -0.196647 0