# vtk DataFile Version 2.0
Velocidades
ASCII

DATASET STRUCTURED_GRID
DIMENSIONS   50   50   20

POINTS   50000   double
0.00568455   0.00568455   0.025
0.0174023   0.00568455   0.025
0.0298294   0.00568455   0.025
0.0429888   0.00568455   0.025
0.0569012   0.00568455   0.025
0.0715849   0.00568455   0.025
0.0870549   0.00568455   0.025
0.103323   0.00568455   0.025
0.120395   0.00568455   0.025
0.138275   0.00568455   0.025
0.156961   0.00568455   0.025
0.176443   0.00568455   0.025
0.196707   0.00568455   0.025
0.217734   0.00568455   0.025
0.239496   0.00568455   0.025
0.261959   0.00568455   0.025
0.285082   0.00568455   0.025
0.308818   0.00568455   0.025
0.333113   0.00568455   0.025
0.357906   0.00568455   0.025
0.383132   0.00568455   0.025
0.408719   0.00568455   0.025
0.434592   0.00568455   0.025
0.460672   0.00568455   0.025
0.486877   0.00568455   0.025
0.513123   0.00568455   0.025
0.539328   0.00568455   0.025
0.565408   0.00568455   0.025
0.591281   0.00568455   0.025
0.616868   0.00568455   0.025
0.642094   0.00568455   0.025
0.666887   0.00568455   0.025
0.691182   0.00568455   0.025
0.714918   0.00568455   0.025
0.738041   0.00568455   0.025
0.760504   0.00568455   0.025
0.782266   0.00568455   0.025
0.803293   0.00568455   0.025
0.823557   0.00568455   0.025
0.843039   0.00568455   0.025
0.861725   0.00568455   0.025
0.879605   0.00568455   0.025
0.896677   0.00568455   0.025
0.912945   0.00568455   0.025
0.928415   0.00568455   0.025
0.943099   0.00568455   0.025
0.957011   0.00568455   0.025
0.970171   0.00568455   0.025
0.982598   0.00568455   0.025
0.994315   0.00568455   0.025
0.00568455   0.0174023   0.025
0.0174023   0.0174023   0.025
0.0298294   0.0174023   0.025
0.0429888   0.0174023   0.025
0.0569012   0.0174023   0.025
0.0715849   0.0174023   0.025
0.0870549   0.0174023   0.025
0.103323   0.0174023   0.025
0.120395   0.0174023   0.025
0.138275   0.0174023   0.025
0.156961   0.0174023   0.025
0.176443   0.0174023   0.025
0.196707   0.0174023   0.025
0.217734   0.0174023   0.025
0.239496   0.0174023   0.025
0.261959   0.0174023   0.025
0.285082   0.0174023   0.025
0.308818   0.0174023   0.025
0.333113   0.0174023   0.025
0.357906   0.0174023   0.025
0.383132   0.0174023   0.025
0.408719   0.0174023   0.025
0.434592   0.0174023   0.025
0.460672   0.0174023   0.025
0.486877   0.0174023   0.025
0.513123   0.0174023   0.025
0.539328   0.0174023   0.025
0.565408   0.0174023   0.025
0.591281   0.0174023   0.025
0.616868   0.0174023   0.025
0.642094   0.0174023   0.025
0.666887   0.0174023   0.025
0.691182   0.0174023   0.025
0.714918   0.0174023   0.025
0.738041   0.0174023   0.025
0.760504   0.0174023   0.025
0.782266   0.0174023   0.025
0.803293   0.0174023   0.025
0.823557   0.0174023   0.025
0.843039   0.0174023   0.025
0.861725   0.0174023   0.025
0.879605   0.0174023   0.025
0.896677   0.0174023   0.025
0.912945   0.0174023   0.025
0.928415   0.0174023   0.025
0.943099   0.0174023   0.025
0.957011   0.0174023   0.025
0.970171   0.0174023   0.025
0.982598   0.0174023   0.025
0.994315   0.0174023   0.025
0.00568455   0.0298294   0.025
0.0174023   0.0298294   0.025
0.0298294   0.0298294   0.025
0.0429888   0.0298294   0.025
0.0569012   0.0298294   0.025
0.0715849   0.0298294   0.025
0.0870549   0.0298294   0.025
0.103323   0.0298294   0.025
0.120395   0.0298294   0.025
0.138275   0.0298294   0.025
0.156961   0.0298294   0.025
0.176443   0.0298294   0.025
0.196707   0.0298294   0.025
0.217734   0.0298294   0.025
0.239496   0.0298294   0.025
0.261959   0.0298294   0.025
0.285082   0.0298294   0.025
0.308818   0.0298294   0.025
0.333113   0.0298294   0.025
0.357906   0.0298294   0.025
0.383132   0.0298294   0.025
0.408719   0.0298294   0.025
0.434592   0.0298294   0.025
0.460672   0.0298294   0.025
0.486877   0.0298294   0.025
0.513123   0.0298294   0.025
0.539328   0.0298294   0.025
0.565408   0.0298294   0.025
0.591281   0.0298294   0.025
0.616868   0.0298294   0.025
0.642094   0.0298294   0.025
0.666887   0.0298294   0.025
0.691182   0.0298294   0.025
0.714918   0.0298294   0.025
0.738041   0.0298294   0.025
0.760504   0.0298294   0.025
0.782266   0.0298294   0.025
0.803293   0.0298294   0.025
0.823557   0.0298294   0.025
0.843039   0.0298294   0.025
0.861725   0.0298294   0.025
0.879605   0.0298294   0.025
0.896677   0.0298294   0.025
0.912945   0.0298294   0.025
0.928415   0.0298294   0.025
0.943099   0.0298294   0.025
0.957011   0.0298294   0.025
0.970171   0.0298294   0.025
0.982598   0.0298294   0.025
0.994315   0.0298294   0.025
0.00568455   0.0429888   0.025
0.0174023   0.0429888   0.025
0.0298294   0.0429888   0.025
0.0429888   0.0429888   0.025
0.0569012   0.0429888   0.025
0.0715849   0.0429888   0.025
0.0870549   0.0429888   0.025
0.103323   0.0429888   0.025
0.120395   0.0429888   0.025
0.138275   0.0429888   0.025
0.156961   0.0429888   0.025
0.176443   0.0429888   0.025
0.196707   0.0429888   0.025
0.217734   0.0429888   0.025
0.239496   0.0429888   0.025
0.261959   0.0429888   0.025
0.285082   0.0429888   0.025
0.308818   0.0429888   0.025
0.333113   0.0429888   0.025
0.357906   0.0429888   0.025
0.383132   0.0429888   0.025
0.408719   0.0429888   0.025
0.434592   0.0429888   0.025
0.460672   0.0429888   0.025
0.486877   0.0429888   0.025
0.513123   0.0429888   0.025
0.539328   0.0429888   0.025
0.565408   0.0429888   0.025
0.591281   0.0429888   0.025
0.616868   0.0429888   0.025
0.642094   0.0429888   0.025
0.666887   0.0429888   0.025
0.691182   0.0429888   0.025
0.714918   0.0429888   0.025
0.738041   0.0429888   0.025
0.760504   0.0429888   0.025
0.782266   0.0429888   0.025
0.803293   0.0429888   0.025
0.823557   0.0429888   0.025
0.843039   0.0429888   0.025
0.861725   0.0429888   0.025
0.879605   0.0429888   0.025
0.896677   0.0429888   0.025
0.912945   0.0429888   0.025
0.928415   0.0429888   0.025
0.943099   0.0429888   0.025
0.957011   0.0429888   0.025
0.970171   0.0429888   0.025
0.982598   0.0429888   0.025
0.994315   0.0429888   0.025
0.00568455   0.0569012   0.025
0.0174023   0.0569012   0.025
0.0298294   0.0569012   0.025
0.0429888   0.0569012   0.025
0.0569012   0.0569012   0.025
0.0715849   0.0569012   0.025
0.0870549   0.0569012   0.025
0.103323   0.0569012   0.025
0.120395   0.0569012   0.025
0.138275   0.0569012   0.025
0.156961   0.0569012   0.025
0.176443   0.0569012   0.025
0.196707   0.0569012   0.025
0.217734   0.0569012   0.025
0.239496   0.0569012   0.025
0.261959   0.0569012   0.025
0.285082   0.0569012   0.025
0.308818   0.0569012   0.025
0.333113   0.0569012   0.025
0.357906   0.0569012   0.025
0.383132   0.0569012   0.025
0.408719   0.0569012   0.025
0.434592   0.0569012   0.025
0.460672   0.0569012   0.025
0.486877   0.0569012   0.025
0.513123   0.0569012   0.025
0.539328   0.0569012   0.025
0.565408   0.0569012   0.025
0.591281   0.0569012   0.025
0.616868   0.0569012   0.025
0.642094   0.0569012   0.025
0.666887   0.0569012   0.025
0.691182   0.0569012   0.025
0.714918   0.0569012   0.025
0.738041   0.0569012   0.025
0.760504   0.0569012   0.025
0.782266   0.0569012   0.025
0.803293   0.0569012   0.025
0.823557   0.0569012   0.025
0.843039   0.0569012   0.025
0.861725   0.0569012   0.025
0.879605   0.0569012   0.025
0.896677   0.0569012   0.025
0.912945   0.0569012   0.025
0.928415   0.0569012   0.025
0.943099   0.0569012   0.025
0.957011   0.0569012   0.025
0.970171   0.0569012   0.025
0.982598   0.0569012   0.025
0.994315   0.0569012   0.025
0.00568455   0.0715849   0.025
0.0174023   0.0715849   0.025
0.0298294   0.0715849   0.025
0.0429888   0.0715849   0.025
0.0569012   0.0715849   0.025
0.0715849   0.0715849   0.025
0.0870549   0.0715849   0.025
0.103323   0.0715849   0.025
0.120395   0.0715849   0.025
0.138275   0.0715849   0.025
0.156961   0.0715849   0.025
0.176443   0.0715849   0.025
0.196707   0.0715849   0.025
0.217734   0.0715849   0.025
0.239496   0.0715849   0.025
0.261959   0.0715849   0.025
0.285082   0.0715849   0.025
0.308818   0.0715849   0.025
0.333113   0.0715849   0.025
0.357906   0.0715849   0.025
0.383132   0.0715849   0.025
0.408719   0.0715849   0.025
0.434592   0.0715849   0.025
0.460672   0.0715849   0.025
0.486877   0.0715849   0.025
0.513123   0.0715849   0.025
0.539328   0.0715849   0.025
0.565408   0.0715849   0.025
0.591281   0.0715849   0.025
0.616868   0.0715849   0.025
0.642094   0.0715849   0.025
0.666887   0.0715849   0.025
0.691182   0.0715849   0.025
0.714918   0.0715849   0.025
0.738041   0.0715849   0.025
0.760504   0.0715849   0.025
0.782266   0.0715849   0.025
0.803293   0.0715849   0.025
0.823557   0.0715849   0.025
0.843039   0.0715849   0.025
0.861725   0.0715849   0.025
0.879605   0.0715849   0.025
0.896677   0.0715849   0.025
0.912945   0.0715849   0.025
0.928415   0.0715849   0.025
0.943099   0.0715849   0.025
0.957011   0.0715849   0.025
0.970171   0.0715849   0.025
0.982598   0.0715849   0.025
0.994315   0.0715849   0.025
0.00568455   0.0870549   0.025
0.0174023   0.0870549   0.025
0.0298294   0.0870549   0.025
0.0429888   0.0870549   0.025
0.0569012   0.0870549   0.025
0.0715849   0.0870549   0.025
0.0870549   0.0870549   0.025
0.103323   0.0870549   0.025
0.120395   0.0870549   0.025
0.138275   0.0870549   0.025
0.156961   0.0870549   0.025
0.176443   0.0870549   0.025
0.196707   0.0870549   0.025
0.217734   0.0870549   0.025
0.239496   0.0870549   0.025
0.261959   0.0870549   0.025
0.285082   0.0870549   0.025
0.308818   0.0870549   0.025
0.333113   0.0870549   0.025
0.357906   0.0870549   0.025
0.383132   0.0870549   0.025
0.408719   0.0870549   0.025
0.434592   0.0870549   0.025
0.460672   0.0870549   0.025
0.486877   0.0870549   0.025
0.513123   0.0870549   0.025
0.539328   0.0870549   0.025
0.565408   0.0870549   0.025
0.591281   0.0870549   0.025
0.616868   0.0870549   0.025
0.642094   0.0870549   0.025
0.666887   0.0870549   0.025
0.691182   0.0870549   0.025
0.714918   0.0870549   0.025
0.738041   0.0870549   0.025
0.760504   0.0870549   0.025
0.782266   0.0870549   0.025
[...]
POINT_DATA   50000
VECTORS Velocidades double

-1.14466e-06 -9.86315e-05 0
-4.2851e-06 -0.000160123 0
-1.30291e-05 -0.000147177 0
-3.53541e-05 -8.43929e-05 0
-7.82524e-05 1.23719e-05 0
-0.000146238 0.000130518 0
-0.000241388 0.000259575 0
-0.000363839 0.00039134 0
-0.000512456 0.000520506 0
-0.000685766 0.000645801 0
-0.00088348 0.000772629 0
-0.000990977 0.000922588 0
-0.00111204 0.00117655 0
-0.00136773 0.00126124 0
-0.00164675 0.00125237 0
-0.00193175 0.00117466 0
-0.00221661 0.00103874 0
-0.00249659 0.00084926 0
-0.00276596 0.000608133 0
-0.00301695 0.00031674 0
-0.00323936 -2.217e-05 0
-0.00342067 -0.000402937 0
-0.00354715 -0.000816479 0
-0.00363979 -0.00125314 0
-0.00365332 -0.00172242 0
-0.00353921 -0.00213191 0
-0.00332378 -0.00246883 0
-0.00301323 -0.00270523 0
-0.00262098 -0.00281637 0
-0.00216862 -0.00278632 0
-0.00168392 -0.00261123 0
-0.0011976 -0.0023009 0
-0.000739123 -0.00187854 0
-0.00033264 -0.00137903 0
6.90583e-06 -0.000846672 0
0.000195965 -0.000335838 0
0.000314807 7.51081e-05 0
0.000451599 0.00056114 0
0.000531034 0.00103911 0
0.000552594 0.00147123 0
0.000525724 0.0018367 0
0.000461818 0.00212399 0
0.000372382 0.00232703 0
0.000268586 0.00244272 0
0.000161369 0.00246901 0
6.1863e-05 0.00240286 0
-1.79865e-05 0.002237 0
-6.51654e-05 0.00195317 0
-6.82297e-05 0.00150413 0
-2.87802e-05 0.000756592 0
-3.5805e-06 -0.00019358 0
-1.07145e-05 -0.000316807 0
-3.27416e-05 -0.000277036 0
-9.79217e-05 -0.000127246 0
-0.000228316 9.52807e-05 0
-0.000437277 0.000361211 0
-0.000730671 0.000646902 0
-0.00110855 0.000934428 0
-0.00156716 0.00121273 0
-0.0021016 0.00148 0
-0.0027104 0.00174951 0
-0.00301 0.00206911 0
-0.00338658 0.00258684 0
-0.00421435 0.00276351 0
-0.00508049 0.0027439 0
-0.00595908 0.00258214 0
-0.00683379 0.00230118 0
-0.00769002 0.00191019 0
-0.00850976 0.00141187 0
-0.00926877 0.000807444 0
-0.0099355 0.000100828 0
-0.0104719 -0.000697864 0
-0.010836 -0.00157092 0
-0.0110994 -0.00249866 0
-0.0111161 -0.0034968 0
-0.0107412 -0.00438417 0
-0.0100702 -0.00512639 0
-0.00911835 -0.00566229 0
-0.00792639 -0.00593703 0
-0.00655798 -0.00591387 0
-0.00509428 -0.00558148 0
-0.00362486 -0.00495784 0
-0.0022365 -0.00409028 0
-0.00100146 -0.00305214 0
3.35464e-05 -0.00193861 0
0.000591186 -0.000868519 0
0.000957472 -3.20953e-06 0
0.00140376 0.00102065 0
0.00165476 0.00203158 0
0.00172438 0.00294716 0
0.00164244 0.0037227 0
0.0014438 0.00433369 0
0.00116384 0.00476701 0
0.000837158 0.00501538 0
0.000497657 0.00507318 0
0.000179635 0.00493182 0
-8.01714e-05 0.00457264 0
-0.000239674 0.00395265 0
-0.000252515 0.0029722 0
-0.000108188 0.00139841 0
-4.51244e-06 -0.000184967 0
-2.96693e-05 -0.000291628 0
-0.000101902 -0.000208262 0
-0.000251566 6.85182e-06 0
-0.000506311 0.000305854 0
-0.000885645 0.000650167 0
-0.00139985 0.00100951 0
-0.00205109 0.00136202 0
-0.00283584 0.00169536 0
-0.00374854 0.00200935 0
-0.00478651 0.00232238 0
-0.00530054 0.00268923 0
-0.00592705 0.00323089 0
-0.00729296 0.0034246 0
-0.00872036 0.00340168 0
-0.0101745 0.00322421 0
-0.0116269 0.00291894 0
-0.01305 0.00249469 0
-0.0144113 0.00195143 0
-0.0156688 0.0012864 0
-0.0167697 0.000499429 0
-0.0176507 -0.000402546 0
-0.0182431 -0.00140303 0
-0.0186662 -0.00248074 0
-0.0186879 -0.00363946 0
-0.0180773 -0.00471132 0
-0.0169917 -0.00563825 0
-0.0154552 -0.0063447 0
-0.0135316 -0.00676188 0
-0.0113199 -0.00684024 0
-0.00894623 -0.00655889 0
-0.00654986 -0.00593142 0
-0.00426689 -0.00500719 0
-0.00221228 -0.00386862 0
-0.000463672 -0.00262733 0
0.000488718 -0.00142542 0
0.00112006 -0.000437305 0
0.00189801 0.000728298 0
0.00235922 0.0018865 0
0.00253078 0.00293957 0
0.00245959 0.00383478 0
0.00220075 0.0045433 0
0.00181146 0.00504889 0
0.00134864 0.00534105 0
0.000868503 0.00540984 0
0.000426873 0.00524072 0
7.90053e-05 0.00480714 0
-0.000124643 0.00405905 0
-0.000156596 0.00290653 0
-6.42748e-05 0.00121139 0
-1.17197e-05 -0.00016625 0
-7.11039e-05 -0.000216589 0
-0.000217719 -5.2247e-05 0
-0.000482386 0.00026499 0
-0.000893591 0.000678148 0
-0.00147316 0.00113872 0
-0.00223407 0.00160825 0
-0.00318053 0.00205957 0
-0.00431005 0.00247836 0
-0.00561673 0.00286589 0
-0.0070949 0.00324486 0
-0.00783243 0.00367197 0
-0.00870793 0.00424347 0
-0.0105981 0.00445839 0
-0.0125717 0.00443361 0
-0.0145892 0.0042355 0
-0.0166111 0.00389433 0
-0.0185966 0.00341837 0
-0.0204977 0.00280378 0
-0.0222543 0.00204218 0
-0.0237921 0.0011275 0
-0.0250238 6.2087e-05 0
-0.0258551 -0.00113915 0
-0.026442 -0.00245082 0
-0.0264813 -0.00385592 0
-0.0256726 -0.00520928 0
-0.0242237 -0.00641861 0
-0.0221647 -0.00738679 0
-0.0195773 -0.00802471 0
-0.0165887 -0.0082641 0
-0.013362 -0.00806971 0
-0.0100794 -0.00744804 0
-0.00692064 -0.00645055 0
-0.00404117 -0.00517176 0
-0.00155203 -0.00374505 0
-0.000184353 -0.00234052 0
0.000735113 -0.00115301 0
0.00188931 0.000232334 0
0.00261331 0.00161251 0
0.00294911 0.00287221 0
0.00295938 0.00394761 0
0.00271676 0.00480284 0
0.00229733 0.00541626 0
0.00177711 0.00577213 0
0.00123002 0.00585489 0
0.00072579 0.00564421 0
0.000325688 0.00511017 0
7.3057e-05 0.00420979 0
-2.46096e-05 0.00289061 0
-1.83587e-05 0.00111735 0
-2.37443e-05 -0.000122784 0
-0.000130715 -6.48618e-05 0
-0.000371821 0.000228637 0
-0.000776875 0.000691539 0
-0.00137302 0.00125924 0
-0.00218164 0.00187423 0
-0.00321613 0.00248988 0
-0.00448146 0.00307327 0
-0.00597542 0.0036075 0
-0.00769103 0.00409446 0
-0.00961852 0.00455903 0
-0.0105835 0.0050556 0
-0.0117089 0.00565942 0
-0.0141213 0.00589803 0
-0.0166369 0.0058732 0
-0.019214 0.00565124 0
-0.0218052 0.00526402 0
-0.0243575 0.00471832 0
-0.0268079 0.00400533 0
-0.0290784 0.00310947 0
-0.0310738 0.00201709 0
-0.0326838 0.000724688 0
-0.0337901 -0.000754433 0
-0.0345606 -0.00238773 0
-0.0346425 -0.00413207 0
-0.0336917 -0.00586786 0
-0.0319444 -0.00746184 0
-0.0294328 -0.00878946 0
-0.0262497 -0.00973519 0
-0.0225435 -0.0102059 0
-0.0185074 -0.0101467 0
-0.0143609 -0.00955329 0
-0.0103251 -0.00847807 0
-0.00659623 -0.00702897 0
-0.00332325 -0.00536419 0
-0.00151536 -0.00368519 0
-0.000277377 -0.00221419 0
0.00131691 -0.000527369 0
0.00237191 0.00115058 0
0.00294531 0.00268609 0
0.00311437 0.00400244 0
0.00296665 0.00505448 0
0.00259357 0.00581318 0
0.00208584 0.00625656 0
0.00152959 0.00636396 0
0.00100186 0.00611283 0
0.000564439 0.00547775 0
0.000255372 0.00443409 0
8.05014e-05 0.00297006 0
1.25485e-05 0.00111139 0
-3.87066e-05 -4.19743e-05 0
-0.000202985 0.00019026 0
-0.000555079 0.000671815 0
-0.00112223 0.00133182 0
-0.00192866 0.00209914 0
-0.00299322 0.00290861 0
-0.00432759 0.00370637 0
-0.00593563 0.00445407 0
-0.00781398 0.00513207 0
-0.00995355 0.00574194 0
-0.0123401 0.00630876 0
-0.0135354 0.00688238 0
-0.0149133 0.00752073 0
-0.0178543 0.0077843 0
-0.0209178 0.00776096 0
-0.0240616 0.00751322 0
-0.0272331 0.00707182 0
-0.0303695 0.00644022 0
-0.0333942 0.00560303 0
-0.0362126 0.00453576 0
-0.0387097 0.00321541 0
-0.0407529 0.00163128 0
-0.0422001 -0.000205001 0
-0.0431913 -0.00225171 0
-0.0433558 -0.00443764 0
-0.0423421 -0.00666224 0
-0.0403795 -0.00875024 0
-0.0374962 -0.0105455 0
-0.0337882 -0.0118999 0
-0.0294172 -0.0126886 0
-0.0246009 -0.0128305 0
-0.0195927 -0.0123054 0
-0.0146544 -0.0111635 0
-0.0100267 -0.00952535 0
-0.00590254 -0.00757541 0
-0.00361758 -0.00554971 0
-0.00201977 -0.00370564 0
9.90222e-05 -0.00163143 0
0.00157145 0.000422688 0
0.00247013 0.00230528 0
0.00288501 0.00392607 0
0.00291558 0.00522916 0
0.00266501 0.00617691 0
0.00223484 0.0067409 0
0.00171962 0.00689724 0
0.00120138 0.00662511 0
0.00074389 0.00590875 0
0.000387964 0.00474353 0
0.000150502 0.00314643 0
3.10308e-05 0.00116842 0
-5.54838e-05 8.63898e-05 0
-0.000283985 0.000574274 0
-0.000760106 0.00131458 0
-0.00150754 0.00223201 0
-0.00254631 0.00324989 0
-0.00389109 0.00429692 0
-0.00554991 0.00531344 0
-0.00752362 0.00625671 0
-0.0098062 0.00710468 0
-0.0123855 0.0078582 0
-0.015243 0.00854137 0
-0.0166723 0.00919906 0
-0.0183074 0.00987544 0
-0.0217908 0.0101657 0
-0.0254181 0.010146 0
-0.029148 0.00987261 0
-0.032925 0.00937217 0
-0.0366794 0.00864237 0
-0.0403237 0.00765905 0
-0.0437483 0.00638665 0
-0.0468197 0.00479071 0
-0.0493833 0.00285154 0
-0.051272 0.000578184 0
-0.0525406 -0.0019783 0
-0.0528444 -0.00471996 0
-0.0518762 -0.00754733 0
-0.0498044 -0.0102494 0
-0.0466456 -0.0126363 0
-0.0424893 -0.0145207 0
-0.0375027 -0.0157376 0
-0.0319221 -0.0161716 0
-0.0260329 -0.015779 0
-0.0201398 -0.014602 0
-0.0145333 -0.0127708 0
-0.00945878 -0.0104958 0
-0.00664192 -0.00805116 0
-0.00462795 -0.00573815 0
-0.00187502 -0.00318637 0
0.000124218 -0.000673936 0
0.00145523 0.00163145 0
0.0022175 0.00362627 0
0.00251914 0.00524293 0
0.00247207 0.00643423 0
0.00218624 0.00716545 0
0.00176358 0.00741087 0
0.00129226 0.00715357 0
0.000842363 0.00638816 0
0.000464071 0.00512568 0
0.000189861 0.00339919 0
4.09332e-05 0.00126679 0
-7.35025e-05 0.000271175 0
-0.000371308 0.00111126 0
-0.000981638 0.0021935 0
-0.00192422 0.00343833 0
-0.00321399 0.00476448 0
-0.00486016 0.00609604 0
-0.00686553 0.00736933 0
-0.00922632 0.00853881 0
-0.0119325 0.00958106 0
-0.0149683 0.0104966 0
-0.0183114 0.0113086 0
-0.0199796 0.0120578 0
-0.0218795 0.012778 0
-0.0259264 0.0130989 0
-0.030144 0.0130876 0
-0.0344929 0.0127927 0
-0.0389175 0.0122339 0
-0.0433443 0.0114002 0
-0.0476776 0.010256 0
-0.0517953 0.00875178 0
-0.0555465 0.00683874 0
-0.0587542 0.00448547 0
-0.0612238 0.00169603 0
-0.0628469 -0.00147165 0
-0.0633661 -0.00489711 0
-0.062586 -0.00845085 0
-0.0605406 -0.0119025 0
-0.0572235 -0.0150274 0
-0.0527067 -0.0175916 0
-0.0471539 -0.0193799 0
-0.040815 -0.0202313 0
-0.0340059 -0.0200681 0
-0.0270773 -0.0189155 0
-0.0203776 -0.0169075 0
-0.0142151 -0.0142784 0
-0.010789 -0.0113431 0
-0.00828321 -0.00845648 0
-0.004754 -0.00533265 0
-0.00208816 -0.00227512 0
-0.000191031 0.000535997 0
0.00104176 0.00298473 0
0.00172333 0.00499052 0
0.00197217 0.0064952 0
0.0019061 0.00745703 0
0.00163555 0.00784845 0
0.00125785 0.00765621 0
0.000853656 0.00688316 0
0.000486311 0.00555064 0
0.000204158 0.00369975 0
4.47992e-05 0.00138971 0
-9.24736e-05 0.000520649 0
-0.000463513 0.00182417 0
-0.00121606 0.00334409 0
-0.00236572 0.00499631 0
-0.00392183 0.00669568 0
-0.00588725 0.00836326 0
-0.00825838 0.00993339 0
-0.0110257 0.0113598 0
-0.0141742 0.0126196 0
-0.0176841 0.0137143 0
-0.0215305 0.0146674 0
-0.023444 0.0155171 0
-0.0256188 0.0162901 0
-0.0302586 0.0166503 0
-0.035104 0.0166575 0
-0.0401194 0.016352 0
-0.0452523 0.0157441 0
-0.0504286 0.0148111 0
-0.0555475 0.0135023 0
-0.0604766 0.0117506 0
-0.0650485 0.00948887 0
-0.0690627 0.00666974 0
-0.0722931 0.00328776 0
-0.0743687 -0.000597604 0
-0.0751997 -0.00485037 0
-0.07479 -0.00926568 0
-0.0729415 -0.0136228 0
-0.0696104 -0.0176623 0
-0.0648389 -0.0210938 0
-0.0587777 -0.0236397 0
-0.0516838 -0.0250793 0
-0.0439018 -0.0252866 0
-0.035832 -0.0242569 0
-0.0278893 -0.0221174 0
-0.0204586 -0.0191216 0
-0.0163209 -0.0156265 0
-0.0132242 -0.01205 0
-0.00873444 -0.00825628 0
-0.00522149 -0.00456147 0
-0.00258778 -0.00115097 0
-0.000730697 0.00184709 0
0.000463827 0.00433648 0
0.00111962 0.00624491 0
0.00136339 0.00752129 0
0.00131681 0.00813444 0
0.00109004 0.00807282 0
0.000777995 0.00734456 0
0.000459335 0.00597733 0
0.000197734 0.00401683 0
4.41429e-05 0.00152336 0
-0.000112232 0.000842821 0
-0.000559662 0.00273512 0
-0.00146075 0.00480059 0
-0.00282692 0.00695003 0
-0.00466161 0.00909498 0
-0.00696075 0.011155 0
-0.00971375 0.0130648 0
-0.0129046 0.01478 0
-0.016513 0.0162807 0
-0.0205156 0.017572 0
-0.0248854 0.0186795 0
-0.0270517 0.0196418 0
-0.0295144 0.0204815 0
-0.0347846 0.0208966 0
-0.0403064 0.0209411 0
-0.0460513 0.0206464 0
-0.0519724 0.0200113 0
-0.0579985 0.0189979 0
-0.064027 0.0175363 0
-0.0699169 0.0155369 0
-0.0754849 0.0129087 0
-0.080505 0.00958222 0
-0.084715 0.00553575 0
-0.0873589 0.000821969 0
-0.0886183 -0.00441693 0
-0.0888042 -0.00984219 0
-0.0873622 -0.0152868 0
-0.0841949 -0.0204545 0
-0.0793016 -0.0249876 0
-0.072809 -0.0285313 0
-0.0649732 -0.0307881 0
-0.0561635 -0.0315652 0
-0.0468313 -0.0308094 0
-0.0374665 -0.0286262 0
-0.0285455 -0.0252779 0
-0.0235696 -0.0211617 0
-0.0197568 -0.0167659 0
-0.0140688 -0.0122041 0
-0.00947462 -0.00777402 0
-0.00588498 -0.00365521 0
-0.00320865 1.01748e-05 0
-0.00133521 0.0031041 0
-0.000135801 0.0055342 0
0.00052762 0.00723536 0
0.00079185 0.00816938 0
0.000784173 0.00832356 0
0.000617315 0.00770873 0
0.000387347 0.00635689 0
0.000173654 0.00431792 0
3.98908e-05 0.00165548 0
-0.000132647 0.0012455 0
-0.000658979 0.0038653 0
-0.00171349 0.00659561 0
-0.00330329 0.00934141 0
-0.00542575 0.0120114 0
-0.00806972 0.0145254 0
-0.0112173 0.016821 0
-0.014846 0.0188589 0
-0.0189304 0.0206256 0
-0.023444 0.0221327 0
-0.0283594 0.0234115 0
-0.0307864 0.0245038 0
-0.0335522 0.0254305 0
-0.039498 0.0259257 0
-0.0457556 0.0260383 0
-0.0523065 0.0257906 0
-0.0591133 0.0251672 0
-0.0661107 0.0241112 0
-0.0731969 0.0225283 0
-0.0802238 0.0203002 0
-0.0869915 0.0173048 0
-0.0932463 0.0134426 0
-0.098685 0.00866635 0
-0.102025 0.00301146 0
-0.103846 -0.00338455 0
-0.104894 -0.00998248 0
-0.104108 -0.0167269 0
-0.10132 -0.0232794 0
-0.0964746 -0.0292018 0
-0.0896621 -0.0340463 0
-0.0811264 -0.0374195 0
-0.0712533 -0.0390389 0
-0.0605425 -0.0387787 0
-0.0495632 -0.0367002 0
-0.0388975 -0.0330572 0
-0.0329404 -0.0282777 0
-0.0282588 -0.0229237 0
-0.021069 -0.0175031 0
-0.0150916 -0.0122337 0
-0.0102648 -0.00727583 0
-0.00652237 -0.002793 0
-0.00376257 0.00106313 0
-0.00185088 0.00416989 0
-0.000634056 0.00644085 0
4.49624e-05 0.00782588 0
0.000335707 0.00830792 0
0.000373016 0.00789867 0
0.00027343 0.00663399 0
0.000134036 0.00456924 0
3.26496e-05 0.00177456 0
-0.000153558 0.00173613 0
-0.000760593 0.00523458 0
-0.00197184 0.0087594 0
-0.00378997 0.0122091 0
-0.00620622 0.0154903 0
-0.0092024 0.0185248 0
-0.0127535 0.0212561 0
-0.0168308 0.0236538 0
-0.0214047 0.0257147 0
-0.0264466 0.027461 0
-0.0319302 0.0289332 0
-0.0346255 0.0301798 0
-0.0377112 0.0312226 0
-0.0443836 0.0318359 0
-0.051444 0.0320634 0
-0.058888 0.0319172 0
-0.0666905 0.0313653 0
-0.0747953 0.0303269 0
-0.0831027 0.0286773 0
-0.0914582 0.0262614 0
-0.099644 0.0229174 0
-0.107376 0.0185059 0
-0.114306 0.0129438 0
-0.118469 0.00623738 0
-0.120995 -0.00149118 0
-0.123205 -0.00943957 0
-0.123357 -0.0177287 0
-0.121202 -0.0259657 0
-0.116618 -0.0336195 0
-0.109649 -0.0401346 0
-0.100511 -0.0450019 0
-0.08959 -0.0478237 0
-0.0774229 -0.048372 0
-0.0646548 -0.046632 0
-0.0519815 -0.0428209 0
-0.0448995 -0.037377 0
-0.039173 -0.0309306 0
-0.0301014 -0.0245814 0
-0.0223581 -0.0183622 0
-0.0159402 -0.0124036 0
-0.010824 -0.00690866 0
-0.00692192 -0.00208294 0
-0.00409184 0.00190499 0
-0.00216012 0.00493695 0
-0.000942971 0.00694455 0
-0.00026223 0.00790299 0
4.46466e-05 0.0078236 0
0.000119283 0.00674671 0
8.02463e-05 0.00473531 0
2.28313e-05 0.0018694 0
-0.000174731 0.00232144 0
-0.000863307 0.00686055 0
-0.00223265 0.0113184 0
-0.00428085 0.0155868 0
-0.0069931 0.0195709 0
-0.0103444 0.0231972 0
-0.0143033 0.0264183 0
-0.0188357 0.0292169 0
-0.0239085 0.0316048 0
-0.0294928 0.0336194 0
-0.0355654 0.0353147 0
-0.0385354 0.0367495 0
-0.0419577 0.0379485 0
-0.0494092 0.0387329 0
-0.0573423 0.0391408 0
-0.0657699 0.0391723 0
-0.0746819 0.038775 0
-0.0840327 0.037839 0
-0.0937252 0.0362012 0
-0.103597 0.0336606 0
-0.113411 0.0300055 0
-0.12285 0.0250463 0
-0.131521 0.0186536 0
-0.136617 0.0107938 0
-0.139986 0.00156607 0
-0.143667 -0.00792637 0
-0.145055 -0.0180341 0
-0.143815 -0.0282912 0
-0.139757 -0.0380644 0
-0.132863 -0.0466803 0
-0.123304 -0.0534975 0
-0.111444 -0.057978 0
-0.0978307 -0.0597577 0
-0.0831675 -0.058705 0
-0.0682588 -0.0549582 0
-0.0599396 -0.0489283 0
-0.052979 -0.0412932 0
-0.0415657 -0.0339868 0
-0.0315889 -0.0266989 0
-0.02315 -0.0195358 0
-0.0162883 -0.0127755 0
-0.0109353 -0.00670842 0
-0.00693911 -0.00157094 0
-0.00409951 0.00247311 0
-0.00219851 0.005329 0
-0.00102168 0.00696033 0
-0.00037164 0.00737713 0
-7.53471e-05 0.00662534 0
1.28331e-05 0.00477812 0
1.06717e-05 0.00192883 0
-0.000195809 0.00300685 0
-0.000965379 0.00875713 0
-0.00249148 0.0142934 0
-0.00476761 0.0195005 0
-0.00777316 0.024284 0
-0.0114769 0.0285774 0
-0.0158417 0.0323467 0
-0.0208291 0.0355921 0
-0.0264043 0.0383456 0
-0.0325397 0.040665 0
-0.0392166 0.0426224 0
-0.0424651 0.0442903 0
-0.0462382 0.0456981 0
-0.0545168 0.0467235 0
-0.063387 0.0473975 0
-0.0728811 0.047705 0
-0.0830057 0.0475691 0
-0.0937252 0.0468435 0
-0.104944 0.0453173 0
-0.116488 0.0427337 0
-0.128099 0.0388202 0
-0.139426 0.0333274 0
-0.150032 0.0260716 0
-0.156133 0.0169733 0
-0.160458 0.00610643 0
-0.165891 -0.00513944 0
-0.168795 -0.0173573 0
-0.168759 -0.0299865 0
-0.16553 -0.0422907 0
-0.159022 -0.0534764 0
-0.149339 -0.0627615 0
-0.136786 -0.0694486 0
-0.121886 -0.0730038 0
-0.10536 -0.0731318 0
-0.0880924 -0.0698345 0
-0.0785034 -0.0634367 0
-0.0701303 -0.0546173 0
-0.0558514 -0.0463892 0
-0.0431049 -0.0379024 0
-0.0321519 -0.0292801 0
-0.0231149 -0.0209316 0
-0.0159503 -0.0132744 0
-0.0104956 -0.00664105 0
-0.00651925 -0.00125942 0
-0.00376178 0.00273882 0
-0.00196413 0.00530056 0
-0.000885641 0.00643323 0
-0.000313902 0.00618952 0
-6.89152e-05 0.00465542 0
-3.84999e-06 0.00194109 0
-0.00021627 0.00379566 0
-0.00106432 0.0109325 0
-0.00274214 0.0176964 0
-0.00523883 0.0239655 0
-0.00852848 0.0296478 0
-0.0125745 0.034687 0
-0.017335 0.0390667 0
-0.0227688 0.0428098 0
-0.0288408 0.0459742 0
-0.0355263 0.0486432 0
-0.0428132 0.0509118 0
-0.0463395 0.0528697 0
-0.050472 0.0545522 0
-0.0596118 0.0559054 0
-0.069466 0.05695 0
-0.0800871 0.0576521 0
-0.0914971 0.0579037 0
-0.103668 0.0575134 0
-0.116501 0.0562127 0
-0.129808 0.0536774 0
-0.143304 0.0495647 0
-0.156603 0.0435586 0
-0.169234 0.0354184 0
-0.17635 0.0250201 0
-0.181691 0.01242 0
-0.18907 -0.000802269 0
-0.193699 -0.0154171 0
-0.195125 -0.0307542 0
-0.193045 -0.0459849 0
-0.187304 -0.0602067 0
-0.177916 -0.0725022 0
-0.165095 -0.0820083 0
-0.14928 -0.0879968 0
-0.131146 -0.0899622 0
-0.111597 -0.0877024 0
-0.100852 -0.0813746 0
-0.0909424 -0.0715768 0
-0.0732659 -0.0625454 0
-0.0571992 -0.052721 0
-0.0432136 -0.0423382 0
-0.0315327 -0.0320108 0
-0.0221499 -0.0223333 0
-0.0148981 -0.0137703 0
-0.00951489 -0.00663805 0
-0.00569477 -0.00112047 0
-0.0031264 0.00270457 0
-0.00151683 0.00483906 0
-0.000604993 0.00534294 0
-0.000167754 0.00431744 0
-2.11765e-05 0.00189277 0
-0.000235395 0.00468801 0
-0.00115676 0.0133866 0
-0.00297631 0.0215269 0
-0.00567928 0.0289816 0
-0.00923534 0.0356629 0
-0.0136036 0.0415286 0
-0.018739 0.0465844 0
-0.0245988 0.0508812 0
-0.0311491 0.0545083 0
-0.0383698 0.05758 0
-0.0462566 0.060219 0
-0.0500532 0.0625351 0
-0.0545441 0.0645699 0
-0.0645539 0.0663515 0
-0.075407 0.0678857 0
-0.0871741 0.0691141 0
-0.0998888 0.0698897 0
-0.113525 0.0699658 0
-0.127974 0.0690045 0
-0.143027 0.0666042 0
-0.15837 0.0623444 0
-0.173584 0.0558406 0
-0.188173 0.0468003 0
-0.19623 0.0350672 0
-0.202563 0.020699 0
-0.211923 0.00527225 0
-0.218355 -0.0119887 0
-0.221411 -0.0303084 0
-0.220767 -0.0487906 0
-0.216206 -0.0664497 0
-0.207644 -0.0822582 0
-0.195163 -0.0952022 0
-0.179058 -0.104355 0
-0.159873 -0.108967 0
-0.138433 -0.108569 0
-0.126866 -0.103054 0
-0.115418 -0.0928191 0
-0.0939288 -0.0831943 0
-0.0740853 -0.0719129 0
-0.0565929 -0.0594594 0
-0.0417982 -0.0467227 0
-0.0297591 -0.034527 0
-0.0203269 -0.0235133 0
-0.0132201 -0.0141213 0
-0.00808947 -0.00661114 0
-0.00456674 -0.00109945 0
-0.00229831 0.00240392 0
-0.000964607 0.00396483 0
-0.000289393 0.00370132 0
-4.23728e-05 0.00176672 0
-0.00025226 0.0056797 0
-0.00123836 0.0161082 0
-0.00318336 0.0257682 0
-0.00606966 0.0345283 0
-0.00986378 0.0423073 0
-0.0145221 0.0490804 0
-0.0199976 0.0548801 0
-0.0262476 0.0597906 0
-0.0332409 0.0639378 0
-0.0409627 0.0674726 0
-0.0494172 0.0705491 0
-0.0534675 0.0732999 0
-0.0583014 0.0757731 0
-0.0691516 0.0780913 0
-0.08097 0.0802397 0
-0.0938405 0.082128 0
-0.107801 0.08356 0
-0.12282 0.0842222 0
-0.138769 0.083696 0
-0.155411 0.0814935 0
-0.172399 0.0771133 0
-0.189286 0.0701075 0
-0.205563 0.0601461 0
-0.214393 0.0470651 0