# vtk DataFile Version 2.0
Velocidades
ASCII

DATASET STRUCTURED_GRID
DIMENSIONS   50   50   20

POINTS   50000   double
0.00568455   0.00568455   0.025
0.0174023   0.00568455   0.025
0.0298294   0.00568455   0.025
0.0429888   0.00568455   0.025
0.0569012   0.00568455   0.025
0.0715849   0.00568455   0.025
0.0870549   0.00568455   0.025
0.103323   0.00568455   0.025
0.120395   0.00568455   0.025
0.138275   0.00568455   0.025
0.156961   0.00568455   0.025
0.176443   0.00568455   0.025
0.196707   0.00568455   0.025
0.217734   0.00568455   0.025
0.239496   0.00568455   0.025
0.261959   0.00568455   0.025
0.285082   0.00568455   0.025
0.308818   0.00568455   0.025
0.333113   0.00568455   0.025
0.357906   0.00568455   0.025
0.383132   0.00568455   0.025
0.408719   0.00568455   0.025
0.434592   0.00568455   0.025
0.460672   0.00568455   0.025
0.486877   0.00568455   0.025
0.513123   0.00568455   0.025
0.539328   0.00568455   0.025
0.565408   0.00568455   0.025
0.591281   0.00568455   0.025
0.616868   0.00568455   0.025
0.642094   0.00568455   0.025
0.666887   0.00568455   0.025
0.691182   0.00568455   0.025
0.714918   0.00568455   0.025
0.738041   0.00568455   0.025
0.760504   0.00568455   0.025
0.782266   0.00568455   0.025
0.803293   0.00568455   0.025
0.823557   0.00568455   0.025
0.843039   0.00568455   0.025
0.861725   0.00568455   0.025
0.879605   0.00568455   0.025
0.896677   0.00568455   0.025
0.912945   0.00568455   0.025
0.928415   0.00568455   0.025
0.943099   0.00568455   0.025
0.957011   0.00568455   0.025
0.970171   0.00568455   0.025
0.982598   0.00568455   0.025
0.994315   0.00568455   0.025
0.00568455   0.0174023   0.025
0.0174023   0.0174023   0.025
0.0298294   0.0174023   0.025
0.0429888   0.0174023   0.025
0.0569012   0.0174023   0.025
0.0715849   0.0174023   0.025
0.0870549   0.0174023   0.025
0.103323   0.0174023   0.025
0.120395   0.0174023   0.025
0.138275   0.0174023   0.025
0.156961   0.0174023   0.025
0.176443   0.0174023   0.025
0.196707   0.0174023   0.025
0.217734   0.0174023   0.025
0.239496   0.0174023   0.025
0.261959   0.0174023   0.025
0.285082   0.0174023   0.025
0.308818   0.0174023   0.025
0.333113   0.0174023   0.025
0.357906   0.0174023   0.025
0.383132   0.0174023   0.025
0.408719   0.0174023   0.025
0.434592   0.0174023   0.025
0.460672   0.0174023   0.025
0.486877   0.0174023   0.025
0.513123   0.0174023   0.025
0.539328   0.0174023   0.025
0.565408   0.0174023   0.025
0.591281   0.0174023   0.025
0.616868   0.0174023   0.025
0.642094   0.0174023   0.025
0.666887   0.0174023   0.025
0.691182   0.0174023   0.025
0.714918   0.0174023   0.025
0.738041   0.0174023   0.025
0.760504   0.0174023   0.025
0.782266   0.0174023   0.025
0.803293   0.0174023   0.025
0.823557   0.0174023   0.025
0.843039   0.0174023   0.025
0.861725   0.0174023   0.025
0.879605   0.0174023   0.025
0.896677   0.0174023   0.025
0.912945   0.0174023   0.025
0.928415   0.0174023   0.025
0.943099   0.0174023   0.025
0.957011   0.0174023   0.025
0.970171   0.0174023   0.025
0.982598   0.0174023   0.025
0.994315   0.0174023   0.025
0.00568455   0.0298294   0.025
0.0174023   0.0298294   0.025
0.0298294   0.0298294   0.025
0.0429888   0.0298294   0.025
0.0569012   0.0298294   0.025
0.0715849   0.0298294   0.025
0.0870549   0.0298294   0.025
0.103323   0.0298294   0.025
0.120395   0.0298294   0.025
0.138275   0.0298294   0.025
0.156961   0.0298294   0.025
0.176443   0.0298294   0.025
0.196707   0.0298294   0.025
0.217734   0.0298294   0.025
0.239496   0.0298294   0.025
0.261959   0.0298294   0.025
0.285082   0.0298294   0.025
0.308818   0.0298294   0.025
0.333113   0.0298294   0.025
0.357906   0.0298294   0.025
0.383132   0.0298294   0.025
0.408719   0.0298294   0.025
0.434592   0.0298294   0.025
0.460672   0.0298294   0.025
0.486877   0.0298294   0.025
0.513123   0.0298294   0.025
0.539328   0.0298294   0.025
0.565408   0.0298294   0.025
0.591281   0.0298294   0.025
0.616868   0.0298294   0.025
0.642094   0.0298294   0.025
0.666887   0.0298294   0.025
0.691182   0.0298294   0.025
0.714918   0.0298294   0.025
0.738041   0.0298294   0.025
0.760504   0.0298294   0.025
0.782266   0.0298294   0.025
0.803293   0.0298294   0.025
0.823557   0.0298294   0.025
0.843039   0.0298294   0.025
0.861725   0.0298294   0.025
0.879605   0.0298294   0.025
0.896677   0.0298294   0.025
0.912945   0.0298294   0.025
0.928415   0.0298294   0.025
0.943099   0.0298294   0.025
0.957011   0.0298294   0.025
0.970171   0.0298294   0.025
0.982598   0.0298294   0.025
0.994315   0.0298294   0.025
0.00568455   0.0429888   0.025
0.0174023   0.0429888   0.025
0.0298294   0.0429888   0.025
0.0429888   0.0429888   0.025
0.0569012   0.0429888   0.025
0.0715849   0.0429888   0.025
0.0870549   0.0429888   0.025
0.103323   0.0429888   0.025
0.120395   0.0429888   0.025
0.138275   0.0429888   0.025
0.156961   0.0429888   0.025
0.176443   0.0429888   0.025
0.196707   0.0429888   0.025
0.217734   0.0429888   0.025
0.239496   0.0429888   0.025
0.261959   0.0429888   0.025
0.285082   0.0429888   0.025
0.308818   0.0429888   0.025
0.333113   0.0429888   0.025
0.357906   0.0429888   0.025
0.383132   0.0429888   0.025
0.408719   0.0429888   0.025
0.434592   0.0429888   0.025
0.460672   0.0429888   0.025
0.486877   0.0429888   0.025
0.513123   0.0429888   0.025
0.539328   0.0429888   0.025
0.565408   0.0429888   0.025
0.591281   0.0429888   0.025
0.616868   0.0429888   0.025
0.642094   0.0429888   0.025
0.666887   0.0429888   0.025
0.691182   0.0429888   0.025
0.714918   0.0429888   0.025
0.738041   0.0429888   0.025
0.760504   0.0429888   0.025
0.782266   0.0429888   0.025
0.803293   0.0429888   0.025
0.823557   0.0429888   0.025
0.843039   0.0429888   0.025
0.861725   0.0429888   0.025
0.879605   0.0429888   0.025
0.896677   0.0429888   0.025
0.912945   0.0429888   0.025
0.928415   0.0429888   0.025
0.943099   0.0429888   0.025
0.957011   0.0429888   0.025
0.970171   0.0429888   0.025
0.982598   0.0429888   0.025
0.994315   0.0429888   0.025
0.00568455   0.0569012   0.025
0.0174023   0.0569012   0.025
0.0298294   0.0569012   0.025
0.0429888   0.0569012   0.025
0.0569012   0.0569012   0.025
0.0715849   0.0569012   0.025
0.0870549   0.0569012   0.025
0.103323   0.0569012   0.025
0.120395   0.0569012   0.025
0.138275   0.0569012   0.025
0.156961   0.0569012   0.025
0.176443   0.0569012   0.025
0.196707   0.0569012   0.025
0.217734   0.0569012   0.025
0.239496   0.0569012   0.025
0.261959   0.0569012   0.025
0.285082   0.0569012   0.025
0.308818   0.0569012   0.025
0.333113   0.0569012   0.025
0.357906   0.0569012   0.025
0.383132   0.0569012   0.025
0.408719   0.0569012   0.025
0.434592   0.0569012   0.025
0.460672   0.0569012   0.025
0.486877   0.0569012   0.025
0.513123   0.0569012   0.025
0.539328   0.0569012   0.025
0.565408   0.0569012   0.025
0.591281   0.0569012   0.025
0.616868   0.0569012   0.025
0.642094   0.0569012   0.025
0.666887   0.0569012   0.025
0.691182   0.0569012   0.025
0.714918   0.0569012   0.025
0.738041   0.0569012   0.025
0.760504   0.0569012   0.025
0.782266   0.0569012   0.025
0.803293   0.0569012   0.025
0.823557   0.0569012   0.025
0.843039   0.0569012   0.025
0.861725   0.0569012   0.025
0.879605   0.0569012   0.025
0.896677   0.0569012   0.025
0.912945   0.0569012   0.025
0.928415   0.0569012   0.025
0.943099   0.0569012   0.025
0.957011   0.0569012   0.025
0.970171   0.0569012   0.025
0.982598   0.0569012   0.025
0.994315   0.0569012   0.025
0.00568455   0.0715849   0.025
0.0174023   0.0715849   0.025
0.0298294   0.0715849   0.025
0.0429888   0.0715849   0.025
0.0569012   0.0715849   0.025
0.0715849   0.0715849   0.025
0.0870549   0.0715849   0.025
0.103323   0.0715849   0.025
0.120395   0.0715849   0.025
0.138275   0.0715849   0.025
0.156961   0.0715849   0.025
0.176443   0.0715849   0.025
0.196707   0.0715849   0.025
0.217734   0.0715849   0.025
0.239496   0.0715849   0.025
0.261959   0.0715849   0.025
0.285082   0.0715849   0.025
0.308818   0.0715849   0.025
0.333113   0.0715849   0.025
0.357906   0.0715849   0.025
0.383132   0.0715849   0.025
0.408719   0.0715849   0.025
0.434592   0.0715849   0.025
0.460672   0.0715849   0.025
0.486877   0.0715849   0.025
0.513123   0.0715849   0.025
0.539328   0.0715849   0.025
0.565408   0.0715849   0.025
0.591281   0.0715849   0.025
0.616868   0.0715849   0.025
0.642094   0.0715849   0.025
0.666887   0.0715849   0.025
0.691182   0.0715849   0.025
0.714918   0.0715849   0.025
0.738041   0.0715849   0.025
0.760504   0.0715849   0.025
0.782266   0.0715849   0.025
0.803293   0.0715849   0.025
0.823557   0.0715849   0.025
0.843039   0.0715849   0.025
0.861725   0.0715849   0.025
0.879605   0.0715849   0.025
0.896677   0.0715849   0.025
0.912945   0.0715849   0.025
0.928415   0.0715849   0.025
0.943099   0.0715849   0.025
0.957011   0.0715849   0.025
0.970171   0.0715849   0.025
0.982598   0.0715849   0.025
0.994315   0.0715849   0.025
0.00568455   0.0870549   0.025
0.0174023   0.0870549   0.025
0.0298294   0.0870549   0.025
0.0429888   0.0870549   0.025
0.0569012   0.0870549   0.025
0.0715849   0.0870549   0.025
0.0870549   0.0870549   0.025
0.103323   0.0870549   0.025
0.120395   0.0870549   0.025
0.138275   0.0870549   0.025
0.156961   0.0870549   0.025
0.176443   0.0870549   0.025
0.196707   0.0870549   0.025
0.217734   0.0870549   0.025
0.239496   0.0870549   0.025
0.261959   0.0870549   0.025
0.285082   0.0870549   0.025
0.308818   0.0870549   0.025
0.333113   0.0870549   0.025
0.357906   0.0870549   0.025
0.383132   0.0870549   0.025
0.408719   0.0870549   0.025
0.434592   0.0870549   0.025
0.460672   0.0870549   0.025
0.486877   0.0870549   0.025
0.513123   0.0870549   0.025
0.539328   0.0870549   0.025
0.565408   0.0870549   0.025
0.591281   0.0870549   0.025
0.616868   0.0870549   0.025
0.642094   0.0870549   0.025
0.666887   0.0870549   0.025
0.691182   0.0870549   0.025
0.714918   0.0870549   0.025
0.738041   0.0870549   0.025
0.760504   0.0870549   0.025
0.782266   0.0870549   0.025
[...]
POINT_DATA   50000
VECTORS Velocidades double

-7.01375e-05 -0.00154101 0
-0.000190159 -0.00302098 0
-0.000262568 -0.00384917 0
-0.000291962 -0.00431065 0
-0.000303888 -0.00452168 0
-0.000323063 -0.00454144 0
-0.00036804 -0.00440627 0
-0.000451651 -0.00414161 0
-0.000582438 -0.00376627 0
-0.000766201 -0.00329313 0
-0.00100804 -0.00272626 0
-0.00112852 -0.00204812 0
-0.00129953 -0.0011624 0
-0.00171862 -0.000504706 0
-0.00220848 3.80505e-05 0
-0.00274298 0.000492438 0
-0.00331322 0.000857005 0
-0.00391067 0.00111714 0
-0.00452292 0.00125272 0
-0.00513195 0.00124417 0
-0.00571355 0.00107802 0
-0.00623786 0.000751645 0
-0.00667196 0.000276609 0
-0.00697536 -0.000319182 0
-0.00710684 -0.000982805 0
-0.00703757 -0.00164654 0
-0.00675385 -0.00223695 0
-0.00625984 -0.00268448 0
-0.00557861 -0.00292937 0
-0.00475265 -0.00292995 0
-0.00383996 -0.00266959 0
-0.00290649 -0.00216013 0
-0.00201659 -0.00144115 0
-0.00122367 -0.000576046 0
-0.000562169 0.000352747 0
-0.000191815 0.00124206 0
3.60624e-05 0.00194087 0
0.000292587 0.00275063 0
0.000448524 0.00352077 0
0.000509273 0.00419393 0
0.000493618 0.00474439 0
0.000420626 0.00516011 0
0.000307973 0.00543484 0
0.000172335 0.00556383 0
3.03711e-05 0.00554061 0
-9.99117e-05 0.00535313 0
-0.000197447 0.00497705 0
-0.000237223 0.00436041 0
-0.000195801 0.00338205 0
-7.61509e-05 0.00171959 0
-0.0002347 -0.00283295 0
-0.000619677 -0.00589171 0
-0.000823267 -0.00764807 0
-0.000885162 -0.00861366 0
-0.000901801 -0.00903659 0
-0.00094868 -0.00905184 0
-0.00107876 -0.00874316 0
-0.00132854 -0.00816848 0
-0.00172296 -0.00736969 0
-0.00227975 -0.00637451 0
-0.00301549 -0.00519026 0
-0.00333743 -0.00377711 0
-0.00387263 -0.00195781 0
-0.00522585 -0.000600594 0
-0.00675049 0.000512207 0
-0.00841169 0.00144082 0
-0.0101857 0.00218363 0
-0.0120442 0.00270939 0
-0.0139446 0.00297428 0
-0.0158256 0.00293519 0
-0.0176067 0.00256149 0
-0.0191908 0.00184534 0
-0.0204728 0.000809482 0
-0.0213386 -0.000488149 0
-0.0216695 -0.00195774 0
-0.0213835 -0.0034324 0
-0.0204576 -0.00476116 0
-0.0189162 -0.00579532 0
-0.0168344 -0.00640388 0
-0.0143382 -0.00649247 0
-0.0115943 -0.0060195 0
-0.00879013 -0.00500473 0
-0.00610954 -0.00352877 0
-0.0037087 -0.00172521 0
-0.00169363 0.000228416 0
-0.000599316 0.00210636 0
0.000102887 0.00359448 0
0.000941299 0.0053091 0
0.00143461 0.00694174 0
0.00162775 0.00836972 0
0.00157952 0.00953958 0
0.00134818 0.0104268 0
0.000988461 0.0110183 0
0.00055263 0.011303 0
9.30381e-05 0.0112646 0
-0.000334222 0.0108735 0
-0.000663817 0.0100713 0
-0.000813952 0.00873849 0
-0.000688802 0.00662026 0
-0.000272473 0.00315 0
-0.000170148 -0.00239253 0
-0.000543073 -0.00552659 0
-0.000893787 -0.00744988 0
-0.00114929 -0.00850441 0
-0.00136623 -0.00893198 0
-0.00162845 -0.00889115 0
-0.00201128 -0.00848844 0
-0.00257397 -0.00779854 0
-0.00336102 -0.00687439 0
-0.00440653 -0.00574933 0
-0.00574026 -0.00443048 0
-0.00634385 -0.00287316 0
-0.00726673 -0.000933305 0
-0.00954039 0.000532262 0
-0.0120914 0.00172244 0
-0.0148766 0.00270766 0
-0.0178524 0.00348772 0
-0.0209628 0.00402566 0
-0.0241284 0.00426837 0
-0.0272404 0.0041623 0
-0.0301601 0.00366737 0
-0.0327246 0.00276938 0
-0.034759 0.00149003 0
-0.0361119 -0.000108605 0
-0.0365883 -0.00195669 0
-0.0360495 -0.00382742 0
-0.0344933 -0.00555253 0
-0.0319646 -0.00695821 0
-0.0285843 -0.00788412 0
-0.0245482 -0.00820798 0
-0.0201107 -0.00786704 0
-0.015557 -0.00687079 0
-0.011169 -0.00530273 0
-0.00718954 -0.00331335 0
-0.00379072 -0.00111116 0
-0.00192294 0.00103363 0
-0.000705201 0.00277661 0
0.000774678 0.00475048 0
0.00169555 0.00663026 0
0.00213536 0.00827738 0
0.0021852 0.00963298 0
0.00193741 0.0106702 0
0.00148229 0.0113728 0
0.000908912 0.0117242 0
0.000307374 0.0116995 0
-0.00022861 0.0112552 0
-0.000601307 0.0103144 0
-0.000718753 0.00874051 0
-0.000537831 0.00630129 0
-0.000186286 0.0026513 0
-0.000108858 -0.00207166 0
-0.000421153 -0.00508362 0
-0.000849679 -0.00706383 0
-0.00130847 -0.00816912 0
-0.00180745 -0.00858305 0
-0.00240552 -0.00846281 0
-0.00317482 -0.00793086 0
-0.00418296 -0.00707933 0
-0.00548724 -0.00597472 0
-0.00713473 -0.00465889 0
-0.00916424 -0.00314276 0
-0.0101099 -0.00138705 0
-0.0114526 0.000714614 0
-0.0146708 0.00233524 0
-0.0182607 0.00364857 0
-0.0221772 0.00472491 0
-0.0263567 0.00556106 0
-0.0307116 0.00611048 0
-0.0351213 0.00630629 0
-0.0394262 0.00608006 0
-0.0434296 0.00537868 0
-0.0469053 0.00417976 0
-0.0496148 0.00250411 0
-0.0513989 0.000420295 0
-0.0519876 -0.0019956 0
-0.0511845 -0.00446503 0
-0.0490321 -0.00678668 0
-0.0455922 -0.00875049 0
-0.041022 -0.010155 0
-0.035571 -0.0108391 0
-0.0295621 -0.0107103 0
-0.0233583 -0.0097624 0
-0.0173225 -0.00808121 0
-0.0117743 -0.00583847 0
-0.00695249 -0.00328234 0
-0.004278 -0.000735248 0
-0.00250031 0.00141858 0
-0.000286343 0.00379093 0
0.00117288 0.00604148 0
0.00198776 0.00801823 0
0.00227675 0.00965482 0
0.00216086 0.0109184 0
0.00176148 0.0117859 0
0.00119969 0.0122315 0
0.000595386 0.0122184 0
6.41957e-05 0.0116904 0
-0.000291757 0.0105629 0
-0.000406284 0.00871625 0
-0.000291766 0.00600691 0
-9.26984e-05 0.00233146 0
-7.96038e-05 -0.00184209 0
-0.000363026 -0.00461412 0
-0.000859429 -0.00649867 0
-0.00151859 -0.00754823 0
-0.00233499 -0.00788216 0
-0.00334264 -0.00763514 0
-0.00459734 -0.00693086 0
-0.00616135 -0.00587177 0
-0.00809415 -0.0045359 0
-0.0104482 -0.0029747 0
-0.0132652 -0.0012077 0
-0.0146031 0.000789227 0
-0.0163997 0.00308063 0
-0.0206068 0.00489656 0
-0.0252655 0.00637667 0
-0.0303315 0.00757774 0
-0.0357225 0.00848548 0
-0.0413184 0.00903845 0
-0.0469552 0.00915157 0
-0.0524221 0.00873785 0
-0.0574662 0.00772886 0
-0.0618038 0.00609357 0
-0.0651411 0.00385382 0
-0.0673237 0.0010911 0
-0.0680153 -0.00208699 0
-0.066973 -0.00535523 0
-0.0642907 -0.00847226 0
-0.0600387 -0.0111825 0
-0.0543972 -0.013233 0
-0.0476533 -0.0144142 0
-0.0401799 -0.0145954 0
-0.0324014 -0.0137484 0
-0.0247498 -0.0119576 0
-0.0176172 -0.00941652 0
-0.0113137 -0.00641625 0
-0.00779827 -0.00333426 0
-0.00540914 -0.000601429 0
-0.00234117 0.00231029 0
-0.000209183 0.0050534 0
0.00112699 0.00746894 0
0.00180759 0.00948233 0
0.00197575 0.0110511 0
0.00177704 0.0121414 0
0.00135619 0.0127163 0
0.000851666 0.0127291 0
0.000386811 0.0121196 0
5.58002e-05 0.0108151 0
-9.62134e-05 0.00874051 0
-9.32673e-05 0.00584937 0
-3.04689e-05 0.00218284 0
-7.51774e-05 -0.00164242 0
-0.000376726 -0.00408996 0
-0.000974308 -0.00573413 0
-0.00185636 -0.00659197 0
-0.0030226 -0.00674125 0
-0.00449376 -0.00629046 0
-0.00630888 -0.00535368 0
-0.00851782 -0.00403444 0
-0.0111737 -0.00241689 0
-0.0143262 -0.000560868 0
-0.0180144 0.00150233 0
-0.0197872 0.00377491 0
-0.0220713 0.00627599 0
-0.0273211 0.00832042 0
-0.0330898 0.0100052 0
-0.0393327 0.0113598 0
-0.04595 0.0123486 0
-0.052789 0.0128885 0
-0.059643 0.0128718 0
-0.0662526 0.0121904 0
-0.0723136 0.0107595 0
-0.0774925 0.00854072 0
-0.0814516 0.00556057 0
-0.0840257 0.00192147 0
-0.0848378 -0.00222041 0
-0.0836291 -0.00648351 0
-0.080524 -0.0105948 0
-0.0755889 -0.0142457 0
-0.0690109 -0.0171227 0
-0.0610967 -0.0189584 0
-0.0522529 -0.019574 0
-0.042952 -0.0189106 0
-0.0336877 -0.0170443 0
-0.0249247 -0.0141861 0
-0.017052 -0.0106681 0
-0.012649 -0.00692336 0
-0.00958422 -0.00343708 0
-0.00551342 0.000154279 0
-0.00254667 0.00351057 0
-0.000521113 0.00647542 0
0.000717277 0.00896649 0
0.00132602 0.0109283 0
0.00146715 0.0123131 0
0.00130115 0.0130728 0
0.000977336 0.013156 0
0.00062201 0.012509 0
0.000325688 0.0110836 0
0.000132416 0.00885418 0
3.79867e-05 0.00584346 0
6.04664e-06 0.00215257 0
-8.72619e-05 -0.00142105 0
-0.000449517 -0.00344566 0
-0.00119755 -0.00470971 0
-0.00234612 -0.00523084 0
-0.00390513 -0.00506948 0
-0.00589042 -0.004315 0
-0.00832826 -0.00306827 0
-0.0112547 -0.00142684 0
-0.0147117 0.0005251 0
-0.0187406 0.00272228 0
-0.0233729 0.00512065 0
-0.0256165 0.0076969 0
-0.0284191 0.0104228 0
-0.034768 0.0127232 0
-0.0416932 0.0146434 0
-0.0491467 0.0161729 0
-0.0570107 0.017244 0
-0.0651016 0.017745 0
-0.0731732 0.0175413 0
-0.0809225 0.0165019 0
-0.0880019 0.0145267 0
-0.0940386 0.0115725 0
-0.0986615 0.00767476 0
-0.101647 0.00296322 0
-0.102626 -0.00235117 0
-0.10138 -0.00780044 0
-0.0980069 -0.0131081 0
-0.0925534 -0.0179062 0
-0.0851952 -0.0218118 0
-0.0762411 -0.0244894 0
-0.0661154 -0.0257011 0
-0.0553272 -0.0253448 0
-0.0444274 -0.0234765 0
-0.0339564 -0.0203146 0
-0.0243923 -0.0162263 0
-0.0190363 -0.0116988 0
-0.0152134 -0.00728035 0
-0.00995568 -0.00287351 0
-0.00595823 0.00121577 0
-0.00304759 0.0048461 0
-0.00106692 0.00792762 0
0.000147326 0.0103877 0
0.000767326 0.012162 0
0.000964736 0.0131918 0
0.000897975 0.0134249 0
0.000699836 0.0128202 0
0.00046818 0.0113568 0
0.000262743 0.00904798 0
0.000111212 0.00595536 0
2.53685e-05 0.00219601 0
-0.000110657 -0.00113713 0
-0.000568521 -0.00260451 0
-0.00151735 -0.00333864 0
-0.00298508 -0.00337184 0
-0.00498813 -0.00276299 0
-0.00753965 -0.00159102 0
-0.0106561 5.56253e-05 0
-0.0143604 0.00208945 0
-0.0186818 0.00443141 0
-0.0236504 0.0070144 0
-0.0292872 0.00978253 0
-0.03203 0.012686 0
-0.0353781 0.0156494 0
-0.0428796 0.018229 0
-0.0510078 0.0204084 0
-0.0597077 0.0221257 0
-0.0688427 0.0232715 0
-0.0782009 0.0236988 0
-0.087502 0.0232432 0
-0.0964073 0.0217507 0
-0.104536 0.0191075 0
-0.111487 0.0152691 0
-0.116866 0.0102836 0
-0.120307 0.00431014 0
-0.121529 -0.00238966 0
-0.120432 -0.00921215 0
-0.116996 -0.0159262 0
-0.111228 -0.0220969 0
-0.103276 -0.0272632 0
-0.0934299 -0.0310111 0
-0.0821176 -0.0330297 0
-0.0698732 -0.0331568 0
-0.0573001 -0.0314108 0
-0.0450179 -0.0280019 0
-0.0336051 -0.0233205 0
-0.027211 -0.0179037 0
-0.0225258 -0.0123717 0
-0.0158525 -0.0070229 0
-0.0105857 -0.00208068 0
-0.00655911 0.00234309 0
-0.00362689 0.00614853 0
-0.00162725 0.00923947 0
-0.000381496 0.0115301 0
0.000292937 0.0129498 0
0.000566974 0.0134469 0
0.000587445 0.0129931 0
0.000470234 0.0115902 0
0.000300343 0.00927741 0
0.000138684 0.00613488 0
3.31652e-05 0.00228005 0
-0.000142326 -0.000756212 0
-0.000723862 -0.00148884 0
-0.00191879 -0.00152169 0
-0.00375796 -0.000905606 0
-0.00625792 0.000294705 0
-0.00942703 0.00200517 0
-0.0132723 0.00414846 0
-0.0178045 0.00664961 0
-0.0230398 0.00943892 0
-0.0289964 0.0124512 0
-0.0356842 0.0156207 0
-0.0389465 0.0188722 0
-0.0428613 0.0220858 0
-0.0515613 0.024965 0
-0.0609338 0.0274207 0
-0.0709129 0.0293302 0
-0.0813436 0.0305347 0
-0.0919892 0.0308471 0
-0.102542 0.0300714 0
-0.112639 0.0280316 0
-0.121875 0.0246032 0
-0.129833 0.0197434 0
-0.136101 0.0135146 0
-0.14006 0.00610175 0
-0.141623 -0.00219397 0
-0.140917 -0.0105744 0
-0.13767 -0.018917 0
-0.131833 -0.0267096 0
-0.123507 -0.0334055 0
-0.112951 -0.0385013 0
-0.100574 -0.0415972 0
-0.0869233 -0.0424504 0
-0.0726456 -0.0410177 0
-0.0584404 -0.0374776 0
-0.0449962 -0.0322251 0
-0.0374656 -0.0258375 0
-0.0317914 -0.0190128 0
-0.0234195 -0.0126115 0
-0.0165918 -0.00669395 0
-0.0111752 -0.00132862 0
-0.0070502 0.00336545 0
-0.00406318 0.00725693 0
-0.0020292 0.0102305 0
-0.000751246 0.0121991 0
-3.93732e-05 0.0131088 0
0.000275741 0.0129406 0
0.000336235 0.011712 0
0.000257052 0.00947826 0
0.00013056 0.00632865 0
3.29093e-05 0.00237928 0
-0.000180298 -0.00024759 0
-0.000907777 -2.36892e-05 0
-0.00238668 0.000843219 0
-0.00464331 0.00228395 0
-0.00768792 0.0042263 0
-0.0115202 0.00659962 0
-0.0161363 0.0093383 0
-0.0215347 0.0123826 0
-0.0277191 0.0156763 0
-0.034696 0.0191596 0
-0.0424651 0.0227603 0
-0.0462585 0.0263797 0
-0.0507538 0.0298577 0
-0.0606858 0.0330548 0
-0.0713329 0.0357984 0
-0.0826157 0.0378973 0
-0.0943615 0.0391381 0
-0.106314 0.039291 0
-0.118147 0.0381286 0
-0.129481 0.0354549 0
-0.1399 0.0311379 0
-0.148977 0.025138 0
-0.156293 0.0175306 0
-0.160834 0.00851942 0
-0.162851 -0.00156944 0
-0.162816 -0.0116932 0
-0.160044 -0.0219005 0
-0.154418 -0.031588 0
-0.145985 -0.0401195 0
-0.13495 -0.0468933 0
-0.121686 -0.0514041 0
-0.106731 -0.0533048 0
-0.0907588 -0.0524606 0
-0.0745419 -0.0489865 0
-0.058882 -0.0432533 0
-0.0501196 -0.0358591 0
-0.0433103 -0.027579 0
-0.0328948 -0.0200402 0
-0.0241548 -0.0130181 0
-0.0170248 -0.00653226 0
-0.0114284 -0.000741602 0
-0.00722402 0.0041681 0
-0.00421778 0.00803896 0
-0.00219214 0.0107596 0
-0.000930177 0.012268 0
-0.000231985 0.0125489 0
7.71816e-05 0.0116299 0
0.000145115 0.00957633 0
9.464e-05 0.00648452 0
2.68463e-05 0.00247307 0
-0.000222998 0.000416607 0
-0.00111325 0.00186077 0
-0.00290516 0.00385392 0
-0.00561499 0.00631013 0
-0.00924133 0.00915152 0
-0.0137712 0.0123133 0
-0.0191873 0.0157448 0
-0.0254755 0.0194059 0
-0.0326273 0.0232583 0
-0.0406388 0.0272523 0
-0.0495007 0.0313121 0
-0.0538272 0.0353195 0
-0.0589074 0.0390792 0
-0.0700867 0.0426114 0
-0.0820209 0.0456496 0
-0.094616 0.0479291 0
-0.107683 0.0491799 0
-0.120953 0.0491291 0
-0.134087 0.0475194 0
-0.146699 0.0441377 0
-0.158371 0.0388465 0
-0.168676 0.0316104 0
-0.177187 0.0225141 0
-0.182362 0.0117712 0
-0.18494 -0.000279388 0
-0.185865 -0.0123351 0
-0.183866 -0.0246519 0
-0.178763 -0.0365226 0
-0.170536 -0.0472239 0
-0.159323 -0.0560513 0
-0.145436 -0.0623808 0
-0.129373 -0.0657366 0
-0.111808 -0.0658585 0
-0.0935628 -0.0627563 0
-0.0755441 -0.0567351 0
-0.0654868 -0.0483801 0
-0.0573886 -0.0385285 0
-0.0445231 -0.0298047 0
-0.03346 -0.0215353 0
-0.0242447 -0.0137074 0
-0.0168595 -0.00655715 0
-0.0111763 -0.000353051 0
-0.00698816 0.0046862 0
-0.00404994 0.00841325 0
-0.00210964 0.0107503 0
-0.000929257 0.0116803 0
-0.000295734 0.0112363 0
-2.52213e-05 0.00949207 0
3.66989e-05 0.00655246 0
1.65041e-05 0.00254397 0
-0.00026885 0.00126089 0
-0.00133292 0.00422609 0
-0.00345647 0.00759724 0
-0.00664175 0.0112739 0
-0.0108715 0.0151768 0
-0.0161166 0.019252 0
-0.0223445 0.0234703 0
-0.029527 0.0278174 0
-0.0376443 0.0322787 0
-0.0466829 0.0368197 0
-0.056627 0.0413651 0
-0.0614777 0.0457814 0
-0.0671356 0.0498439 0
-0.0795525 0.0537264 0
-0.0927605 0.0570611 0
-0.10665 0.059508 0
-0.12102 0.0607403 0
-0.135591 0.060444 0
-0.150021 0.0583347 0
-0.163923 0.0541846 0
-0.176884 0.0478525 0
-0.188478 0.0393065 0
-0.198283 0.0286377 0
-0.204107 0.0160632 0
-0.20733 0.00192894 0
-0.209471 -0.0122494 0
-0.208526 -0.0269139 0
-0.204265 -0.041251 0
-0.196603 -0.0544624 0
-0.185595 -0.0657443 0
-0.171464 -0.0743481 0
-0.15463 -0.0796499 0
-0.135723 -0.0812293 0
-0.115572 -0.0789423 0
-0.0951567 -0.0729724 0
-0.0838183 -0.0638377 0
-0.0742914 -0.0524 0
-0.0585269 -0.0424931 0
-0.044689 -0.0328133 0
-0.0329808 -0.0233707 0
-0.0234555 -0.0145346 0
-0.0160002 -0.00669329 0
-0.0103921 -0.000149503 0
-0.00635259 0.0048984 0
-0.00358781 0.00834737 0
-0.00181468 0.0101725 0
-0.00077603 0.0104097 0
-0.000247493 0.00914143 0
-3.95902e-05 0.00648375 0
2.84959e-06 0.00257668 0
-0.000316055 0.0023049 0
-0.00155826 0.00712106 0
-0.00401979 0.0121415 0
-0.00768618 0.0172542 0
-0.0125216 0.0223838 0
-0.0184784 0.0274954 0
-0.0255069 0.0325893 0
-0.0335648 0.0376855 0
-0.042621 0.0428007 0
-0.0526539 0.047921 0
-0.0636427 0.0529767 0
-0.0689962 0.0578232 0
-0.0752101 0.0622128 0
-0.0888213 0.0664577 0
-0.103254 0.0700854 0
-0.118382 0.0726813 0
-0.133995 0.0738645 0
-0.149807 0.0732828 0
-0.165475 0.0706274 0
-0.180617 0.0656585 0
-0.194826 0.0582325 0
-0.207686 0.0483216 0
-0.218785 0.0360233 0
-0.225217 0.0215581 0
-0.229116 0.00528197 0
-0.232647 -0.0112027 0
-0.232979 -0.0284193 0
-0.229864 -0.0454686 0
-0.223155 -0.0614991 0
-0.212814 -0.0756241 0
-0.198947 -0.0869772 0
-0.181854 -0.0947782 0
-0.162061 -0.0984174 0
-0.140339 -0.0975472 0
-0.117681 -0.0921613 0
-0.10521 -0.0826348 0
-0.0941675 -0.0697843 0
-0.0750648 -0.0587537 0
-0.0580065 -0.04748 0
-0.0433913 -0.0361032 0
-0.0313542 -0.0251948 0
-0.0218045 -0.0153049 0
-0.0145072 -0.00684929 0
-0.00914959 -9.69575e-05 0
-0.00539178 0.00481122 0
-0.00289992 0.00783558 0
-0.00136656 0.00901235 0
-0.000520991 0.00843301 0
-0.000133159 0.00622839 0
-1.37535e-05 0.0025567 0
-0.000362464 0.00356118 0
-0.00177922 0.010576 0
-0.00457053 0.0175281 0
-0.00870403 0.024297 0
-0.0141241 0.0308182 0
-0.0207634 0.0370849 0
-0.0285548 0.0431369 0
-0.0374413 0.0490385 0
-0.047381 0.0548461 0
-0.0583451 0.0605734 0
-0.0703088 0.0661613 0
-0.0761298 0.0714587 0
-0.0828601 0.0762006 0
-0.0975795 0.0808137 0
-0.113139 0.0847227 0
-0.129398 0.0874419 0
-0.146134 0.0885397 0
-0.163059 0.0876292 0
-0.179829 0.0843799 0
-0.196065 0.0785428 0
-0.21137 0.0699747 0
-0.225344 0.0586555 0
-0.237599 0.0446947 0
-0.244529 0.0283251 0
-0.249062 0.00992376 0
-0.254021 -0.00902268 0
-0.255754 -0.0289257 0
-0.25403 -0.0488532 0
-0.248653 -0.0679318 0
-0.239489 -0.0852226 0
-0.226512 -0.0997661 0
-0.209853 -0.110635 0
-0.18987 -0.117018 0
-0.167191 -0.118322 0
-0.142729 -0.114281 0
-0.129467 -0.105034 0
-0.116936 -0.0912434 0
-0.0941694 -0.0792112 0
-0.0735347 -0.0661653 0
-0.0556424 -0.0525198 0
-0.0407251 -0.0391147 0
-0.0287373 -0.0267068 0
-0.0194493 -0.0158611 0
-0.0125234 -0.00694474 0
-0.00757513 -0.000154873 0
-0.00421634 0.0044434 0
-0.00208348 0.00688208 0
-0.000852652 0.00726173 0
-0.000246184 0.00573039 0
-3.36569e-05 0.00246838 0
-0.000405554 0.00503245 0
-0.00198407 0.0145962 0
-0.00508033 0.0237623 0
-0.00964456 0.032405 0
-0.0156019 0.0404779 0
-0.0228657 0.0480117 0
-0.0313517 0.055097 0
-0.0409885 0.0618529 0
-0.0517236 0.0683846 0
-0.0635212 0.0747404 0
-0.0763532 0.0808775 0
-0.0825905 0.086643 0
-0.0897763 0.0917598 0
-0.105465 0.0967359 0
-0.121995 0.100902 0
-0.139209 0.103705 0
-0.156875 0.104669 0
-0.174696 0.103374 0
-0.192327 0.0994704 0
-0.209393 0.0927046 0
-0.225508 0.0829393 0
-0.240294 0.0701717 0
-0.253407 0.0545358 0
-0.260651 0.0362927 0
-0.265689 0.015857 0
-0.271939 -0.00564433 0
-0.275057 -0.0282599 0
-0.274863 -0.051108 0
-0.271133 -0.0733292 0
-0.26365 -0.0939795 0
-0.252245 -0.112049 0
-0.236853 -0.126498 0
-0.217602 -0.136326 0
-0.194885 -0.140674 0
-0.169423 -0.13896 0
-0.155944 -0.130998 0
-0.142135 -0.117151 0
-0.115656 -0.10432 0
-0.0912991 -0.0894029 0
-0.0698748 -0.0732132 0
-0.0517515 -0.0569015 0
-0.036979 -0.0414776 0
-0.0253721 -0.0277038 0
-0.0165924 -0.0160862 0
-0.0102212 -0.00690831 0
-0.0058178 -0.00027864 0
-0.00295803 0.00382156 0
-0.00125796 0.00549936 0
-0.000384405 0.00492111 0
-5.79891e-05 0.00229222 0
-0.00044249 0.00670895 0
-0.00215976 0.0191557 0
-0.00551781 0.0308044 0
-0.010452 0.0415272 0
-0.0168706 0.0513022 0
-0.0246699 0.0602066 0
-0.0337494 0.0683924 0
-0.0440243 0.0760434 0
-0.0554314 0.0833228 0
-0.0679274 0.090321 0
-0.0814799 0.0970168 0
-0.0880649 0.10326 0
-0.0956216 0.108765 0
-0.112082 0.114082 0
-0.129359 0.118461 0
-0.147279 0.12129 0
-0.165592 0.122049 0
-0.183994 0.120288 0
-0.202135 0.115646 0
-0.219643 0.107869 0
-0.236145 0.0968354 0
-0.2513 0.0825757 0
-0.264819 0.0652669 0
-0.272135 0.0452191 0
-0.277463 0.022899 0
-0.284681 -0.00114643 0
-0.289007 -0.0263643 0
-0.290334 -0.0520165 0
-0.288438 -0.0772955 0
-0.283046 -0.101309 0
-0.273857 -0.123058 0
-0.260605 -0.141448 0
-0.243151 -0.155333 0
-0.221578 -0.163612 0
-0.196299 -0.16536 0
-0.183385 -0.159996 0
-0.168765 -0.147438 0
-0.139003 -0.134159 0
-0.111124 -0.117492 0
-0.0861217 -0.0986631 0
-0.0645727 -0.079138 0
-0.0467045 -0.0602279 0
-0.0324443 -0.0429578 0
-0.0214975 -0.0280349 0
-0.0134364 -0.0158763 0
-0.00777695 -0.00666533 0
-0.0040346 -0.000413975 0
-0.00175994 0.00298391 0
-0.000556737 0.0037117 0
-8.857e-05 0.00200176 0
-0.000470292 0.00856606 0
-0.00229265 0.0241915 0
-0.00585032 0.0385626 0
-0.0110685 0.0515511 0
-0.0178432 0.0631639 0
-0.0260571 0.0735318 0
-0.0355961 0.0828761 0
-0.0463623 0.0914546 0
-0.0582817 0.0994965 0
-0.0713023 0.107141 0
-0.0853851 0.114393 0
-0.0922316 0.12111 0
-0.10005 0.127 0
-0.117021 0.132613 0
-0.134755 0.137136 0
-0.153053 0.139904 0
-0.171651 0.140355 0
-0.190229 0.138017 0
-0.208432 0.132519 0
-0.22589 0.123617 0
-0.242258 0.111226 0
-0.257236 0.0954247 0
-0.270606 0.0764557 0
-0.277716 0.0546974 0
-0.283059 0.0306766 0
-0.290772 0.00423674 0
-0.295977 -0.0233294 0
-0.298649 -0.0514971 0
-0.298595 -0.0795474 0
-0.295521 -0.106698 0
-0.289034 -0.132032 0
-0.278691 -0.154479 0
-0.264086 -0.172827 0
-0.244964 -0.185787 0