# vtk DataFile Version 2.0
Presion
ASCII

DATASET STRUCTURED_GRID
DIMENSIONS   50   50   20

POINTS   50000   double
0.00568455   0.00568455   0.025
0.0174023   0.00568455   0.025
0.0298294   0.00568455   0.025
0.0429888   0.00568455   0.025
0.0569012   0.00568455   0.025
0.0715849   0.00568455   0.025
0.0870549   0.00568455   0.025
0.103323   0.00568455   0.025
0.120395   0.00568455   0.025
0.138275   0.00568455   0.025
0.156961   0.00568455   0.025
0.176443   0.00568455   0.025
0.196707   0.00568455   0.025
0.217734   0.00568455   0.025
0.239496   0.00568455   0.025
0.261959   0.00568455   0.025
0.285082   0.00568455   0.025
0.308818   0.00568455   0.025
0.333113   0.00568455   0.025
0.357906   0.00568455   0.025
0.383132   0.00568455   0.025
0.408719   0.00568455   0.025
0.434592   0.00568455   0.025
0.460672   0.00568455   0.025
0.486877   0.00568455   0.025
0.513123   0.00568455   0.025
0.539328   0.00568455   0.025
0.565408   0.00568455   0.025
0.591281   0.00568455   0.025
0.616868   0.00568455   0.025
0.642094   0.00568455   0.025
0.666887   0.00568455   0.025
0.691182   0.00568455   0.025
0.714918   0.00568455   0.025
0.738041   0.00568455   0.025
0.760504   0.00568455   0.025
0.782266   0.00568455   0.025
0.803293   0.00568455   0.025
0.823557   0.00568455   0.025
0.843039   0.00568455   0.025
0.861725   0.00568455   0.025
0.879605   0.00568455   0.025
0.896677   0.00568455   0.025
0.912945   0.00568455   0.025
0.928415   0.00568455   0.025
0.943099   0.00568455   0.025
0.957011   0.00568455   0.025
0.970171   0.00568455   0.025
0.982598   0.00568455   0.025
0.994315   0.00568455   0.025
0.00568455   0.0174023   0.025
0.0174023   0.0174023   0.025
0.0298294   0.0174023   0.025
0.0429888   0.0174023   0.025
0.0569012   0.0174023   0.025
0.0715849   0.0174023   0.025
0.0870549   0.0174023   0.025
0.103323   0.0174023   0.025
0.120395   0.0174023   0.025
0.138275   0.0174023   0.025
0.156961   0.0174023   0.025
0.176443   0.0174023   0.025
0.196707   0.0174023   0.025
0.217734   0.0174023   0.025
0.239496   0.0174023   0.025
0.261959   0.0174023   0.025
0.285082   0.0174023   0.025
0.308818   0.0174023   0.025
0.333113   0.0174023   0.025
0.357906   0.0174023   0.025
0.383132   0.0174023   0.025
0.408719   0.0174023   0.025
0.434592   0.0174023   0.025
0.460672   0.0174023   0.025
0.486877   0.0174023   0.025
0.513123   0.0174023   0.025
0.539328   0.0174023   0.025
0.565408   0.0174023   0.025
0.591281   0.0174023   0.025
0.616868   0.0174023   0.025
0.642094   0.0174023   0.025
0.666887   0.0174023   0.025
0.691182   0.0174023   0.025
0.714918   0.0174023   0.025
0.738041   0.0174023   0.025
0.760504   0.0174023   0.025
0.782266   0.0174023   0.025
0.803293   0.0174023   0.025
0.823557   0.0174023   0.025
0.843039   0.0174023   0.025
0.861725   0.0174023   0.025
0.879605   0.0174023   0.025
0.896677   0.0174023   0.025
0.912945   0.0174023   0.025
0.928415   0.0174023   0.025
0.943099   0.0174023   0.025
0.957011   0.0174023   0.025
0.970171   0.0174023   0.025
0.982598   0.0174023   0.025
0.994315   0.0174023   0.025
0.00568455   0.0298294   0.025
0.0174023   0.0298294   0.025
0.0298294   0.0298294   0.025
0.0429888   0.0298294   0.025
0.0569012   0.0298294   0.025
0.0715849   0.0298294   0.025
0.0870549   0.0298294   0.025
0.103323   0.0298294   0.025
0.120395   0.0298294   0.025
0.138275   0.0298294   0.025
0.156961   0.0298294   0.025
0.176443   0.0298294   0.025
0.196707   0.0298294   0.025
0.217734   0.0298294   0.025
0.239496   0.0298294   0.025
0.261959   0.0298294   0.025
0.285082   0.0298294   0.025
0.308818   0.0298294   0.025
0.333113   0.0298294   0.025
0.357906   0.0298294   0.025
0.383132   0.0298294   0.025
0.408719   0.0298294   0.025
0.434592   0.0298294   0.025
0.460672   0.0298294   0.025
0.486877   0.0298294   0.025
0.513123   0.0298294   0.025
0.539328   0.0298294   0.025
0.565408   0.0298294   0.025
0.591281   0.0298294   0.025
0.616868   0.0298294   0.025
0.642094   0.0298294   0.025
0.666887   0.0298294   0.025
0.691182   0.0298294   0.025
0.714918   0.0298294   0.025
0.738041   0.0298294   0.025
0.760504   0.0298294   0.025
0.782266   0.0298294   0.025
0.803293   0.0298294   0.025
0.823557   0.0298294   0.025
0.843039   0.0298294   0.025
0.861725   0.0298294   0.025
0.879605   0.0298294   0.025
0.896677   0.0298294   0.025
0.912945   0.0298294   0.025
0.928415   0.0298294   0.025
0.943099   0.0298294   0.025
0.957011   0.0298294   0.025
0.970171   0.0298294   0.025
0.982598   0.0298294   0.025
0.994315   0.0298294   0.025
0.00568455   0.0429888   0.025
0.0174023   0.0429888   0.025
0.0298294   0.0429888   0.025
0.0429888   0.0429888   0.025
0.0569012   0.0429888   0.025
0.0715849   0.0429888   0.025
0.0870549   0.0429888   0.025
0.103323   0.0429888   0.025
0.120395   0.0429888   0.025
0.138275   0.0429888   0.025
0.156961   0.0429888   0.025
0.176443   0.0429888   0.025
0.196707   0.0429888   0.025
0.217734   0.0429888   0.025
0.239496   0.0429888   0.025
0.261959   0.0429888   0.025
0.285082   0.0429888   0.025
0.308818   0.0429888   0.025
0.333113   0.0429888   0.025
0.357906   0.0429888   0.025
0.383132   0.0429888   0.025
0.408719   0.0429888   0.025
0.434592   0.0429888   0.025
0.460672   0.0429888   0.025
0.486877   0.0429888   0.025
0.513123   0.0429888   0.025
0.539328   0.0429888   0.025
0.565408   0.0429888   0.025
0.591281   0.0429888   0.025
0.616868   0.0429888   0.025
0.642094   0.0429888   0.025
0.666887   0.0429888   0.025
0.691182   0.0429888   0.025
0.714918   0.0429888   0.025
0.738041   0.0429888   0.025
0.760504   0.0429888   0.025
0.782266   0.0429888   0.025
0.803293   0.0429888   0.025
0.823557   0.0429888   0.025
0.843039   0.0429888   0.025
0.861725   0.0429888   0.025
0.879605   0.0429888   0.025
0.896677   0.0429888   0.025
0.912945   0.0429888   0.025
0.928415   0.0429888   0.025
0.943099   0.0429888   0.025
0.957011   0.0429888   0.025
0.970171   0.0429888   0.025
0.982598   0.0429888   0.025
0.994315   0.0429888   0.025
0.00568455   0.0569012   0.025
0.0174023   0.0569012   0.025
0.0298294   0.0569012   0.025
0.0429888   0.0569012   0.025
0.0569012   0.0569012   0.025
0.0715849   0.0569012   0.025
0.0870549   0.0569012   0.025
0.103323   0.0569012   0.025
0.120395   0.0569012   0.025
0.138275   0.0569012   0.025
0.156961   0.0569012   0.025
0.176443   0.0569012   0.025
0.196707   0.0569012   0.025
0.217734   0.0569012   0.025
0.239496   0.0569012   0.025
0.261959   0.0569012   0.025
0.285082   0.0569012   0.025
0.308818   0.0569012   0.025
0.333113   0.0569012   0.025
0.357906   0.0569012   0.025
0.383132   0.0569012   0.025
0.408719   0.0569012   0.025
0.434592   0.0569012   0.025
0.460672   0.0569012   0.025
0.486877   0.0569012   0.025
0.513123   0.0569012   0.025
0.539328   0.0569012   0.025
0.565408   0.0569012   0.025
0.591281   0.0569012   0.025
0.616868   0.0569012   0.025
0.642094   0.0569012   0.025
0.666887   0.0569012   0.025
0.691182   0.0569012   0.025
0.714918   0.0569012   0.025
0.738041   0.0569012   0.025
0.760504   0.0569012   0.025
0.782266   0.0569012   0.025
0.803293   0.0569012   0.025
0.823557   0.0569012   0.025
0.843039   0.0569012   0.025
0.861725   0.0569012   0.025
0.879605   0.0569012   0.025
0.896677   0.0569012   0.025
0.912945   0.0569012   0.025
0.928415   0.0569012   0.025
0.943099   0.0569012   0.025
0.957011   0.0569012   0.025
0.970171   0.0569012   0.025
0.982598   0.0569012   0.025
0.994315   0.0569012   0.025
0.00568455   0.0715849   0.025
0.0174023   0.0715849   0.025
0.0298294   0.0715849   0.025
0.0429888   0.0715849   0.025
0.0569012   0.0715849   0.025
0.0715849   0.0715849   0.025
0.0870549   0.0715849   0.025
0.103323   0.0715849   0.025
0.120395   0.0715849   0.025
0.138275   0.0715849   0.025
0.156961   0.0715849   0.025
0.176443   0.0715849   0.025
0.196707   0.0715849   0.025
0.217734   0.0715849   0.025
0.239496   0.0715849   0.025
0.261959   0.0715849   0.025
0.285082   0.0715849   0.025
0.308818   0.0715849   0.025
0.333113   0.0715849   0.025
0.357906   0.0715849   0.025
0.383132   0.0715849   0.025
0.408719   0.0715849   0.025
0.434592   0.0715849   0.025
0.460672   0.0715849   0.025
0.486877   0.0715849   0.025
0.513123   0.0715849   0.025
0.539328   0.0715849   0.025
0.565408   0.0715849   0.025
0.591281   0.0715849   0.025
0.616868   0.0715849   0.025
0.642094   0.0715849   0.025
0.666887   0.0715849   0.025
0.691182   0.0715849   0.025
0.714918   0.0715849   0.025
0.738041   0.0715849   0.025
0.760504   0.0715849   0.025
0.782266   0.0715849   0.025
0.803293   0.0715849   0.025
0.823557   0.0715849   0.025
0.843039   0.0715849   0.025
0.861725   0.0715849   0.025
0.879605   0.0715849   0.025
0.896677   0.0715849   0.025
0.912945   0.0715849   0.025
0.928415   0.0715849   0.025
0.943099   0.0715849   0.025
0.957011   0.0715849   0.025
0.970171   0.0715849   0.025
0.982598   0.0715849   0.025
0.994315   0.0715849   0.025
0.00568455   0.0870549   0.025
0.0174023   0.0870549   0.025
0.0298294   0.0870549   0.025
0.0429888   0.0870549   0.025
0.0569012   0.0870549   0.025
0.0715849   0.0870549   0.025
0.0870549   0.0870549   0.025
0.103323   0.0870549   0.025
0.120395   0.0870549   0.025
0.138275   0.0870549   0.025
0.156961   0.0870549   0.025
0.176443   0.0870549   0.025
0.196707   0.0870549   0.025
0.217734   0.0870549   0.025
0.239496   0.0870549   0.025
0.261959   0.0870549   0.025
0.285082   0.0870549   0.025
0.308818   0.0870549   0.025
0.333113   0.0870549   0.025
0.357906   0.0870549   0.025
0.383132   0.0870549   0.025
0.408719   0.0870549   0.025
0.434592   0.0870549   0.025
0.460672   0.0870549   0.025
0.486877   0.0870549   0.025
0.513123   0.0870549   0.025
0.539328   0.0870549   0.025
0.565408   0.0870549   0.025
0.591281   0.0870549   0.025
0.616868   0.0870549   0.025
0.642094   0.0870549   0.025
0.666887   0.0870549   0.025
0.691182   0.0870549   0.025
0.714918   0.0870549   0.025
0.738041   0.0870549   0.025
0.760504   0.0870549   0.025
0.782266   0.0870549   0.025
[...]
POINT_DATA   50000
SCALARS Presion double
LOOKUP_TABLE   Presion

0 0 0 0 0 0 0 0 0 0 0 0 0 0 0 0 0 0 0 0 0 0 0 0 0 0 0 0 0 0 0 0 0 0 0 0 0 0 0 0 0 0 0 0 0 0 0 0 0 0 0.00166248 0.00180993 0.00198793 0.00211668 0.00218167 0.00218405 0.00212841 0.00201988 0.00186332 0.00166301 0.00142234 0.00114305 0.000683267 0.000403981 0.00015471 -6.24784e-05 -0.000242462 -0.000376832 -0.00045578 -0.000470497 -0.000415606 -0.000291194 -0.000103768 0.000134048 0.000385017 0.000634951 0.000850108 0.00100352 0.00107369 0.00104675 0.000918053 0.00069279 0.000385712 1.99494e-05 -0.000374864 -0.000763952 -0.00101271 -0.00137489 -0.00171202 -0.00200657 -0.00224807 -0.00243084 -0.00255197 -0.00261002 -0.00260423 -0.00253409 -0.00239967 -0.00220448 -0.00196897 -0.00178578 0.00218227 0.00217115 0.00222117 0.00227208 0.00229414 0.00227508 0.00221118 0.00210272 0.00195192 0.001762 0.00153731 0.00128188 0.000761093 0.00050846 0.000273116 6.22358e-05 -0.000116777 -0.000254859 -0.000342257 -0.00037041 -0.000334077 -0.000233179 -7.37928e-05 0.000130366 0.000353433 0.000572038 0.00075814 0.000886211 0.000935946 0.00089432 0.000757122 0.00052954 0.000225688 -0.000132929 -0.000520061 -0.000905561 -0.00108245 -0.00144168 -0.00176792 -0.00204973 -0.00227988 -0.00245464 -0.00257271 -0.00263459 -0.00264235 -0.0026003 -0.00251686 -0.00240941 -0.00231412 -0.00230055 0.00253456 0.00248461 0.00247003 0.00246466 0.00244697 0.00240331 0.00232652 0.00221381 0.00206525 0.00188299 0.00167148 0.00143401 0.000843552 0.000613384 0.000390439 0.000183938 2.78054e-06 -0.000143309 -0.000244349 -0.000291585 -0.000279336 -0.000206735 -7.89503e-05 8.91174e-05 0.000288937 0.000482198 0.000646768 0.000758032 0.000795779 0.000746548 0.00060544 0.000376884 7.41154e-05 -0.000282666 -0.000669453 -0.00105758 -0.00115861 -0.00152001 -0.00184093 -0.00211469 -0.00233747 -0.00250791 -0.00262664 -0.00269608 -0.00272061 -0.00270733 -0.00266756 -0.00261903 -0.0025877 -0.00260457 0.00282775 0.00276805 0.00272157 0.00267953 0.00263024 0.00256351 0.00247227 0.00235261 0.00220332 0.00202563 0.00182356 0.00159846 0.000933065 0.000719178 0.000504396 0.000298103 0.0001098 -5.03296e-05 -0.000171876 -0.000245426 -0.000264207 -0.000225801 -0.00013369 -3.23897e-06 0.000175263 0.000349292 0.000500114 0.000603707 0.000638976 0.000590801 0.000452422 0.000226598 -7.47641e-05 -0.000432623 -0.000824259 -0.00122041 -0.00124558 -0.00161318 -0.00193323 -0.00220312 -0.00242235 -0.00259193 -0.00271432 -0.00279341 -0.00283478 -0.00284607 -0.00283749 -0.00282193 -0.0028136 -0.00282364 0.00311135 0.00304333 0.00297699 0.00290994 0.00283644 0.00274989 0.00264458 0.00251662 0.00236418 0.00218774 0.00199063 0.0017717 0.00102901 0.000823606 0.000610119 0.000397193 0.000194221 1.16007e-05 -0.000139663 -0.000249008 -0.000307835 -0.000311272 -0.000260071 -0.00016891 -1.1617e-05 0.000148592 0.000293404 0.000399154 0.000442977 0.000406887 0.000280961 6.51427e-05 -0.00023077 -0.000589082 -0.000987768 -0.00139548 -0.0013483 -0.00172478 -0.00204705 -0.00231641 -0.00253544 -0.00270723 -0.00283562 -0.00292532 -0.00298206 -0.00301257 -0.00302457 -0.00302609 -0.00302415 -0.00302237 0.00340508 0.00332336 0.00323934 0.00315242 0.0030595 0.00295615 0.00283787 0.00270097 0.00254326 0.00236449 0.00216708 0.00194708 0.00112722 0.000920727 0.000698932 0.000469426 0.000241066 2.43009e-05 -0.000169074 -0.000326815 -0.000437681 -0.000493329 -0.000490544 -0.000441958 -0.000305765 -0.000155843 -9.83122e-06 0.000108664 0.000174158 0.000164539 6.5221e-05 -0.000128189 -0.000409242 -0.000762268 -0.00116585 -0.00158558 -0.00147317 -0.00185886 -0.00218444 -0.00245544 -0.00267703 -0.00285378 -0.00299023 -0.00309122 -0.00316189 -0.00320762 -0.00323373 -0.00324501 -0.003245 -0.00323515 0.00371306 0.00361146 0.00350812 0.00340262 0.00329264 0.00317455 0.00304422 0.00289785 0.00273262 0.00254739 0.00234342 0.00211375 0.00121889 0.000999606 0.000756896 0.000497281 0.000228905 -3.77477e-05 -0.000289814 -0.000512769 -0.00069186 -0.000814176 -0.000871185 -0.000872024 -0.00075428 -0.000614519 -0.00046137 -0.000318865 -0.00021596 -0.000180242 -0.000232756 -0.000384232 -0.000633441 -0.000968091 -0.00136793 -0.00179516 -0.00162914 -0.00202035 -0.00234748 -0.00262067 -0.00284691 -0.00303123 -0.00317801 -0.00329149 -0.00337587 -0.00343513 -0.00347284 -0.003492 -0.00349474 -0.00348223 0.0040295 0.00390258 0.00377717 0.00365257 0.00352628 0.0033944 0.00325232 0.00309544 0.00291989 0.00272317 0.00250502 0.00225537 0.00128912 0.00104278 0.000763168 0.000455799 0.000128115 -0.000209223 -0.000541898 -0.000852438 -0.00112166 -0.00133095 -0.0014651 -0.00152822 -0.00142101 -0.00129653 -0.0011327 -0.000954679 -0.000795689 -0.000690239 -0.000667945 -0.000748456 -0.000938409 -0.00123113 -0.00160897 -0.00203123 -0.00182944 -0.00221601 -0.00253879 -0.00281256 -0.00304474 -0.0032393 -0.00339928 -0.00352759 -0.00362713 -0.00370062 -0.00375047 -0.00377874 -0.00378717 -0.00377715 0.00434048 0.00418383 0.00403369 0.00388887 0.00374611 0.00360048 0.0034461 0.00327683 0.00308709 0.00287255 0.0026309 0.00234885 0.00131525 0.00102461 0.000688299 0.000310855 -0.000100868 -0.000535755 -0.00097754 -0.00140508 -0.00179382 -0.00211829 -0.0023553 -0.00250224 -0.00239062 -0.00229377 -0.0021197 -0.00189539 -0.00165896 -0.00145326 -0.0013188 -0.00128729 -0.00137677 -0.0015895 -0.00191304 -0.00230562 -0.00209465 -0.00245641 -0.00276293 -0.00303264 -0.00327089 -0.00347839 -0.00365523 -0.00380205 -0.00391999 -0.0040105 -0.00407516 -0.00411556 -0.00413337 -0.00413037 0.0046241 0.00443446 0.0042575 0.00409137 0.00393158 0.00377154 0.00360335 0.00341866 0.00320951 0.00296908 0.00269246 0.00236314 0.00126536 0.000909798 0.000492747 1.76866e-05 -0.000508962 -0.00107527 -0.00166245 -0.00224491 -0.00279172 -0.00326944 -0.00364569 -0.00390914 -0.00377203 -0.0037241 -0.00354612 -0.00326722 -0.0029306 -0.00258846 -0.00229451 -0.00209598 -0.00202664 -0.00210226 -0.00231959 -0.00263975 -0.00245752 -0.00275955 -0.00302928 -0.0032857 -0.00352808 -0.00375072 -0.00394865 -0.00411883 -0.00425998 -0.00437203 -0.0044557 -0.00451228 -0.00454348 -0.00455144 0.0048502 0.00462557 0.00442053 0.00423233 0.00405481 0.0038791 0.00369463 0.00349014 0.00325465 0.00297825 0.00265277 0.00225849 0.00109714 0.000652403 0.000125999 -0.000479827 -0.00115896 -0.00189825 -0.00267575 -0.00346055 -0.00421433 -0.00489447 -0.00545832 -0.00588327 -0.00569894 -0.00573099 -0.00556331 -0.00522647 -0.00476811 -0.00425007 -0.00374083 -0.00330636 -0.00300087 -0.00285929 -0.00289318 -0.00307355 -0.0029704 -0.00315687 -0.00335692 -0.00358356 -0.00382411 -0.00406231 -0.00428521 -0.00448423 -0.00465451 -0.00479386 -0.00490188 -0.00497942 -0.00502823 -0.00505073 0.00498021 0.00471999 0.00448661 0.00427609 0.00408008 0.00388687 0.00368262 0.00345252 0.00318194 0.00285724 0.00246639 0.00198648 0.000757713 0.000195863 -0.000473113 -0.00124851 -0.0021244 -0.00308596 -0.00410737 -0.0051514 -0.00617115 -0.00711358 -0.00792458 -0.00856703 -0.00832429 -0.00847609 -0.00834194 -0.00795167 -0.00735558 -0.00662397 -0.00584015 -0.00509083 -0.00445485 -0.00399235 -0.00373679 -0.00368003 -0.00371481 -0.00370212 -0.00378191 -0.00395047 -0.00417573 -0.00442558 -0.0046753 -0.00490812 -0.00511384 -0.00528702 -0.00542553 -0.00552947 -0.00560044 -0.00564108 0.00496771 0.00467294 0.00441207 0.00417951 0.00396424 0.00375117 0.00352257 0.00325956 0.00294329 0.00255577 0.00208047 0.00149128 0.000184956 -0.000525294 -0.00137423 -0.00236304 -0.00348584 -0.00472561 -0.0060517 -0.0074194 -0.00877176 -0.0100438 -0.0111686 -0.0120907 -0.0118043 -0.0121206 -0.0120517 -0.0116229 -0.0108841 -0.00991106 -0.0087995 -0.00765641 -0.00658743 -0.00568308 -0.0050064 -0.00458534 -0.0048106 -0.00448151 -0.00436593 -0.00442968 -0.0046132 -0.00486251 -0.00513622 -0.00540558 -0.00565232 -0.00586602 -0.0060417 -0.0061781 -0.00627635 -0.00633914 0.00476013 0.00443366 0.00414736 0.00389362 0.00365831 0.00342244 0.00316395 0.00285936 0.00248511 0.00201832 0.00143736 0.000712694 -0.000689125 -0.00158147 -0.00265073 -0.00390024 -0.00532386 -0.00690159 -0.00859675 -0.0103555 -0.0121091 -0.0137787 -0.0152831 -0.0165446 -0.0162696 -0.0167934 -0.0168266 -0.0163856 -0.0155158 -0.014293 -0.0128205 -0.0112214 -0.00962661 -0.00815957 -0.00691951 -0.00598895 -0.00641822 -0.00562085 -0.00520333 -0.00508911 -0.00518464 -0.00540771 -0.00569419 -0.00599819 -0.00628942 -0.00654968 -0.00676943 -0.00694497 -0.00707643 -0.00716634 0.00430184 0.0039485 0.00364009 0.00336663 0.0031105 0.00284845 0.00255367 0.00219776 0.00175201 0.0011882 0.00047904 -0.000408776 -0.00193238 -0.00304127 -0.00437198 -0.00593 -0.00770833 -0.00968276 -0.0118089 -0.0140217 -0.0162384 -0.0183643 -0.020302 -0.0219491 -0.0217851 -0.0225494 -0.0227209 -0.0223037 -0.0213339 -0.0198814 -0.0180495 -0.0159696 -0.0137919 -0.0116703 -0.00974398 -0.0081683 -0.00872441 -0.00728213 -0.00642229 -0.00602431 -0.00595895 -0.00611072 -0.00638603 -0.00671516 -0.00705035 -0.00736157 -0.00763201 -0.00785395 -0.00802561 -0.00814894 0.00353883 0.00316544 0.0028395 0.0025484 0.00227079 0.00197888 0.00164097 0.00122346 0.00069222 1.33761e-05 -0.00084643 -0.00192484 -0.00360395 -0.00496209 -0.00659291 -0.00850353 -0.010685 -0.013107 -0.0157153 -0.0184313 -0.0211555 -0.0237755 -0.0261767 -0.0282313 -0.0283088 -0.0293286 -0.029667 -0.029314 -0.0282928 -0.0266624 -0.0245175 -0.0219878 -0.019232 -0.0164271 -0.0137507 -0.0114435 -0.0119051 -0.00964336 -0.00817617 -0.00735641 -0.00702677 -0.00703764 -0.00726031 -0.00759391 -0.00796618 -0.00832976 -0.00865662 -0.00893256 -0.00915248 -0.00931707 0.00242458 0.00203983 0.00170217 0.00139621 0.00109672 0.000771405 0.000383591 -0.000105552 -0.000735621 -0.00154633 -0.00257723 -0.00387095 -0.00574379 -0.00737906 -0.00934202 -0.0116403 -0.0142612 -0.0171663 -0.0202885 -0.0235328 -0.0267815 -0.0299031 -0.0327653 -0.0352183 -0.0356668 -0.0369358 -0.0374554 -0.0372034 -0.0361897 -0.0344588 -0.0320909 -0.0292035 -0.0259516 -0.0225227 -0.0191252 -0.0160844 -0.0160732 -0.0128627 -0.0106244 -0.00922425 -0.0084984 -0.00827133 -0.00837806 -0.00868033 -0.00907359 -0.00948603 -0.0098731 -0.0102105 -0.0104876 -0.0107028 0.000926724 0.000540876 0.000198405 -0.000118926 -0.000440089 -0.000801771 -0.00124541 -0.00181488 -0.00255513 -0.00351155 -0.00472975 -0.00625777 -0.00836208 -0.0102941 -0.0126103 -0.015317 -0.0183954 -0.0217962 -0.025437 -0.0292043 -0.0329607 -0.036556 -0.0398418 -0.0426533 -0.0435625 -0.0450544 -0.0457523 -0.0456266 -0.0446768 -0.0429339 -0.0404607 -0.0373559 -0.0337589 -0.0298533 -0.0258639 -0.0221809 -0.0212355 -0.017038 -0.0139046 -0.0117688 -0.0104968 -0.009909 -0.00981211 -0.0100284 -0.0104139 -0.0108645 -0.0113121 -0.0117172 -0.0120609 -0.0123374 -0.000966607 -0.00134223 -0.00168172 -0.0020061 -0.00234783 -0.00274761 -0.00325125 -0.00390728 -0.00476556 -0.00587672 -0.00729185 -0.00906443 -0.0114309 -0.0136681 -0.0163436 -0.0194607 -0.0229919 -0.0268744 -0.0310083 -0.0352604 -0.039474 -0.0434824 -0.0471247 -0.0502305 -0.0516229 -0.0532977 -0.0541548 -0.0541639 -0.0533202 -0.0516453 -0.0491867 -0.046022 -0.0422677 -0.0380895 -0.0337101 -0.0295442 -0.027279 -0.0221741 -0.0181001 -0.0151084 -0.0131424 -0.0120544 -0.0116433 -0.0116978 -0.0120313 -0.0124993 -0.0130023 -0.0134793 -0.0138983 -0.0142472 -0.00324193 -0.00359558 -0.00392373 -0.00424998 -0.00460989 -0.00504766 -0.00561287 -0.00635807 -0.00733735 -0.00860581 -0.010219 -0.0122354 -0.0148808 -0.0174179 -0.0204421 -0.0239507 -0.0279058 -0.0322292 -0.0368023 -0.0414726 -0.0460662 -0.0504036 -0.054317 -0.0576395 -0.0594695 -0.0612807 -0.062266 -0.0624011 -0.0616837 -0.0601325 -0.0577845 -0.054699 -0.0509675 -0.0467279 -0.0421805 -0.0377151 -0.0339883 -0.0281657 -0.0232067 -0.0193065 -0.0165289 -0.0148023 -0.0139512 -0.0137486 -0.0139684 -0.0144208 -0.0149665 -0.0155154 -0.0160171 -0.0164494 -0.00585819 -0.00617848 -0.00648673 -0.00680885 -0.007183 -0.00765626 -0.00828125 -0.00911372 -0.0102111 -0.0116319 -0.0134348 -0.0156819 -0.0186034 -0.0214212 -0.0247659 -0.0286275 -0.032956 -0.037657 -0.042594 -0.0475972 -0.0524787 -0.0570512 -0.0611457 -0.0646059 -0.0667821 -0.0686837 -0.0697608 -0.0699999 -0.0694069 -0.0680033 -0.065822 -0.0629099 -0.059336 -0.0552064 -0.0506835 -0.0460878 -0.0410746 -0.0347961 -0.0291073 -0.0243372 -0.0206911 -0.0182141 -0.0167981 -0.0162305 -0.0162592 -0.0166495 -0.0172159 -0.0178314 -0.0184202 -0.0189459 -0.00874795 -0.00902465 -0.0093047 -0.00961599 -0.00999878 -0.0105023 -0.0111815 -0.0120944 -0.0133006 -0.0148609 -0.0168356 -0.0192884 -0.0224605 -0.0255265 -0.0291486 -0.0333086 -0.0379439 -0.0429451 -0.0481595 -0.0534032 -0.0584789 -0.0631961 -0.0673894 -0.0709174 -0.0733354 -0.0752868 -0.0764202 -0.0767346 -0.0762474 -0.0749866 -0.0729867 -0.0702886 -0.0669449 -0.0630317 -0.0586665 -0.0540772 -0.0482071 -0.0417542 -0.0355669 -0.0300612 -0.0255743 -0.0222898 -0.0202075 -0.0191676 -0.0189179 -0.0191877 -0.0197431 -0.0204131 -0.0210895 -0.0217165 -0.0118223 -0.0120471 -0.0122913 -0.0125847 -0.0129689 -0.0134948 -0.0142187 -0.0152001 -0.0164998 -0.0181793 -0.0202992 -0.022923 -0.0262975 -0.0295682 -0.0334134 -0.0378064 -0.0426735 -0.0478919 -0.0532964 -0.058693 -0.063879 -0.0686646 -0.0728908 -0.0764324 -0.0790018 -0.0809707 -0.0821302 -0.0824915 -0.0820828 -0.0809408 -0.079105 -0.076616 -0.0735171 -0.0698613 -0.0657244 -0.061243 -0.0550448 -0.048672 -0.0422524 -0.0362242 -0.0310152 -0.0269427 -0.02414 -0.0225404 -0.0219259 -0.0220094 -0.0225137 -0.0232191 -0.023979 -0.0247121 -0.0149787 -0.0151456 -0.0153477 -0.015616 -0.0159931 -0.0165309 -0.0172866 -0.01832 -0.0196923 -0.0214645 -0.0236963 -0.0264485 -0.0299582 -0.0333822 -0.0373893 -0.0419454 -0.0469677 -0.0523236 -0.057839 -0.0633135 -0.0685429 -0.0733403 -0.0775542 -0.0810733 -0.0837314 -0.0856948 -0.0868584 -0.0872424 -0.0868842 -0.0858284 -0.0841213 -0.0818073 -0.0789272 -0.0755205 -0.0716318 -0.0673265 -0.0612743 -0.0551764 -0.0487807 -0.0424843 -0.0367475 -0.0319887 -0.0284771 -0.026269 -0.0252183 -0.0250506 -0.0254581 -0.0261742 -0.0270084 -0.0278488 -0.0181108 -0.0182167 -0.018372 -0.0186083 -0.018969 -0.0195064 -0.0202778 -0.0213429 -0.0227623 -0.024596 -0.0269013 -0.0297349 -0.0332984 -0.0368198 -0.040925 -0.0455748 -0.0506803 -0.0561027 -0.0616627 -0.0671576 -0.0723833 -0.0771569 -0.0813333 -0.0848119 -0.0875239 -0.0894686 -0.090623 -0.0910124 -0.0906803 -0.0896779 -0.0880587 -0.0858731 -0.083165 -0.0799696 -0.0763148 -0.0722225 -0.0666438 -0.0609421 -0.0547773 -0.0484627 -0.0424333 -0.0371577 -0.033018 -0.0302043 -0.0286748 -0.0282012 -0.0284668 -0.029165 -0.0300601 -0.0310052 -0.0211181 -0.021163 -0.0212686 -0.021467 -0.0218018 -0.0223251 -0.0230939 -0.0241675 -0.0256053 -0.0274654 -0.0298029 -0.0326689 -0.0361957 -0.0397571 -0.0438978 -0.0485762 -0.0537007 -0.0591303 -0.064684 -0.0701592 -0.0753535 -0.0800868 -0.0842181 -0.0876534 -0.0904061 -0.0923273 -0.0934671 -0.0938515 -0.0935272 -0.0925503 -0.0909808 -0.0888764 -0.0862876 -0.0832533 -0.0797977 -0.0759261 -0.070984 -0.0657272 -0.0599291 -0.0538015 -0.0477118 -0.0421251 -0.0374948 -0.0341325 -0.0321188 -0.0313034 -0.0313877 -0.0320391 -0.0329791 -0.0340233 -0.0239151 -0.0239017 -0.0239569 -0.0241128 -0.0244126 -0.0249076 -0.0256542 -0.0267108 -0.0281356 -0.029985 -0.0323114 -0.0351603 -0.0385566 -0.0421009 -0.0462177 -0.0508659 -0.0559547 -0.0613443 -0.0668554 -0.0722868 -0.0774378 -0.0821297 -0.0862222 -0.0896231 -0.0924164 -0.0943171 -0.0954429 -0.095818 -0.0954894 -0.0945166 -0.0929651 -0.0909 -0.0883809 -0.0854552 -0.0821536 -0.078485 -0.0742099 -0.0693859 -0.064014 -0.0582095 -0.0522507 -0.0465562 -0.0416021 -0.0377911 -0.0353258 -0.0341565 -0.034031 -0.0346092 -0.0355773 -0.0367129 -0.0264372 -0.0263707 -0.0263771 -0.0264875 -0.026744 -0.0271966 -0.0279007 -0.0289137 -0.0302925 -0.0320922 -0.0343632 -0.0371461 -0.0403181 -0.0437902 -0.047828 -0.052394 -0.0574017 -0.0627155 -0.0681598 -0.073536 -0.0786442 -0.0833048 -0.0873749 -0.0907589 -0.0935985 -0.0954875 -0.0966051 -0.0969715 -0.0966321 -0.0956481 -0.0940898 -0.0920298 -0.0895371 -0.0866703 -0.0834725 -0.0799689 -0.0763081 -0.0718597 -0.0669062 -0.0614849 -0.0557834 -0.0501475 -0.0450338 -0.0408957 -0.0380402 -0.0365282 -0.036177 -0.0366609 -0.0376412 -0.0388603 -0.0286439 -0.0285317 -0.0284928 -0.0285566 -0.0287631 -0.0291602 -0.0298015 -0.0307432 -0.0320417 -0.0337514 -0.0359221 -0.0385906 -0.0414474 -0.0447946 -0.048703 -0.0531416 -0.058031 -0.0632424 -0.0686054 -0.0739243 -0.078999 -0.0836462 -0.0877168 -0.0911075 -0.0940001 -0.095891 -0.0970101 -0.0973722 -0.09702 -0.0960151 -0.0944316 -0.0923491 -0.0898459 -0.0869924 -0.0838462 -0.0804551 -0.0773177 -0.0731582 -0.068564 -0.0635168 -0.0581257 -0.0526557 -0.0475144 -0.0431672 -0.0399965 -0.0381689 -0.0375877 -0.0379619 -0.0389412 -0.0402369 -0.0305186 -0.03037 -0.0302912 -0.0303093 -0.0304607 -0.0307902 -0.0313489 -0.0321916 -0.0333745 -0.0349525 -0.036977 -0.0394834 -0.0419386 -0.0451108 -0.0488442 -0.0531165 -0.0578578 -0.0629478 -0.0682224 -0.0734885 -0.0785442 -0.0832006 -0.0872991 -0.0907241 -0.0936739 -0.0955844 -0.0967181 -0.0970839 -0.0967206 -0.0956897 -0.0940679 -0.091941 -0.0893957 -0.0865134 -0.0833659 -0.0800242 -0.0773127 -0.0733388 -0.069009 -0.0642714 -0.0591749 -0.0539098 -0.0488206 -0.0443544 -0.0409377 -0.0388274 -0.0380186 -0.0382718 -0.0392394 -0.0406073 -0.032067 -0.0318923 -0.0317808 -0.0317559 -0.031849 -0.0321003 -0.0325573 -0.033273 -0.0343039 -0.0357075 -0.0375388 -0.0398355 -0.0418085 -0.0447582 -0.0482757 -0.052349 -0.0569191 -0.0618754 -0.0670602 -0.0722824 -0.0773374 -0.0820281 -0.086184 -0.089674 -0.0926798 -0.0946309 -0.0957957 -0.0961768 -0.0958083 -0.0947503 -0.0930818 -0.0908931 -0.0882781 -0.0853276 -0.0821252 -0.0787629 -0.0763894 -0.0724885 -0.0683057 -0.0637723 -0.0588964 -0.0538076 -0.0487874 -0.044247 -0.0406296 -0.0382613 -0.0372264 -0.0373486 -0.0382956 -0.0397342 -0.0333123 -0.0331227 -0.0329872 -0.0329234 -0.0329567 -0.0331204 -0.0334571 -0.0340175 -0.0348593 -0.0360442 -0.0376347 -0.0396742 -0.0410913 -0.0437745 -0.0470403 -0.0508883 -0.055271 -0.0600875 -0.065186 -0.0703769 -0.0754513 -0.0802026 -0.0844464 -0.0880337 -0.0910867 -0.0931029 -0.0943187 -0.0947301 -0.0943663 -0.0932849 -0.0915654 -0.0893017 -0.086593 -0.0835369 -0.0802256 -0.0767674 -0.0746579 -0.0707126 -0.0665446 -0.0620805 -0.0573047 -0.0523033 -0.0473041 -0.0426775 -0.0388652 -0.0362424 -0.0349733 -0.0349506 -0.0358677 -0.0373785 -0.0342906 -0.0340983 -0.0339484 -0.0338516 -0.0338245 -0.0338921 -0.0340899 -0.0344659 -0.0350798 -0.0360008 -0.0373019 -0.0390377 -0.0398338 -0.0422108 -0.0451952 -0.048799 -0.0529855 -0.0576626 -0.0626836 -0.0678589 -0.0729743 -0.0778126 -0.0821747 -0.0858922 -0.0889742 -0.0910822 -0.0923721 -0.092833 -0.0924881 -0.0913916 -0.089622 -0.0872744 -0.0844514 -0.0812541 -0.0777795 -0.0741458 -0.0722373 -0.0681261 -0.0638296 -0.0592775 -0.0544443 -0.0493892 -0.0443008 -0.0395143 -0.0354629 -0.0325556 -0.0310251 -0.0308338 -0.0317086 -0.0332949 -0.0350463 -0.0348646 -0.0347111 -0.0345879 -0.0345005 -0.0344627 -0.0345016 -0.0346623 -0.0350081 -0.0356186 -0.0365824 -0.0379701 -0.0380907 -0.0401277 -0.042809 -0.0461582 -0.0501483 -0.0546938 -0.0596514 -0.0648301 -0.0700095 -0.0749612 -0.0794705 -0.0833509 -0.0864323 -0.0886606 -0.0900508 -0.0905839 -0.0902766 -0.0891781 -0.0873641 -0.0849287 -0.0819744 -0.0786029 -0.0749109 -0.0710188 -0.0692512 -0.0648476 -0.060269 -0.0554523 -0.0503723 -0.0450768 -0.0397319 -0.0346494 -0.0302572 -0.0269918 -0.0251449 -0.0247454 -0.0255585 -0.0272241 -0.0356284 -0.0354722 -0.0353275 -0.0351849 -0.0350361 -0.0348813 -0.0347383 -0.0346492 -0.0346842 -0.0349371 -0.0355176 -0.0365171 -0.0359216 -0.037593 -0.0399591 -0.0430536 -0.0468565 -0.0512863 -0.0562004 -0.061405 -0.0666725 -0.0717633 -0.0764474 -0.0805213 -0.0835613 -0.0859387 -0.087457 -0.0880881 -0.0878407 -0.0867577 -0.0849099 -0.0823872 -0.0792889 -0.0757129 -0.0717509 -0.0675153 -0.0658225 -0.060994 -0.0559682 -0.0506911 -0.0451455 -0.0393814 -0.0335589 -0.0279825 -0.0230863 -0.0193379 -0.0170834 -0.016414 -0.017135 -0.0188824 -0.036088 -0.0359752 -0.0358532 -0.035698 -0.03548