# vtk DataFile Version 2.0
Velocidades
ASCII

DATASET STRUCTURED_GRID
DIMENSIONS   50   50   20

POINTS   50000   double
0.00568455   0.00568455   0.025
0.0174023   0.00568455   0.025
0.0298294   0.00568455   0.025
0.0429888   0.00568455   0.025
0.0569012   0.00568455   0.025
0.0715849   0.00568455   0.025
0.0870549   0.00568455   0.025
0.103323   0.00568455   0.025
0.120395   0.00568455   0.025
0.138275   0.00568455   0.025
0.156961   0.00568455   0.025
0.176443   0.00568455   0.025
0.196707   0.00568455   0.025
0.217734   0.00568455   0.025
0.239496   0.00568455   0.025
0.261959   0.00568455   0.025
0.285082   0.00568455   0.025
0.308818   0.00568455   0.025
0.333113   0.00568455   0.025
0.357906   0.00568455   0.025
0.383132   0.00568455   0.025
0.408719   0.00568455   0.025
0.434592   0.00568455   0.025
0.460672   0.00568455   0.025
0.486877   0.00568455   0.025
0.513123   0.00568455   0.025
0.539328   0.00568455   0.025
0.565408   0.00568455   0.025
0.591281   0.00568455   0.025
0.616868   0.00568455   0.025
0.642094   0.00568455   0.025
0.666887   0.00568455   0.025
0.691182   0.00568455   0.025
0.714918   0.00568455   0.025
0.738041   0.00568455   0.025
0.760504   0.00568455   0.025
0.782266   0.00568455   0.025
0.803293   0.00568455   0.025
0.823557   0.00568455   0.025
0.843039   0.00568455   0.025
0.861725   0.00568455   0.025
0.879605   0.00568455   0.025
0.896677   0.00568455   0.025
0.912945   0.00568455   0.025
0.928415   0.00568455   0.025
0.943099   0.00568455   0.025
0.957011   0.00568455   0.025
0.970171   0.00568455   0.025
0.982598   0.00568455   0.025
0.994315   0.00568455   0.025
0.00568455   0.0174023   0.025
0.0174023   0.0174023   0.025
0.0298294   0.0174023   0.025
0.0429888   0.0174023   0.025
0.0569012   0.0174023   0.025
0.0715849   0.0174023   0.025
0.0870549   0.0174023   0.025
0.103323   0.0174023   0.025
0.120395   0.0174023   0.025
0.138275   0.0174023   0.025
0.156961   0.0174023   0.025
0.176443   0.0174023   0.025
0.196707   0.0174023   0.025
0.217734   0.0174023   0.025
0.239496   0.0174023   0.025
0.261959   0.0174023   0.025
0.285082   0.0174023   0.025
0.308818   0.0174023   0.025
0.333113   0.0174023   0.025
0.357906   0.0174023   0.025
0.383132   0.0174023   0.025
0.408719   0.0174023   0.025
0.434592   0.0174023   0.025
0.460672   0.0174023   0.025
0.486877   0.0174023   0.025
0.513123   0.0174023   0.025
0.539328   0.0174023   0.025
0.565408   0.0174023   0.025
0.591281   0.0174023   0.025
0.616868   0.0174023   0.025
0.642094   0.0174023   0.025
0.666887   0.0174023   0.025
0.691182   0.0174023   0.025
0.714918   0.0174023   0.025
0.738041   0.0174023   0.025
0.760504   0.0174023   0.025
0.782266   0.0174023   0.025
0.803293   0.0174023   0.025
0.823557   0.0174023   0.025
0.843039   0.0174023   0.025
0.861725   0.0174023   0.025
0.879605   0.0174023   0.025
0.896677   0.0174023   0.025
0.912945   0.0174023   0.025
0.928415   0.0174023   0.025
0.943099   0.0174023   0.025
0.957011   0.0174023   0.025
0.970171   0.0174023   0.025
0.982598   0.0174023   0.025
0.994315   0.0174023   0.025
0.00568455   0.0298294   0.025
0.0174023   0.0298294   0.025
0.0298294   0.0298294   0.025
0.0429888   0.0298294   0.025
0.0569012   0.0298294   0.025
0.0715849   0.0298294   0.025
0.0870549   0.0298294   0.025
0.103323   0.0298294   0.025
0.120395   0.0298294   0.025
0.138275   0.0298294   0.025
0.156961   0.0298294   0.025
0.176443   0.0298294   0.025
0.196707   0.0298294   0.025
0.217734   0.0298294   0.025
0.239496   0.0298294   0.025
0.261959   0.0298294   0.025
0.285082   0.0298294   0.025
0.308818   0.0298294   0.025
0.333113   0.0298294   0.025
0.357906   0.0298294   0.025
0.383132   0.0298294   0.025
0.408719   0.0298294   0.025
0.434592   0.0298294   0.025
0.460672   0.0298294   0.025
0.486877   0.0298294   0.025
0.513123   0.0298294   0.025
0.539328   0.0298294   0.025
0.565408   0.0298294   0.025
0.591281   0.0298294   0.025
0.616868   0.0298294   0.025
0.642094   0.0298294   0.025
0.666887   0.0298294   0.025
0.691182   0.0298294   0.025
0.714918   0.0298294   0.025
0.738041   0.0298294   0.025
0.760504   0.0298294   0.025
0.782266   0.0298294   0.025
0.803293   0.0298294   0.025
0.823557   0.0298294   0.025
0.843039   0.0298294   0.025
0.861725   0.0298294   0.025
0.879605   0.0298294   0.025
0.896677   0.0298294   0.025
0.912945   0.0298294   0.025
0.928415   0.0298294   0.025
0.943099   0.0298294   0.025
0.957011   0.0298294   0.025
0.970171   0.0298294   0.025
0.982598   0.0298294   0.025
0.994315   0.0298294   0.025
0.00568455   0.0429888   0.025
0.0174023   0.0429888   0.025
0.0298294   0.0429888   0.025
0.0429888   0.0429888   0.025
0.0569012   0.0429888   0.025
0.0715849   0.0429888   0.025
0.0870549   0.0429888   0.025
0.103323   0.0429888   0.025
0.120395   0.0429888   0.025
0.138275   0.0429888   0.025
0.156961   0.0429888   0.025
0.176443   0.0429888   0.025
0.196707   0.0429888   0.025
0.217734   0.0429888   0.025
0.239496   0.0429888   0.025
0.261959   0.0429888   0.025
0.285082   0.0429888   0.025
0.308818   0.0429888   0.025
0.333113   0.0429888   0.025
0.357906   0.0429888   0.025
0.383132   0.0429888   0.025
0.408719   0.0429888   0.025
0.434592   0.0429888   0.025
0.460672   0.0429888   0.025
0.486877   0.0429888   0.025
0.513123   0.0429888   0.025
0.539328   0.0429888   0.025
0.565408   0.0429888   0.025
0.591281   0.0429888   0.025
0.616868   0.0429888   0.025
0.642094   0.0429888   0.025
0.666887   0.0429888   0.025
0.691182   0.0429888   0.025
0.714918   0.0429888   0.025
0.738041   0.0429888   0.025
0.760504   0.0429888   0.025
0.782266   0.0429888   0.025
0.803293   0.0429888   0.025
0.823557   0.0429888   0.025
0.843039   0.0429888   0.025
0.861725   0.0429888   0.025
0.879605   0.0429888   0.025
0.896677   0.0429888   0.025
0.912945   0.0429888   0.025
0.928415   0.0429888   0.025
0.943099   0.0429888   0.025
0.957011   0.0429888   0.025
0.970171   0.0429888   0.025
0.982598   0.0429888   0.025
0.994315   0.0429888   0.025
0.00568455   0.0569012   0.025
0.0174023   0.0569012   0.025
0.0298294   0.0569012   0.025
0.0429888   0.0569012   0.025
0.0569012   0.0569012   0.025
0.0715849   0.0569012   0.025
0.0870549   0.0569012   0.025
0.103323   0.0569012   0.025
0.120395   0.0569012   0.025
0.138275   0.0569012   0.025
0.156961   0.0569012   0.025
0.176443   0.0569012   0.025
0.196707   0.0569012   0.025
0.217734   0.0569012   0.025
0.239496   0.0569012   0.025
0.261959   0.0569012   0.025
0.285082   0.0569012   0.025
0.308818   0.0569012   0.025
0.333113   0.0569012   0.025
0.357906   0.0569012   0.025
0.383132   0.0569012   0.025
0.408719   0.0569012   0.025
0.434592   0.0569012   0.025
0.460672   0.0569012   0.025
0.486877   0.0569012   0.025
0.513123   0.0569012   0.025
0.539328   0.0569012   0.025
0.565408   0.0569012   0.025
0.591281   0.0569012   0.025
0.616868   0.0569012   0.025
0.642094   0.0569012   0.025
0.666887   0.0569012   0.025
0.691182   0.0569012   0.025
0.714918   0.0569012   0.025
0.738041   0.0569012   0.025
0.760504   0.0569012   0.025
0.782266   0.0569012   0.025
0.803293   0.0569012   0.025
0.823557   0.0569012   0.025
0.843039   0.0569012   0.025
0.861725   0.0569012   0.025
0.879605   0.0569012   0.025
0.896677   0.0569012   0.025
0.912945   0.0569012   0.025
0.928415   0.0569012   0.025
0.943099   0.0569012   0.025
0.957011   0.0569012   0.025
0.970171   0.0569012   0.025
0.982598   0.0569012   0.025
0.994315   0.0569012   0.025
0.00568455   0.0715849   0.025
0.0174023   0.0715849   0.025
0.0298294   0.0715849   0.025
0.0429888   0.0715849   0.025
0.0569012   0.0715849   0.025
0.0715849   0.0715849   0.025
0.0870549   0.0715849   0.025
0.103323   0.0715849   0.025
0.120395   0.0715849   0.025
0.138275   0.0715849   0.025
0.156961   0.0715849   0.025
0.176443   0.0715849   0.025
0.196707   0.0715849   0.025
0.217734   0.0715849   0.025
0.239496   0.0715849   0.025
0.261959   0.0715849   0.025
0.285082   0.0715849   0.025
0.308818   0.0715849   0.025
0.333113   0.0715849   0.025
0.357906   0.0715849   0.025
0.383132   0.0715849   0.025
0.408719   0.0715849   0.025
0.434592   0.0715849   0.025
0.460672   0.0715849   0.025
0.486877   0.0715849   0.025
0.513123   0.0715849   0.025
0.539328   0.0715849   0.025
0.565408   0.0715849   0.025
0.591281   0.0715849   0.025
0.616868   0.0715849   0.025
0.642094   0.0715849   0.025
0.666887   0.0715849   0.025
0.691182   0.0715849   0.025
0.714918   0.0715849   0.025
0.738041   0.0715849   0.025
0.760504   0.0715849   0.025
0.782266   0.0715849   0.025
0.803293   0.0715849   0.025
0.823557   0.0715849   0.025
0.843039   0.0715849   0.025
0.861725   0.0715849   0.025
0.879605   0.0715849   0.025
0.896677   0.0715849   0.025
0.912945   0.0715849   0.025
0.928415   0.0715849   0.025
0.943099   0.0715849   0.025
0.957011   0.0715849   0.025
0.970171   0.0715849   0.025
0.982598   0.0715849   0.025
0.994315   0.0715849   0.025
0.00568455   0.0870549   0.025
0.0174023   0.0870549   0.025
0.0298294   0.0870549   0.025
0.0429888   0.0870549   0.025
0.0569012   0.0870549   0.025
0.0715849   0.0870549   0.025
0.0870549   0.0870549   0.025
0.103323   0.0870549   0.025
0.120395   0.0870549   0.025
0.138275   0.0870549   0.025
0.156961   0.0870549   0.025
0.176443   0.0870549   0.025
0.196707   0.0870549   0.025
0.217734   0.0870549   0.025
0.239496   0.0870549   0.025
0.261959   0.0870549   0.025
0.285082   0.0870549   0.025
0.308818   0.0870549   0.025
0.333113   0.0870549   0.025
0.357906   0.0870549   0.025
0.383132   0.0870549   0.025
0.408719   0.0870549   0.025
0.434592   0.0870549   0.025
0.460672   0.0870549   0.025
0.486877   0.0870549   0.025
0.513123   0.0870549   0.025
0.539328   0.0870549   0.025
0.565408   0.0870549   0.025
0.591281   0.0870549   0.025
0.616868   0.0870549   0.025
0.642094   0.0870549   0.025
0.666887   0.0870549   0.025
0.691182   0.0870549   0.025
0.714918   0.0870549   0.025
0.738041   0.0870549   0.025
0.760504   0.0870549   0.025
0.782266   0.0870549   0.025
[...]
POINT_DATA   50000
VECTORS Velocidades double

2.08118e-05 0.000339533 0
5.58482e-05 0.000698468 0
7.0728e-05 0.000956376 0
5.65988e-05 0.00117356 0
1.15564e-05 0.00136813 0
-6.38609e-05 0.00154374 0
-0.000168141 0.00169893 0
-0.000299126 0.00183094 0
-0.000454285 0.00193794 0
-0.000631315 0.00202083 0
-0.000829408 0.00208626 0
-0.00093921 0.00215655 0
-0.00105776 0.00231415 0
-0.00129924 0.00230015 0
-0.00155858 0.00218702 0
-0.00181934 0.00199866 0
-0.00207535 0.00174639 0
-0.00232161 0.00143688 0
-0.00255238 0.0010752 0
-0.00276054 0.000666619 0
-0.00293742 0.000217904 0
-0.00307314 -0.000261915 0
-0.00315744 -0.00076201 0
-0.00322288 -0.00127397 0
-0.00322121 -0.00181559 0
-0.0030997 -0.00228034 0
-0.00289417 -0.00266719 0
-0.00261153 -0.00295533 0
-0.00226355 -0.00312546 0
-0.0018682 -0.00316554 0
-0.00144803 -0.00307357 0
-0.00102761 -0.00285863 0
-0.000630351 -0.00254064 0
-0.000275399 -0.00214889 0
2.53484e-05 -0.00172048 0
0.000194349 -0.00130176 0
0.000303504 -0.000964482 0
0.000433101 -0.000549274 0
0.000513209 -0.000131196 0
0.000542173 0.000255596 0
0.000527474 0.000591789 0
0.000478647 0.000866395 0
0.000405562 0.00107371 0
0.000317864 0.00121141 0
0.00022487 0.0012791 0
0.000135716 0.00127699 0
5.96214e-05 0.00120404 0
5.96313e-06 0.00105442 0
-1.72786e-05 0.000808164 0
-1.02383e-05 0.000401685 0
7.03754e-05 0.000604285 0
0.000188621 0.00134898 0
0.000237817 0.00191142 0
0.000191819 0.00238924 0
4.93573e-05 0.00281649 0
-0.00018698 0.00320044 0
-0.000512626 0.00353805 0
-0.000920988 0.0038239 0
-0.00140412 0.00405479 0
-0.0019545 0.00423375 0
-0.0025688 0.00437675 0
-0.0028789 0.0045329 0
-0.0032488 0.00485198 0
-0.00403352 0.00482678 0
-0.00484049 0.00459502 0
-0.00564491 0.00420851 0
-0.00642987 0.0036913 0
-0.00717993 0.00305667 0
-0.00787726 0.002314 0
-0.00849996 0.00147288 0
-0.00902179 0.000545976 0
-0.00941329 -0.000449174 0
-0.00964385 -0.00149097 0
-0.00982218 -0.00256246 0
-0.00979019 -0.00369513 0
-0.0093897 -0.00468085 0
-0.00874759 -0.00550997 0
-0.00787966 -0.0061368 0
-0.00682129 -0.00651855 0
-0.00562548 -0.00662752 0
-0.0043581 -0.00645701 0
-0.00309065 -0.00602415 0
-0.00189176 -0.00536957 0
-0.000818345 -0.00455472 0
9.29329e-05 -0.00365894 0
0.00058776 -0.00278281 0
0.000921563 -0.00207043 0
0.00133963 -0.0011961 0
0.00158937 -0.000312524 0
0.0016801 0.000506163 0
0.00163545 0.00121842 0
0.00148437 0.00180078 0
0.00125699 0.00224088 0
0.000982948 0.0025332 0
0.000690973 0.0026759 0
0.000409191 0.00266788 0
0.000166015 0.00250476 0
-8.43995e-06 0.00217132 0
-8.29354e-05 0.00162477 0
-4.56516e-05 0.000754959 0
5.11609e-05 0.000471839 0
0.000148045 0.00125245 0
0.000185628 0.00191811 0
9.78178e-05 0.00250655 0
-0.000137966 0.00303628 0
-0.000526117 0.00351014 0
-0.00106262 0.00392354 0
-0.00173865 0.00427087 0
-0.00254283 0.00455017 0
-0.00346413 0.00476753 0
-0.00449569 0.00494464 0
-0.00501755 0.00513722 0
-0.00562598 0.00546536 0
-0.00691174 0.00544531 0
-0.00823265 0.00520015 0
-0.00955446 0.00478817 0
-0.0108474 0.00423662 0
-0.0120831 0.00355876 0
-0.0132298 0.00276228 0
-0.0142501 0.00185442 0
-0.0151004 0.000845667 0
-0.0157325 -0.000247794 0
-0.0160964 -0.00140448 0
-0.0163748 -0.00260608 0
-0.0163149 -0.00387098 0
-0.0156612 -0.00500764 0
-0.0146223 -0.00598602 0
-0.0132227 -0.00674897 0
-0.0115183 -0.00724288 0
-0.00959154 -0.00743047 0
-0.00754462 -0.00729815 0
-0.00548859 -0.00686013 0
-0.00353064 -0.00615897 0
-0.00176073 -0.00526338 0
-0.000239424 -0.00426556 0
0.000593051 -0.00328357 0
0.00115688 -0.00246544 0
0.0018682 -0.00147121 0
0.00230795 -0.00046095 0
0.00249511 0.000478253 0
0.00246642 0.00129737 0
0.00226705 0.00196867 0
0.00194489 0.00247691 0
0.00154779 0.00281401 0
0.00112242 0.00297523 0
0.000713987 0.00295581 0
0.00036588 0.00274676 0
0.000117384 0.00232869 0
-5.55588e-06 0.00166311 0
-1.68422e-05 0.000687654 0
2.37346e-05 0.000385787 0
6.00406e-05 0.00118965 0
2.83166e-05 0.00197289 0
-0.000144268 0.00270991 0
-0.000497707 0.00338887 0
-0.00104863 0.00399923 0
-0.0017989 0.00453075 0
-0.00274126 0.00497611 0
-0.00386336 0.00533438 0
-0.00515144 0.0056152 0
-0.00659328 0.0058456 0
-0.00732573 0.00608307 0
-0.00816397 0.00642093 0
-0.00992524 0.00640472 0
-0.0117341 0.00614171 0
-0.0135498 0.00569317 0
-0.015331 0.00508947 0
-0.0170355 0.004344 0
-0.0186173 0.00346238 0
-0.0200234 0.00244879 0
-0.0211933 0.0013108 0
-0.022061 6.27577e-05 0
-0.0225596 -0.00127364 0
-0.0229366 -0.00267575 0
-0.0228581 -0.004141 0
-0.021985 -0.0055063 0
-0.0205964 -0.00671166 0
-0.0187231 -0.00768214 0
-0.016437 -0.00834846 0
-0.0138445 -0.00865946 0
-0.0110777 -0.00859132 0
-0.00828117 -0.00815351 0
-0.00559606 -0.00739082 0
-0.00314328 -0.00638173 0
-0.00100895 -0.00523523 0
0.000166313 -0.00408968 0
0.00096933 -0.00310274 0
0.00199573 -0.00192342 0
0.00265551 -0.000722872 0
0.00297849 0.000396971 0
0.00301339 0.00137677 0
0.00281928 0.0021821 0
0.00245918 0.00279294 0
0.00199637 0.00319709 0
0.00149216 0.00338585 0
0.00100409 0.00335059 0
0.000583396 0.00307979 0
0.000270029 0.00255679 0
8.35117e-05 0.00176124 0
1.13839e-05 0.00068236 0
-1.13369e-06 0.000358672 0
-3.65183e-05 0.00121586 0
-0.00017257 0.0021333 0
-0.000471046 0.00304572 0
-0.000976456 0.0039105 0
-0.00171392 0.004698 0
-0.00269214 0.00538757 0
-0.00390761 0.00596738 0
-0.00534886 0.0064361 0
-0.00700014 0.00680594 0
-0.00884348 0.00710725 0
-0.00978086 0.00739534 0
-0.0108416 0.00774162 0
-0.0130622 0.00772663 0
-0.0153408 0.00744131 0
-0.0176324 0.00694601 0
-0.0198861 0.0062728 0
-0.0220474 0.0054349 0
-0.0240563 0.00443556 0
-0.025845 0.00327542 0
-0.0273372 0.00195857 0
-0.028451 0.000497335 0
-0.029104 -0.00108554 0
-0.0295896 -0.00275953 0
-0.0295111 -0.00449668 0
-0.0284659 -0.00617 0
-0.0267849 -0.00768235 0
-0.0245019 -0.00893553 0
-0.0216995 -0.00983996 0
-0.0185018 -0.0103263 0
-0.015065 -0.0103567 0
-0.011563 -0.00993338 0
-0.00816841 -0.00910275 0
-0.00503317 -0.00795417 0
-0.00227202 -0.00661572 0
-0.000746629 -0.00524815 0
0.000310004 -0.0040252 0
0.00168775 -0.00259324 0
0.00260881 -0.00113814 0
0.0031143 0.000222232 0
0.00326431 0.0014164 0
0.00312984 0.00240126 0
0.00278647 0.00315028 0
0.00230987 0.00364609 0
0.00177239 0.00387591 0
0.00123989 0.00382873 0
0.000768089 0.00349421 0
0.000397987 0.002864 0
0.000151355 0.00193745 0
3.01515e-05 0.000733921 0
-2.3089e-05 0.000390393 0
-0.000131621 0.00136287 0
-0.000389001 0.00244948 0
-0.000842144 0.00356649 0
-0.00153092 0.00464879 0
-0.00248223 0.00564806 0
-0.00370862 0.00653091 0
-0.00520984 0.00727848 0
-0.00697568 0.00788703 0
-0.00898893 0.00836939 0
-0.0112266 0.00875689 0
-0.0123631 0.00910056 0
-0.0136406 0.00945453 0
-0.0163105 0.00943695 0
-0.0190479 0.00912399 0
-0.0218045 0.00857196 0
-0.0245222 0.00781258 0
-0.0271363 0.00685802 0
-0.0295747 0.00570873 0
-0.0317561 0.00436132 0
-0.0335904 0.00281601 0
-0.034981 0.00108292 0
-0.0358317 -0.000813264 0
-0.0364495 -0.00283143 0
-0.0364011 -0.00491676 0
-0.0352502 -0.00698015 0
-0.0333488 -0.00888338 0
-0.0307294 -0.0105009 0
-0.0274786 -0.0117182 0
-0.0237318 -0.012443 0
-0.0196645 -0.0126188 0
-0.0154764 -0.0122368 0
-0.0113714 -0.0113427 0
-0.00753488 -0.0100365 0
-0.00411448 -0.00846651 0
-0.00222231 -0.00681871 0
-0.000889038 -0.00529049 0
0.000892365 -0.00353552 0
0.00212983 -0.00175961 0
0.00287518 -9.74438e-05 0
0.00319885 0.00136632 0
0.00318201 0.0025785 0
0.00291047 0.0035048 0
0.00246971 0.00412211 0
0.00194063 0.00441401 0
0.00139572 0.00436883 0
0.000895398 0.00397985 0
0.000485162 0.00324785 0
0.000194743 0.0021861 0
4.11188e-05 0.000826451 0
-4.31046e-05 0.00048082 0
-0.000223584 0.00164993 0
-0.000609409 0.00296013 0
-0.00123452 0.00432115 0
-0.00213024 0.00565451 0
-0.00331983 0.00689736 0
-0.00481549 0.00800435 0
-0.00661777 0.00894861 0
-0.00871679 0.00972239 0
-0.0110939 0.0103373 0
-0.0137223 0.0108236 0
-0.0150537 0.0112274 0
-0.0165443 0.0115898 0
-0.0196591 0.0115658 0
-0.0228517 0.0112194 0
-0.0260711 0.0106011 0
-0.0292544 0.00974045 0
-0.0323293 0.0086472 0
-0.0352141 0.00731827 0
-0.037817 0.00574572 0
-0.0400357 0.00392527 0
-0.0417605 0.00186444 0
-0.0428814 -0.000410015 0
-0.0436715 -0.00284551 0
-0.0436982 -0.00536131 0
-0.0425329 -0.00790104 0
-0.0405037 -0.0102855 0
-0.0376351 -0.0123593 0
-0.0340097 -0.0139788 0
-0.0297674 -0.0150223 0
-0.0250978 -0.0154085 0
-0.0202251 -0.0151122 0
-0.0153858 -0.0141741 0
-0.0108032 -0.0127025 0
-0.00666401 -0.0108665 0
-0.00437286 -0.00888087 0
-0.00272707 -0.00697559 0
-0.000468845 -0.00482411 0
0.00115869 -0.00265806 0
0.00221676 -0.000629673 0
0.00278449 0.00116273 0
0.00295134 0.00265489 0
0.00281146 0.00380377 0
0.00245855 0.00458004 0
0.00198112 0.004964 0
0.0014584 0.00494413 0
0.000957204 0.00451764 0
0.000530352 0.00369249 0
0.000217213 0.00248997 0
4.66045e-05 0.000946112 0
-6.19187e-05 0.000631393 0
-0.00031271 0.00209115 0
-0.000829344 0.00369532 0
-0.00163574 0.00535216 0
-0.002754 0.0069763 0
-0.00420069 0.00849542 0
-0.00598406 0.0098549 0
-0.00810261 0.0110208 0
-0.010545 0.0119808 0
-0.0132909 0.0127443 0
-0.0163105 0.0133395 0
-0.0178352 0.0138079 0
-0.0195379 0.014181 0
-0.023099 0.0141478 0
-0.0267512 0.013763 0
-0.0304415 0.0130709 0
-0.0341046 0.012097 0
-0.037664 0.0108475 0
-0.041032 0.00931492 0
-0.044109 0.00748578 0
-0.0467832 0.0053502 0
-0.0489329 0.00291183 0
-0.0504325 0.000198166 0
-0.0514547 -0.0027284 0
-0.0516199 -0.00576465 0
-0.0505636 -0.00887296 0
-0.0485263 -0.011839 0
-0.0455155 -0.0144771 0
-0.0416002 -0.016609 0
-0.0369164 -0.0180766 0
-0.0316632 -0.0187649 0
-0.0260882 -0.0186236 0
-0.0204637 -0.0176819 0
-0.0150577 -0.0160523 0
-0.0101042 -0.0139235 0
-0.00736063 -0.0115434 0
-0.00534877 -0.00918446 0
-0.00251224 -0.00655918 0
-0.000395226 -0.00392954 0
0.00107099 -0.00146527 0
0.00197169 0.000721514 0
0.00240248 0.00255446 0
0.00246447 0.00398058 0
0.00225898 0.00496347 0
0.00188244 0.00547976 0
0.00142208 0.00551777 0
0.000952979 0.00507771 0
0.000536861 0.0041724 0
0.000222629 0.00282776 0
4.81704e-05 0.00108188 0
-7.99707e-05 0.000844715 0
-0.000399577 0.00269878 0
-0.0010472 0.00467981 0
-0.00203924 0.00669585 0
-0.00338923 0.00865839 0
-0.00510587 0.0104899 0
-0.00719117 0.01213 0
-0.00963917 0.0135398 0
-0.0124355 0.0147036 0
-0.0155571 0.0156285 0
-0.0189725 0.0163407 0
-0.0206909 0.0168782 0
-0.0226075 0.0172661 0
-0.0266234 0.0172233 0
-0.0307484 0.016798 0
-0.0349298 0.0160284 0
-0.0391026 0.0149353 0
-0.0431898 0.0135201 0
-0.0471019 0.0117696 0
-0.0507351 0.00966334 0
-0.0539706 0.00718392 0
-0.056675 0.00432827 0
-0.0587044 0.00112097 0
-0.0600419 -0.00237055 0
-0.0604304 -0.00602685 0
-0.0596461 -0.00980377 0
-0.0577553 -0.0134662 0
-0.0547366 -0.0167993 0
-0.0506331 -0.0195842 0
-0.0455675 -0.0216161 0
-0.0397432 -0.022735 0
-0.0334303 -0.0228538 0
-0.026941 -0.0219794 0
-0.020596 -0.0202212 0
-0.0146892 -0.0177853 0
-0.0114136 -0.0149558 0
-0.00895937 -0.0120586 0
-0.00540496 -0.00887778 0
-0.00266339 -0.00570604 0
-0.000661454 -0.00272841 0
0.000688387 -7.09531e-05 0
0.00148527 0.00217611 0
0.0018362 0.00394771 0
0.00185047 0.00519857 0
0.00163378 0.00590035 0
0.00128324 0.00604014 0
0.000884093 0.00561981 0
0.000508159 0.00465552 0
0.000213795 0.00317677 0
4.67391e-05 0.00122446 0
-9.75106e-05 0.00112405 0
-0.000484639 0.00348432 0
-0.0012624 0.00593499 0
-0.00244143 0.00838345 0
-0.00402771 0.0107399 0
-0.00602195 0.0129248 0
-0.00841886 0.0148753 0
-0.0112066 0.0165506 0
-0.0143663 0.0179335 0
-0.0178722 0.0190305 0
-0.0216911 0.0198668 0
-0.0236055 0.020479 0
-0.0257408 0.0208883 0
-0.0302274 0.0208399 0
-0.0348486 0.0203773 0
-0.0395547 0.0195339 0
-0.0442848 0.0183252 0
-0.0489659 0.0167472 0
-0.053511 0.0147794 0
-0.0578163 0.0123921 0
-0.0617584 0.00955674 0
-0.0651915 0.00625862 0
-0.067949 0.0025127 0
-0.0697099 -0.00161699 0
-0.0704313 -0.00600433 0
-0.0701285 -0.0105594 0
-0.0685811 -0.0150525 0
-0.0657233 -0.0192421 0
-0.0615581 -0.0228606 0
-0.0561842 -0.0256443 0
-0.049802 -0.0273725 0
-0.0427027 -0.0279053 0
-0.0352422 -0.0272124 0
-0.0278039 -0.0253886 0
-0.0207555 -0.0226513 0
-0.0168394 -0.0193222 0
-0.0138392 -0.0157901 0
-0.00937765 -0.0119684 0
-0.00582812 -0.00817017 0
-0.00311857 -0.00459053 0
-0.00116535 -0.00137023 0
0.000130666 0.00138298 0
0.000881671 0.00358793 0
0.00120616 0.00518729 0
0.00122137 0.00614543 0
0.00103699 0.0064466 0
0.000750787 0.00609321 0
0.000446356 0.0051042 0
0.000192372 0.00351306 0
4.2821e-05 0.00136527 0
-0.000114671 0.00147293 0
-0.000568149 0.00445869 0
-0.00147459 0.00747981 0
-0.00284001 0.010442 0
-0.0046638 0.0132549 0
-0.00693911 0.0158393 0
-0.00965319 0.018133 0
-0.0127877 0.0200962 0
-0.0163189 0.0217136 0
-0.020218 0.0229931 0
-0.0244508 0.0239616 0
-0.0265643 0.0246562 0
-0.0289257 0.0250974 0
-0.0339068 0.0250531 0
-0.0390584 0.0245651 0
-0.0443375 0.0236629 0
-0.0496918 0.0223571 0
-0.0550573 0.0206372 0
-0.0603545 0.0184736 0
-0.0654838 0.0158239 0
-0.0703185 0.0126429 0
-0.0746995 0.00889648 0
-0.078432 0.00457974 0
-0.0807483 -0.00025925 0
-0.0819372 -0.00550085 0
-0.0823763 -0.0109544 0
-0.0814168 -0.0164374 0
-0.07893 -0.0216838 0
-0.074863 -0.0263673 0
-0.0692781 -0.0301497 0
-0.0623641 -0.0327308 0
-0.0544289 -0.0338969 0
-0.045874 -0.03356 0
-0.0371544 -0.0317826 0
-0.028728 -0.0287821 0
-0.0240355 -0.0249141 0
-0.020355 -0.0206375 0
-0.0147343 -0.0160893 0
-0.0101301 -0.0115744 0
-0.00648243 -0.00728818 0
-0.00372133 -0.00338936 0
-0.00175234 -1.05264e-05 0
-0.000458496 0.00274406 0
0.000290175 0.00479972 0
0.000626 0.00611015 0
0.000674979 0.00665474 0
0.000550871 0.00643565 0
0.000351842 0.00547477 0
0.000159079 0.00381073 0
3.66669e-05 0.00149579 0
-0.000131497 0.00189488 0
-0.000650114 0.00563191 0
-0.00168325 0.00933083 0
-0.00323296 0.0128946 0
-0.00529289 0.0162325 0
-0.00784932 0.0192673 0
-0.0108824 0.0219404 0
-0.0143675 0.0242166 0
-0.0182762 0.0260854 0
-0.022577 0.0275598 0
-0.0272357 0.0286711 0
-0.0295517 0.0294602 0
-0.0321486 0.0299491 0
-0.0376557 0.0299281 0
-0.0433823 0.0294389 0
-0.0492971 0.0285089 0
-0.0553614 0.0271444 0
-0.0615257 0.0253276 0
-0.0677233 0.023017 0
-0.0738617 0.0201525 0
-0.0798127 0.0166642 0
-0.0854009 0.0124873 0
-0.0903968 0.00758354 0
-0.0934191 0.00196851 0
-0.0952324 -0.004261 0
-0.0967238 -0.0107452 0
-0.0966441 -0.0174076 0
-0.094782 -0.0239568 0
-0.0910141 -0.0299955 0
-0.0853529 -0.0350936 0
-0.0779638 -0.0388497 0
-0.0691629 -0.0409512 0
-0.0593945 -0.0412253 0
-0.04919 -0.0396771 0
-0.0391127 -0.0365032 0
-0.0334886 -0.0320818 0
-0.0289624 -0.0269422 0
-0.0218548 -0.0215911 0
-0.01587 -0.0162639 0
-0.0109804 -0.0111439 0
-0.00714441 -0.00641675 0
-0.00427813 -0.00225337 0
-0.00225962 0.00120738 0
-0.000943861 0.00386554 0
-0.000178386 0.00565927 0
0.000184463 0.00656073 0
0.000279368 0.00657116 0
0.000223389 0.00571607 0
0.000113921 0.00404091 0
2.83657e-05 0.00160705 0
-0.00014795 0.00239305 0
-0.000730238 0.00701255 0
-0.00188729 0.0115018 0
-0.00361771 0.0157598 0
-0.00591003 0.0196961 0
-0.00874445 0.0232368 0
-0.0120949 0.0263295 0
-0.0159311 0.028947 0
-0.0202206 0.0310876 0
-0.0249302 0.0327731 0
-0.0300267 0.0340428 0
-0.0325483 0.034945 0
-0.0353915 0.0355055 0
-0.041462 0.0355389 0
-0.0478171 0.0350891 0
-0.0544423 0.0341832 0
-0.0613184 0.0328241 0
-0.0684155 0.0309852 0
-0.0756842 0.0286095 0
-0.083042 0.0256115 0
-0.0903582 0.021886 0
-0.0974382 0.0173237 0
-0.104011 0.0118353 0
-0.107897 0.00538519 0
-0.110504 -0.00197023 0
-0.113397 -0.00963033 0
-0.114526 -0.0176948 0
-0.113582 -0.0258409 0
-0.11036 -0.0335864 0
-0.104808 -0.0403918 0
-0.0970557 -0.0457329 0
-0.0874113 -0.0491696 0
-0.07635 -0.0504121 0
-0.064476 -0.0493731 0
-0.0524657 -0.0461963 0
-0.0457562 -0.0412569 0
-0.040193 -0.0351446 0
-0.0311845 -0.02894 0
-0.0234006 -0.0227004 0
-0.0168804 -0.0165874 0
-0.0116304 -0.0108342 0
-0.00758416 -0.00567293 0
-0.00461368 -0.00129432 0
-0.00255391 0.00216483 0
-0.00122555 0.00462055 0
-0.000452225 0.00603474 0
-7.1605e-05 0.00640706 0
5.82872e-05 0.00576761 0
5.63498e-05 0.00417065 0
1.79008e-05 0.00168926 0
-0.000163898 0.00296982 0
-0.000807833 0.00860689 0
-0.00208485 0.0140024 0
-0.00399042 0.0190508 0
-0.00650866 0.0236624 0
-0.00961456 0.0277682 0
-0.0132768 0.0313248 0
-0.0174606 0.0343163 0
-0.0221307 0.0367539 0
-0.0272534 0.0386723 0
-0.0327982 0.0401231 0
-0.035527 0.0411655 0
-0.0386276 0.0418319 0
-0.0453019 0.041966 0
-0.0523438 0.0416165 0
-0.0597612 0.0408121 0
-0.0675594 0.0395525 0
-0.0757331 0.0378006 0
-0.084253 0.0354777 0
-0.0930474 0.0324637 0
-0.101981 0.0286043 0
-0.110836 0.0237282 0
-0.119294 0.0176772 0
-0.124186 0.0103452 0
-0.127756 0.00173313 0
-0.132409 -0.00726304 0
-0.13509 -0.016985 0
-0.135381 -0.0270643 0
-0.132992 -0.0369212 0
-0.1278 -0.0458936 0
-0.119878 -0.0533148 0
-0.109506 -0.0585912 0
-0.0971646 -0.0612801 0
-0.0835109 -0.0611581 0
-0.0693273 -0.0582692 0
-0.0614161 -0.0529411 0
-0.0546126 -0.0457947 0
-0.0432019 -0.0387364 0
-0.0331059 -0.0314794 0
-0.0244801 -0.0241713 0
-0.0174023 -0.0171317 0
-0.0118311 -0.0106882 0
-0.00763112 -0.00510837 0
-0.00461173 -0.000581515 0
-0.00255891 0.00277728 0
-0.00125896 0.00491543 0
-0.000513529 0.00583012 0
-0.000147919 0.0055571 0
-1.47938e-05 0.0041617 0
5.15022e-06 0.00173158 0
-0.000179098 0.00362632 0
-0.000881717 0.0104176 0
-0.00227291 0.0168368 0
-0.00434539 0.0227736 0
-0.00707956 0.0281396 0
-0.0104462 0.0328726 0
-0.0144099 0.0369411 0
-0.0189328 0.040344 0
-0.0239783 0.0431098 0
-0.0295138 0.0452904 0
-0.0355131 0.0469539 0
-0.0384484 0.0481743 0
-0.0418158 0.0489932 0
-0.049132 0.049292 0
-0.0569172 0.0491265 0
-0.0652062 0.0485289 0
-0.0740334 0.0474952 0
-0.0834209 0.045974 0
-0.09336 0.0438576 0
-0.103788 0.0409783 0
-0.11456 0.0371164 0
-0.125429 0.0320209 0
-0.136028 0.0254468 0
-0.142034 0.017203 0
-0.146706 0.00722709 0
-0.153444 -0.00328313 0
-0.157986 -0.0149432 0
-0.159822 -0.0273166 0
-0.158579 -0.0397191 0
-0.154062 -0.0513604 0
-0.14627 -0.0614217 0
-0.135425 -0.0691368 0
-0.121972 -0.073877 0
-0.106581 -0.0752349 0
-0.0901034 -0.0730935 0
-0.0809676 -0.067666 0
-0.0727376 -0.0595461 0
-0.0583592 -0.0517121 0
-0.0453667 -0.0433275 0
-0.0340917 -0.0345721 0
-0.0247075 -0.0259127 0
-0.017206 -0.0178191 0
-0.0114465 -0.0106677 0
-0.0072085 -0.00472203 0
-0.00423611 -0.000140757 0
-0.00226917 0.00300275 0
-0.00106356 0.00470123 0
-0.000402522 0.00499692 0
-0.000101701 0.00396856 0
-1.02013e-05 0.00172154 0
-0.000193173 0.00436174 0
-0.000950111 0.0124424 0
-0.00244705 0.0200015 0
-0.00467447 0.0269242 0
-0.00760987 0.0331243 0
-0.0112209 0.0385489 0
-0.0154696 0.0431806 0
-0.0203163 0.0470375 0
-0.0257248 0.0501689 0
-0.0316654 0.0526491 0
-0.0381178 0.0545669 0
-0.0412552 0.056015 0
-0.0448946 0.0570465 0
-0.0528812 0.0575928 0
-0.0614543 0.0577184 0
-0.0706792 0.05746 0
-0.0806213 0.0568085 0
-0.0913295 0.0556926 0
-0.102813 0.0539643 0
-0.115013 0.0513938 0
-0.127768 0.0476778 0
-0.140796 0.0424687 0
-0.153682 0.0354221 0
-0.160841 0.0262563 0
-0.166696 0.0148507 0
-0.175736 0.00262777 0
-0.182358 -0.0112586 0
-0.185986 -0.0262795 0
-0.186193 -0.0416491 0
-0.182713 -0.0564563 0
-0.175464 -0.0697361 0
-0.164571 -0.080546 0
-0.150396 -0.0880516 0
-0.133548 -0.0916183 0
-0.114883 -0.0908999 0
-0.104667 -0.0859076 0
-0.0948916 -0.0771125 0
-0.0769872 -0.0686793 0
-0.0605121 -0.059059 0
-0.0460255 -0.0485644 0
-0.0338176 -0.0378857 0
-0.0239307 -0.0276887 0
-0.0162286 -0.0185 0
-0.0104645 -0.0106862 0
-0.00633707 -0.00446878 0
-0.00353162 4.76489e-05 0
-0.00174831 0.00284717 0
-0.00071774 0.00397823 0
-0.000208459 0.00353505 0
-2.88505e-05 0.00164395 0
-0.000205603 0.00517262 0
-0.00101058 0.0146718 0
-0.00260128 0.0234825 0
-0.00496668 0.0314856 0
-0.00808244 0.0385987 0
-0.0119144 0.0447796 0
-0.0164234 0.0500288 0
-0.0215698 0.0543867 0
-0.027319 0.057928 0
-0.033646 0.0607533 0
-0.0405379 0.0629771 0
-0.0438678 0.0647142 0
-0.0477771 0.0660313 0
-0.056443 0.0669247 0
-0.0658241 0.0674688 0
-0.0760168 0.0677044 0
-0.0871158 0.0676135 0
-0.0991933 0.0670963 0
-0.112269 0.0659512 0
-0.126277 0.0638684 0
-0.141032 0.0604443 0
-0.156212 0.0552213 0
-0.171356 0.0477519 0
-0.179617 0.0376714 0