# vtk DataFile Version 2.0
Presion
ASCII

DATASET STRUCTURED_GRID
DIMENSIONS   50   50   20

POINTS   50000   double
0.00568455   0.00568455   0.025
0.0174023   0.00568455   0.025
0.0298294   0.00568455   0.025
0.0429888   0.00568455   0.025
0.0569012   0.00568455   0.025
0.0715849   0.00568455   0.025
0.0870549   0.00568455   0.025
0.103323   0.00568455   0.025
0.120395   0.00568455   0.025
0.138275   0.00568455   0.025
0.156961   0.00568455   0.025
0.176443   0.00568455   0.025
0.196707   0.00568455   0.025
0.217734   0.00568455   0.025
0.239496   0.00568455   0.025
0.261959   0.00568455   0.025
0.285082   0.00568455   0.025
0.308818   0.00568455   0.025
0.333113   0.00568455   0.025
0.357906   0.00568455   0.025
0.383132   0.00568455   0.025
0.408719   0.00568455   0.025
0.434592   0.00568455   0.025
0.460672   0.00568455   0.025
0.486877   0.00568455   0.025
0.513123   0.00568455   0.025
0.539328   0.00568455   0.025
0.565408   0.00568455   0.025
0.591281   0.00568455   0.025
0.616868   0.00568455   0.025
0.642094   0.00568455   0.025
0.666887   0.00568455   0.025
0.691182   0.00568455   0.025
0.714918   0.00568455   0.025
0.738041   0.00568455   0.025
0.760504   0.00568455   0.025
0.782266   0.00568455   0.025
0.803293   0.00568455   0.025
0.823557   0.00568455   0.025
0.843039   0.00568455   0.025
0.861725   0.00568455   0.025
0.879605   0.00568455   0.025
0.896677   0.00568455   0.025
0.912945   0.00568455   0.025
0.928415   0.00568455   0.025
0.943099   0.00568455   0.025
0.957011   0.00568455   0.025
0.970171   0.00568455   0.025
0.982598   0.00568455   0.025
0.994315   0.00568455   0.025
0.00568455   0.0174023   0.025
0.0174023   0.0174023   0.025
0.0298294   0.0174023   0.025
0.0429888   0.0174023   0.025
0.0569012   0.0174023   0.025
0.0715849   0.0174023   0.025
0.0870549   0.0174023   0.025
0.103323   0.0174023   0.025
0.120395   0.0174023   0.025
0.138275   0.0174023   0.025
0.156961   0.0174023   0.025
0.176443   0.0174023   0.025
0.196707   0.0174023   0.025
0.217734   0.0174023   0.025
0.239496   0.0174023   0.025
0.261959   0.0174023   0.025
0.285082   0.0174023   0.025
0.308818   0.0174023   0.025
0.333113   0.0174023   0.025
0.357906   0.0174023   0.025
0.383132   0.0174023   0.025
0.408719   0.0174023   0.025
0.434592   0.0174023   0.025
0.460672   0.0174023   0.025
0.486877   0.0174023   0.025
0.513123   0.0174023   0.025
0.539328   0.0174023   0.025
0.565408   0.0174023   0.025
0.591281   0.0174023   0.025
0.616868   0.0174023   0.025
0.642094   0.0174023   0.025
0.666887   0.0174023   0.025
0.691182   0.0174023   0.025
0.714918   0.0174023   0.025
0.738041   0.0174023   0.025
0.760504   0.0174023   0.025
0.782266   0.0174023   0.025
0.803293   0.0174023   0.025
0.823557   0.0174023   0.025
0.843039   0.0174023   0.025
0.861725   0.0174023   0.025
0.879605   0.0174023   0.025
0.896677   0.0174023   0.025
0.912945   0.0174023   0.025
0.928415   0.0174023   0.025
0.943099   0.0174023   0.025
0.957011   0.0174023   0.025
0.970171   0.0174023   0.025
0.982598   0.0174023   0.025
0.994315   0.0174023   0.025
0.00568455   0.0298294   0.025
0.0174023   0.0298294   0.025
0.0298294   0.0298294   0.025
0.0429888   0.0298294   0.025
0.0569012   0.0298294   0.025
0.0715849   0.0298294   0.025
0.0870549   0.0298294   0.025
0.103323   0.0298294   0.025
0.120395   0.0298294   0.025
0.138275   0.0298294   0.025
0.156961   0.0298294   0.025
0.176443   0.0298294   0.025
0.196707   0.0298294   0.025
0.217734   0.0298294   0.025
0.239496   0.0298294   0.025
0.261959   0.0298294   0.025
0.285082   0.0298294   0.025
0.308818   0.0298294   0.025
0.333113   0.0298294   0.025
0.357906   0.0298294   0.025
0.383132   0.0298294   0.025
0.408719   0.0298294   0.025
0.434592   0.0298294   0.025
0.460672   0.0298294   0.025
0.486877   0.0298294   0.025
0.513123   0.0298294   0.025
0.539328   0.0298294   0.025
0.565408   0.0298294   0.025
0.591281   0.0298294   0.025
0.616868   0.0298294   0.025
0.642094   0.0298294   0.025
0.666887   0.0298294   0.025
0.691182   0.0298294   0.025
0.714918   0.0298294   0.025
0.738041   0.0298294   0.025
0.760504   0.0298294   0.025
0.782266   0.0298294   0.025
0.803293   0.0298294   0.025
0.823557   0.0298294   0.025
0.843039   0.0298294   0.025
0.861725   0.0298294   0.025
0.879605   0.0298294   0.025
0.896677   0.0298294   0.025
0.912945   0.0298294   0.025
0.928415   0.0298294   0.025
0.943099   0.0298294   0.025
0.957011   0.0298294   0.025
0.970171   0.0298294   0.025
0.982598   0.0298294   0.025
0.994315   0.0298294   0.025
0.00568455   0.0429888   0.025
0.0174023   0.0429888   0.025
0.0298294   0.0429888   0.025
0.0429888   0.0429888   0.025
0.0569012   0.0429888   0.025
0.0715849   0.0429888   0.025
0.0870549   0.0429888   0.025
0.103323   0.0429888   0.025
0.120395   0.0429888   0.025
0.138275   0.0429888   0.025
0.156961   0.0429888   0.025
0.176443   0.0429888   0.025
0.196707   0.0429888   0.025
0.217734   0.0429888   0.025
0.239496   0.0429888   0.025
0.261959   0.0429888   0.025
0.285082   0.0429888   0.025
0.308818   0.0429888   0.025
0.333113   0.0429888   0.025
0.357906   0.0429888   0.025
0.383132   0.0429888   0.025
0.408719   0.0429888   0.025
0.434592   0.0429888   0.025
0.460672   0.0429888   0.025
0.486877   0.0429888   0.025
0.513123   0.0429888   0.025
0.539328   0.0429888   0.025
0.565408   0.0429888   0.025
0.591281   0.0429888   0.025
0.616868   0.0429888   0.025
0.642094   0.0429888   0.025
0.666887   0.0429888   0.025
0.691182   0.0429888   0.025
0.714918   0.0429888   0.025
0.738041   0.0429888   0.025
0.760504   0.0429888   0.025
0.782266   0.0429888   0.025
0.803293   0.0429888   0.025
0.823557   0.0429888   0.025
0.843039   0.0429888   0.025
0.861725   0.0429888   0.025
0.879605   0.0429888   0.025
0.896677   0.0429888   0.025
0.912945   0.0429888   0.025
0.928415   0.0429888   0.025
0.943099   0.0429888   0.025
0.957011   0.0429888   0.025
0.970171   0.0429888   0.025
0.982598   0.0429888   0.025
0.994315   0.0429888   0.025
0.00568455   0.0569012   0.025
0.0174023   0.0569012   0.025
0.0298294   0.0569012   0.025
0.0429888   0.0569012   0.025
0.0569012   0.0569012   0.025
0.0715849   0.0569012   0.025
0.0870549   0.0569012   0.025
0.103323   0.0569012   0.025
0.120395   0.0569012   0.025
0.138275   0.0569012   0.025
0.156961   0.0569012   0.025
0.176443   0.0569012   0.025
0.196707   0.0569012   0.025
0.217734   0.0569012   0.025
0.239496   0.0569012   0.025
0.261959   0.0569012   0.025
0.285082   0.0569012   0.025
0.308818   0.0569012   0.025
0.333113   0.0569012   0.025
0.357906   0.0569012   0.025
0.383132   0.0569012   0.025
0.408719   0.0569012   0.025
0.434592   0.0569012   0.025
0.460672   0.0569012   0.025
0.486877   0.0569012   0.025
0.513123   0.0569012   0.025
0.539328   0.0569012   0.025
0.565408   0.0569012   0.025
0.591281   0.0569012   0.025
0.616868   0.0569012   0.025
0.642094   0.0569012   0.025
0.666887   0.0569012   0.025
0.691182   0.0569012   0.025
0.714918   0.0569012   0.025
0.738041   0.0569012   0.025
0.760504   0.0569012   0.025
0.782266   0.0569012   0.025
0.803293   0.0569012   0.025
0.823557   0.0569012   0.025
0.843039   0.0569012   0.025
0.861725   0.0569012   0.025
0.879605   0.0569012   0.025
0.896677   0.0569012   0.025
0.912945   0.0569012   0.025
0.928415   0.0569012   0.025
0.943099   0.0569012   0.025
0.957011   0.0569012   0.025
0.970171   0.0569012   0.025
0.982598   0.0569012   0.025
0.994315   0.0569012   0.025
0.00568455   0.0715849   0.025
0.0174023   0.0715849   0.025
0.0298294   0.0715849   0.025
0.0429888   0.0715849   0.025
0.0569012   0.0715849   0.025
0.0715849   0.0715849   0.025
0.0870549   0.0715849   0.025
0.103323   0.0715849   0.025
0.120395   0.0715849   0.025
0.138275   0.0715849   0.025
0.156961   0.0715849   0.025
0.176443   0.0715849   0.025
0.196707   0.0715849   0.025
0.217734   0.0715849   0.025
0.239496   0.0715849   0.025
0.261959   0.0715849   0.025
0.285082   0.0715849   0.025
0.308818   0.0715849   0.025
0.333113   0.0715849   0.025
0.357906   0.0715849   0.025
0.383132   0.0715849   0.025
0.408719   0.0715849   0.025
0.434592   0.0715849   0.025
0.460672   0.0715849   0.025
0.486877   0.0715849   0.025
0.513123   0.0715849   0.025
0.539328   0.0715849   0.025
0.565408   0.0715849   0.025
0.591281   0.0715849   0.025
0.616868   0.0715849   0.025
0.642094   0.0715849   0.025
0.666887   0.0715849   0.025
0.691182   0.0715849   0.025
0.714918   0.0715849   0.025
0.738041   0.0715849   0.025
0.760504   0.0715849   0.025
0.782266   0.0715849   0.025
0.803293   0.0715849   0.025
0.823557   0.0715849   0.025
0.843039   0.0715849   0.025
0.861725   0.0715849   0.025
0.879605   0.0715849   0.025
0.896677   0.0715849   0.025
0.912945   0.0715849   0.025
0.928415   0.0715849   0.025
0.943099   0.0715849   0.025
0.957011   0.0715849   0.025
0.970171   0.0715849   0.025
0.982598   0.0715849   0.025
0.994315   0.0715849   0.025
0.00568455   0.0870549   0.025
0.0174023   0.0870549   0.025
0.0298294   0.0870549   0.025
0.0429888   0.0870549   0.025
0.0569012   0.0870549   0.025
0.0715849   0.0870549   0.025
0.0870549   0.0870549   0.025
0.103323   0.0870549   0.025
0.120395   0.0870549   0.025
0.138275   0.0870549   0.025
0.156961   0.0870549   0.025
0.176443   0.0870549   0.025
0.196707   0.0870549   0.025
0.217734   0.0870549   0.025
0.239496   0.0870549   0.025
0.261959   0.0870549   0.025
0.285082   0.0870549   0.025
0.308818   0.0870549   0.025
0.333113   0.0870549   0.025
0.357906   0.0870549   0.025
0.383132   0.0870549   0.025
0.408719   0.0870549   0.025
0.434592   0.0870549   0.025
0.460672   0.0870549   0.025
0.486877   0.0870549   0.025
0.513123   0.0870549   0.025
0.539328   0.0870549   0.025
0.565408   0.0870549   0.025
0.591281   0.0870549   0.025
0.616868   0.0870549   0.025
0.642094   0.0870549   0.025
0.666887   0.0870549   0.025
0.691182   0.0870549   0.025
0.714918   0.0870549   0.025
0.738041   0.0870549   0.025
0.760504   0.0870549   0.025
0.782266   0.0870549   0.025
[...]
POINT_DATA   50000
SCALARS Presion double
LOOKUP_TABLE   Presion

0 0 0 0 0 0 0 0 0 0 0 0 0 0 0 0 0 0 0 0 0 0 0 0 0 0 0 0 0 0 0 0 0 0 0 0 0 0 0 0 0 0 0 0 0 0 0 0 0 0 -0.0011389 -0.00124669 -0.00139839 -0.00153729 -0.00165243 -0.00174328 -0.00181111 -0.00185731 -0.00188315 -0.00188992 -0.00187905 -0.00185244 -0.00185326 -0.00180152 -0.00172959 -0.00163871 -0.00152985 -0.00140389 -0.00126171 -0.00110442 -0.000933397 -0.000750361 -0.000557325 -0.000356517 -0.000160146 4.50764e-05 0.000250831 0.000454159 0.00065227 0.000842592 0.00102283 0.00119103 0.00134568 0.00148578 0.0016109 0.00172117 0.0018572 0.00193972 0.00199981 0.00203783 0.00205377 0.00204736 0.00201816 0.00196563 0.00188917 0.00178795 0.00166119 0.00151002 0.00134643 0.00123104 -0.00145448 -0.00144971 -0.00150928 -0.0015901 -0.00167045 -0.00174051 -0.00179599 -0.00183507 -0.00185706 -0.00186184 -0.00184944 -0.00182033 -0.0018362 -0.00178366 -0.00171273 -0.00162354 -0.00151666 -0.00139274 -0.00125263 -0.0010974 -0.000928392 -0.000747284 -0.000555991 -0.000356603 -0.00016378 3.99067e-05 0.000244019 0.000445736 0.000642295 0.000831108 0.00100984 0.00117648 0.00132939 0.00146729 0.00158907 0.00169377 0.00184087 0.00191931 0.00197684 0.00201327 0.00202872 0.00202343 0.00199783 0.00195269 0.00188939 0.00181048 0.00172104 0.00163195 0.00156661 0.0015711 -0.00161866 -0.00159195 -0.00160887 -0.00165056 -0.00170138 -0.00175088 -0.00179265 -0.00182291 -0.00183943 -0.00184087 -0.00182616 -0.00179525 -0.00182442 -0.00177115 -0.00170081 -0.00161298 -0.00150779 -0.00138573 -0.00124753 -0.00109418 -0.000927014 -0.000747635 -0.000557912 -0.000359989 -0.000170028 3.24337e-05 0.00023533 0.000435907 0.000631413 0.000819236 0.000996994 0.00116259 0.00131425 0.00145046 0.00156971 0.00167094 0.00182856 0.00190428 0.0019602 0.00199606 0.00201222 0.00200946 0.00198903 0.00195285 0.00190388 0.00184675 0.00178876 0.00174139 0.00172137 0.00174854 -0.00170769 -0.00168511 -0.00168705 -0.00170733 -0.00173756 -0.00177015 -0.00179915 -0.00182032 -0.00183064 -0.00182797 -0.00181057 -0.00177816 -0.00181843 -0.0017646 -0.00169464 -0.00160784 -0.00150407 -0.00138361 -0.00124707 -0.00109538 -0.000929789 -0.000751869 -0.000563457 -0.000366806 -0.000179034 2.25931e-05 0.000224777 0.000424771 0.000619817 0.000807267 0.000984677 0.00114987 0.00130093 0.00143617 0.00155393 0.00165345 0.00182079 0.00189523 0.00195061 0.0019869 0.00200478 0.00200553 0.00199106 0.00196409 0.0019284 0.00188912 0.00185304 0.0018285 0.00182425 0.00184643 -0.00175978 -0.00174675 -0.0017462 -0.00175676 -0.0017746 -0.00179505 -0.00181365 -0.0018266 -0.00183083 -0.00182388 -0.00180365 -0.00176991 -0.00181906 -0.00176481 -0.00169506 -0.00160901 -0.00150635 -0.00138719 -0.00125201 -0.00110166 -0.000937314 -0.000760492 -0.000573022 -0.000377252 -0.000191019 1.02748e-05 0.000212343 0.000412413 0.000607697 0.000795498 0.000973302 0.00113884 0.00129009 0.00142527 0.00154269 0.00164203 0.00181836 0.00189284 0.00194873 0.00198635 0.00200672 0.00201152 0.00200309 0.00198453 0.00195972 0.00193331 0.00191047 0.00189629 0.00189457 0.00190625 -0.00179448 -0.00179064 -0.00179242 -0.0017998 -0.00181118 -0.00182389 -0.00183488 -0.00184118 -0.00184004 -0.00182909 -0.00180618 -0.00177123 -0.00182734 -0.00177272 -0.00170304 -0.00161747 -0.00151559 -0.00139738 -0.0012632 -0.00111379 -0.000950266 -0.000774084 -0.000587059 -0.000391611 -0.000206287 -4.69823e-06 0.000197962 0.000398879 0.000595217 0.000784215 0.000963281 0.00113005 0.00128242 0.00141855 0.00153683 0.00163735 0.00182222 0.00189792 0.00195527 0.00199497 0.00201833 0.00202731 0.00202446 0.00201289 0.00199618 0.00197809 0.00196224 0.00195147 0.00194722 0.00194901 -0.00182265 -0.00182641 -0.00183195 -0.00183943 -0.00184811 -0.00185645 -0.00186244 -0.00186384 -0.00185842 -0.00184407 -0.00181879 -0.00178274 -0.00184439 -0.00178938 -0.00171962 -0.00163428 -0.00153284 -0.00141519 -0.00128158 -0.00113264 -0.000969422 -0.00079332 -0.00060612 -0.00041028 -0.000225237 -2.25942e-05 0.000181491 0.000384151 0.000582489 0.000773667 0.000955 0.00112403 0.00127859 0.00141679 0.00153711 0.00164 0.0018334 0.00191134 0.001971 0.00201336 0.00203998 0.00205298 0.00205493 0.00204877 0.00203759 0.00202434 0.00201149 0.00200066 0.00199239 0.00198614 -0.001851 -0.00186078 -0.00187017 -0.0018792 -0.00188738 -0.00189369 -0.00189675 -0.0018949 -0.00188636 -0.00186935 -0.00184212 -0.00180507 -0.00187146 -0.001816 -0.001746 -0.0016606 -0.00155925 -0.00144173 -0.0013082 -0.0011592 -0.000995686 -0.000818999 -0.000630881 -0.000433804 -0.000248391 -4.3802e-05 0.000162675 0.000368115 0.000569545 0.000764036 0.000948798 0.00112127 0.0012792 0.00142068 0.00154424 0.0016506 0.00185299 0.00193408 0.00199676 0.00204224 0.00207223 0.00208891 0.00209479 0.00209256 0.00208486 0.00207402 0.00206183 0.00204937 0.00203699 0.00202443 -0.00188412 -0.00189863 -0.00191153 -0.00192265 -0.0019315 -0.00193728 -0.00193893 -0.00193517 -0.00192457 -0.00190565 -0.00187689 -0.00183897 -0.00190988 -0.00185388 -0.00178345 -0.00169772 -0.00159608 -0.00147824 -0.00134426 -0.0011946 -0.00103011 -0.000852081 -0.000662188 -0.000462906 -0.000276426 -6.88648e-05 0.000141114 0.000350523 0.000556301 0.000755406 0.000944929 0.00112219 0.00128483 0.00143089 0.00155892 0.0016698 0.00188211 0.00196721 0.00203356 0.00208251 0.00211588 0.00213585 0.00214484 0.00214531 0.00213957 0.00212956 0.00211675 0.00210204 0.00208586 0.0020683 -0.00192542 -0.00194371 -0.00195971 -0.00197304 -0.00198315 -0.0019893 -0.00199059 -0.00198593 -0.00197414 -0.00195395 -0.00192405 -0.00188538 -0.0019611 -0.00190447 -0.00183343 -0.00174708 -0.00164476 -0.00152612 -0.00139113 -0.00124015 -0.00107395 -0.000893719 -0.000701089 -0.000498521 -0.000310211 -9.85194e-05 0.000116222 0.000330956 0.000542515 0.000747726 0.000943532 0.0011271 0.00129595 0.00144802 0.00158182 0.00169831 0.00192196 0.0020119 0.00208253 0.00213529 0.00217204 0.00219495 0.00220637 0.0022086 0.00220374 0.00219357 0.00217943 0.00216226 0.00214265 0.00212097 -0.00197767 -0.00199911 -0.00201784 -0.00203336 -0.00204501 -0.00205207 -0.00205365 -0.00204881 -0.00203648 -0.00201554 -0.00198484 -0.00194552 -0.00202672 -0.00196937 -0.00189753 -0.00181027 -0.0017069 -0.00158697 -0.00145037 -0.00129737 -0.00112865 -0.000945295 -0.000748874 -0.000541834 -0.000350853 -0.00013374 8.71831e-05 0.000308776 0.000527748 0.000740768 0.000944598 0.00113622 0.00131297 0.00147265 0.00161364 0.00173693 0.00197374 0.00206945 0.00214502 0.00220193 0.0022421 0.0022677 0.00228102 0.00228432 0.00227963 0.00226866 0.0022528 0.00223308 0.00221029 0.00218503 -0.00204329 -0.0020675 -0.00208874 -0.00210638 -0.00211972 -0.00212798 -0.00213029 -0.00212573 -0.00211332 -0.00209203 -0.00206078 -0.00202091 -0.0021085 -0.00205035 -0.00197754 -0.0018891 -0.00178428 -0.00166257 -0.00152377 -0.00136803 -0.00119592 -0.00100846 -0.00080711 -0.000594316 -0.000399749 -0.000175791 5.28953e-05 0.000283074 0.000511308 0.000734079 0.000947926 0.0011496 0.00133619 0.00150529 0.00165509 0.00178657 0.00203875 0.00214126 0.00222252 0.00228404 0.00232776 0.0023559 0.00237078 0.00237467 0.00236963 0.00235744 0.00233958 0.00231724 0.00229139 0.00226279 -0.00212459 -0.00215138 -0.002175 -0.00219476 -0.00220987 -0.00221951 -0.00222281 -0.00221886 -0.00220669 -0.00218531 -0.00215369 -0.00211337 -0.00220839 -0.00214938 -0.00207544 -0.00198556 -0.00187894 -0.00175497 -0.00161335 -0.00145414 -0.00127777 -0.00108517 -0.000877691 -0.000657772 -0.000458638 -0.000226285 1.19109e-05 0.000252605 0.00049219 0.000726921 0.000953068 0.00116708 0.00136575 0.00154638 0.00170688 0.00184817 0.0021183 0.00222888 0.00231674 0.00238344 0.00243097 0.00246165 0.00247788 0.00248203 0.00247628 0.00246254 0.00244245 0.00241736 0.00238839 0.00235648 -0.00222386 -0.00225319 -0.00227919 -0.00230108 -0.00231804 -0.00232921 -0.00233368 -0.00233054 -0.00231881 -0.00229754 -0.00226569 -0.00222499 -0.00232856 -0.00226864 -0.00219344 -0.0021019 -0.00199314 -0.00186647 -0.00172146 -0.00155804 -0.00137654 -0.00117773 -0.000962881 -0.000734394 -0.000529672 -0.000287257 -3.7642e-05 0.000215709 0.000468992 0.000718195 0.000959261 0.00118827 0.00140162 0.00159624 0.0017697 0.00192276 0.00221381 0.00233397 0.00242958 0.00250221 0.00255398 0.00258731 0.0026048 0.00260898 0.00260223 0.00258664 0.00256405 0.002536 0.00250376 0.00246841 -0.00234345 -0.0023754 -0.00240386 -0.00242798 -0.00244689 -0.0024597 -0.00246548 -0.00246329 -0.00245217 -0.00243113 -0.00239916 -0.00235816 -0.00247141 -0.00241056 -0.002334 -0.00224062 -0.00212943 -0.00199965 -0.00185071 -0.00168242 -0.00149493 -0.00128887 -0.00106538 -0.000826828 -0.000615491 -0.000361251 -9.81545e-05 0.000170208 0.000439813 0.000706336 0.000965325 0.0012124 0.0014435 0.00165503 0.00184411 0.00201134 0.00232669 0.00245831 0.00256309 0.00264265 0.00269924 0.00273549 0.00275425 0.00275829 0.00275026 0.00273252 0.00270712 0.0026758 0.00264001 0.00260095 -0.00248586 -0.0025206 -0.00255166 -0.00257814 -0.00259914 -0.00261372 -0.00262093 -0.00261982 -0.00260941 -0.00258872 -0.00255672 -0.00251551 -0.00263958 -0.00257781 -0.00249983 -0.00240448 -0.00229065 -0.00215743 -0.00200412 -0.00183033 -0.00163606 -0.00142176 -0.00118837 -0.000938253 -0.000719313 -0.000451422 -0.000172652 0.000113284 0.000402122 0.000689179 0.000969537 0.00123827 0.00149069 0.00172261 0.00193056 0.00211484 0.0024584 0.00260379 0.00271952 0.00280726 0.00286946 0.00290904 0.00292913 0.0029329 0.00292332 0.00290306 0.00287445 0.00283947 0.00279973 0.00275657 -0.00265374 -0.00269149 -0.00272534 -0.00275437 -0.00277761 -0.00279411 -0.00280288 -0.00280297 -0.00279339 -0.00277316 -0.00274122 -0.00269991 -0.00283594 -0.00277328 -0.0026939 -0.00259652 -0.00247992 -0.00234305 -0.00218502 -0.00200525 -0.00180353 -0.00158007 -0.00133563 -0.00107247 -0.00084503 -0.000561655 -0.00026493 4.1322e-05 0.000352588 0.000663786 0.000969455 0.001264 0.00154199 0.00179846 0.00202919 0.00223407 0.00261029 0.00277234 0.00290124 0.00299877 0.00306759 0.003111 0.00313258 0.00313593 0.00312446 0.00310125 0.00306894 0.00302977 0.00298558 0.00293784 -0.00284985 -0.00289089 -0.0029278 -0.0029596 -0.00298528 -0.00300386 -0.00301434 -0.00301575 -0.00300713 -0.00298746 -0.0029557 -0.00291443 -0.00306355 -0.00300012 -0.00291942 -0.00282006 -0.00270069 -0.00256008 -0.00239715 -0.00221108 -0.0020014 -0.00176806 -0.00151153 -0.00123397 -0.000997314 -0.000696694 -0.000379715 -5.02723e-05 0.000286878 0.000626224 0.000961686 0.00128688 0.00159546 0.00188146 0.00213973 0.00236954 0.00278359 0.00296587 0.00311074 0.00322005 0.00329678 0.00334468 0.00336791 0.00337066 0.00335689 0.00333015 0.00329351 0.00324953 0.00320026 0.00314732 -0.00307714 -0.0031218 -0.00316206 -0.00319688 -0.00322523 -0.00324608 -0.00325844 -0.00326133 -0.00325379 -0.00323483 -0.0032034 -0.00316234 -0.0033257 -0.00326167 -0.00317983 -0.00307866 -0.00295667 -0.00281243 -0.00264463 -0.00245217 -0.00223428 -0.00199057 -0.00172117 -0.00142806 -0.00118172 -0.000862281 -0.000522835 -0.000167286 0.000199404 0.000571286 0.00094159 0.00130301 0.00164809 0.00196964 0.00226123 0.00252133 0.00297918 0.00318618 0.00335052 0.00347414 0.00356037 0.00361358 0.00363864 0.00364051 0.00362386 0.00359287 0.0035511 0.00350149 0.00344636 0.00338753 -0.00333863 -0.00338729 -0.00343125 -0.0034694 -0.00350067 -0.00352402 -0.00353844 -0.00354297 -0.00353668 -0.0035186 -0.00348768 -0.00344708 -0.0036258 -0.00356143 -0.00347873 -0.00337608 -0.00325181 -0.00310427 -0.00293189 -0.00273326 -0.00250724 -0.00225303 -0.00197034 -0.00166089 -0.00140477 -0.00106528 -0.0007014 -0.000316933 8.30349e-05 0.000492143 0.000902897 0.00130694 0.00169547 0.00205976 0.00239179 0.00268881 0.00319738 0.00343478 0.00362305 0.00376415 0.00386188 0.00392136 0.0039484 0.00394897 0.00392865 0.00389243 0.00384449 0.00378822 0.0037263 0.0036607 -0.00363747 -0.00369057 -0.00373861 -0.00378044 -0.00381493 -0.00384102 -0.00385771 -0.00386407 -0.00385921 -0.0038422 -0.00381203 -0.00377219 -0.00396735 -0.00390298 -0.00381985 -0.00371622 -0.00359023 -0.00344 -0.00326366 -0.00305945 -0.00282581 -0.00256146 -0.00226556 -0.00193948 -0.00167399 -0.00131378 -0.000923969 -0.000508096 -7.12341e-05 0.000379943 0.000837225 0.0012911 0.0017312 0.00214688 0.00252805 0.00287023 0.00343756 0.00371261 0.00393054 0.00409321 0.00420494 0.00427182 0.00430093 0.00429951 0.00427439 0.00423159 0.00417609 0.00411187 0.00404198 0.00396863 -0.00397689 -0.00403492 -0.0040875 -0.00413339 -0.00417142 -0.00420051 -0.0042197 -0.0042281 -0.00422487 -0.00420915 -0.00417999 -0.00414125 -0.00435387 -0.00428994 -0.00420694 -0.00410299 -0.00397608 -0.00382408 -0.0036448 -0.00343607 -0.00319586 -0.00292233 -0.00261399 -0.0022717 -0.00199793 -0.00161713 -0.00120066 -0.000751548 -0.000274615 0.000223339 0.000733493 0.00124515 0.00174614 0.00222352 0.00266449 0.00306215 0.00369756 0.00401965 0.00427471 0.00446428 0.00459321 0.00466886 0.00469994 0.00469546 0.00466389 0.00461262 0.00454769 0.00447382 0.0043945 0.00431221 -0.00436018 -0.0044237 -0.00448132 -0.0045317 -0.00457363 -0.00460602 -0.00462795 -0.00463858 -0.00463717 -0.00462297 -0.0045951 -0.00455787 -0.00478881 -0.00472582 -0.00464362 -0.00454023 -0.00441346 -0.00426094 -0.00408015 -0.0038685 -0.00362341 -0.00334241 -0.00302324 -0.00266614 -0.00238597 -0.00198589 -0.00154319 -0.0010601 -0.000540841 7.99191e-06 0.000577224 0.00115507 0.00172744 0.00227862 0.00279244 0.00325852 0.00397273 0.00435418 0.0046563 0.00487985 0.00503021 0.00511629 0.005149 0.00513978 0.00509933 0.0050369 0.00495995 0.00487414 0.00478355 0.00469092 -0.00479066 -0.00486034 -0.00492357 -0.00497893 -0.00502515 -0.00506114 -0.00508602 -0.00509907 -0.00509966 -0.00508717 -0.00506087 -0.00502553 -0.00527543 -0.00521392 -0.00513329 -0.00503149 -0.00490617 -0.00475472 -0.0045743 -0.0043619 -0.00411435 -0.00382847 -0.00350115 -0.00313182 -0.00284813 -0.00243156 -0.00196471 -0.00144859 -0.00088637 -0.000283896 0.000349776 0.00100211 0.00165714 0.00229607 0.0028985 0.00344921 0.00425446 0.00471161 0.00507425 0.00534151 0.00551904 0.0056177 0.00565136 0.00563479 0.00558185 0.00550437 0.00541173 0.00531085 0.00520655 0.00510187 -0.00527174 -0.00534834 -0.00541784 -0.00547872 -0.00552964 -0.00556953 -0.00559757 -0.00561315 -0.00561584 -0.0056052 -0.00558066 -0.00554757 -0.00581669 -0.00575718 -0.00567893 -0.00557985 -0.00545749 -0.00530902 -0.00513131 -0.00492091 -0.00467408 -0.00438689 -0.00405528 -0.00367776 -0.00339455 -0.00296618 -0.00247944 -0.00193367 -0.00133036 -0.000673903 2.75786e-05 0.000761501 0.00151046 0.00225247 0.00296218 0.00361771 0.00452761 0.00508239 0.00552412 0.00584879 0.00606176 0.00617609 0.00620965 0.00618188 0.00611111 0.00601287 0.00589921 0.00577882 0.00565743 0.00553848 -0.00580688 -0.00589132 -0.00596786 -0.00603487 -0.00609093 -0.00613498 -0.00616629 -0.00618444 -0.00618919 -0.00618039 -0.00615768 -0.00612704 -0.00641513 -0.00635803 -0.00628293 -0.00618774 -0.00606996 -0.00592663 -0.00575434 -0.00554924 -0.00530707 -0.00502314 -0.00469243 -0.00431238 -0.00403483 -0.00360154 -0.00310189 -0.0025331 -0.00189427 -0.00118736 -0.00041842 0.00040116 0.00125358 0.00211421 0.00295231 0.00373724 0.00476651 0.0054482 0.00599498 0.00639705 0.006658 0.00679312 0.00682547 0.00678108 0.00668474 0.00655736 0.00641487 0.00626837 0.00612493 0.00598846 -0.00639972 -0.00649307 -0.00657756 -0.00665138 -0.00671303 -0.00676145 -0.00679604 -0.00681659 -0.00682318 -0.00681595 -0.00679489 -0.00676667 -0.00707276 -0.00701825 -0.00694688 -0.00685666 -0.0067451 -0.00660917 -0.00644527 -0.00624925 -0.00601636 -0.00574122 -0.00541786 -0.00504266 -0.00477711 -0.00434817 -0.00384576 -0.00326462 -0.00260078 -0.00185268 -0.00102278 -0.000119404 0.000841196 0.00183334 0.00282154 0.00376436 0.00492831 0.00577518 0.00646326 0.00697255 0.00730174 0.00746734 0.00749869 0.00743092 0.00729829 0.00712964 0.00694663 0.00676395 0.00659056 0.00643113 -0.00705414 -0.00715772 -0.00725122 -0.00733261 -0.00740027 -0.00745318 -0.00749086 -0.0075134 -0.00752125 -0.00751498 -0.007495 -0.00746877 -0.00779092 -0.00773879 -0.00767141 -0.00758698 -0.00748312 -0.00735682 -0.00720441 -0.0070215 -0.00680299 -0.00654294 -0.00623457 -0.0058732 -0.00562693 -0.0052139 -0.00472224 -0.00414409 -0.00347191 -0.00269964 -0.00182447 -0.000849276 0.000214287 0.00134269 0.00249829 0.00362816 0.00494251 0.00600136 0.00688011 0.00754166 0.00797347 0.0081896 0.00822558 0.00812844 0.00794601 0.00771916 0.00747832 0.00724363 0.00702697 0.00683436 -0.00777442 -0.00788985 -0.00799363 -0.00808344 -0.00815753 -0.00821484 -0.00825513 -0.00827884 -0.00828691 -0.00828045 -0.00826042 -0.00823517 -0.00857021 -0.00851967 -0.00845601 -0.00837776 -0.00828273 -0.00816804 -0.00803007 -0.00786437 -0.00766558 -0.00742742 -0.00714249 -0.00680522 -0.00658609 -0.0062024 -0.00573806 -0.00518296 -0.00452602 -0.00375617 -0.00286396 -0.00184434 -0.000700572 0.00055099 0.00187615 0.00321316 0.00469484 0.00601392 0.00714584 0.00802666 0.00862084 0.00893047 0.00899292 0.00886832 0.00862317 0.0083165 0.00799276 0.00768105 0.00739819 0.00715273 -0.00856551 -0.00869479 -0.00881037 -0.00890956 -0.00899037 -0.00905178 -0.00909376 -0.00911725 -0.00912381 -0.00911527 -0.00909328 -0.00906722 -0.00941038 -0.00935983 -0.00929892 -0.00922656 -0.00914092 -0.00903938 -0.00891845 -0.00877376 -0.00859995 -0.00839055 -0.00813788 -0.00783572 -0.00765154 -0.00731153 -0.00689327 -0.00638528 -0.00577385 -0.00504336 -0.00417753 -0.00316187 -0.00198786 -0.000658792 0.000803206 0.00233601 0.00400339 0.00561009 0.0070607 0.00825381 0.00911212 0.0096052 0.00975687 0.00963452 0.00932655 0.00891868 0.00847861 0.0080516 0.00766392 0.00732925 -0.00943326 -0.00957891 -0.00970814 -0.00981775 -0.00990545 -0.00997021 -0.0100123 -0.0100334 -0.0100358 -0.0100223 -0.0099954 -0.00996567 -0.0103103 -0.0102571 -0.010197 -0.0101294 -0.0100529 -0.00996533 -0.00986341 -0.00974303 -0.00959896 -0.00942482 -0.00921296 -0.00895685 -0.00881465 -0.00853223 -0.00817929 -0.00774464 -0.00721384 -0.00656884 -0.00578843 -0.00484979 -0.00373201 -0.00242158 -0.000919842 0.000725583 0.00258754 0.0044402 0.00624335 0.00785546 0.0091363 0.00998715 0.0103803 0.0103638 0.01004 0.00952914 0.00893759 0.00834197 0.00778892 0.00730365 -0.0103849 -0.0105501 -0.0106952 -0.0108164 -0.0109108 -0.0109776 -0.0110174 -0.0110327 -0.011027 -0.0110043 -0.0109682 -0.0109307 -0.0112678 -0.0112081 -0.0111457 -0.0110807 -0.0110122 -0.0109384 -0.0108566 -0.010763 -0.0106526 -0.0105194 -0.010356 -0.0101559 -0.0100611 -0.00984799 -0.00957774 -0.00924172 -0.00882782 -0.00831952 -0.00769546 -0.00692995 -0.00599499 -0.00486365 -0.00351454 -0.00196424 4.36156e-05 0.00195739 0.00404031 0.00613739 0.00804224 0.00954404 0.0104921 0.010845 0.010676 0.0101328 0.00938072 0.00855739 0.00775521 0.00702701 -0.0114294 -0.0116182 -0.0117821 -0.011916 -0.0120166 -0.012083 -0.0121166 -0.0121211 -0.0121016 -0.0120638 -0.0120128 -0.0119618 -0.0122797 -0.0122081 -0.012139 -0.0120731 -0.0120102 -0.0119492 -0.0118876 -0.0118221 -0.0117484 -0.0116606 -0.0115518 -0.0114158 -0.0113713 -0.0112353 -0.0110605 -0.0108435 -0.0105784 -0.0102557 -0.00986159 -0.00937801 -0.00878309 -0.00805146 -0.00715191 -0.00606197 -0.00412143 -0.00253925 -0.000459317 0.00203461 0.00472338 0.00726606 0.00929524 0.0105475 0.0109513 0.010625 0.00979941 0.00871906 0.00757387 0.00648127 -0.0125784 -0.0127963 -0.0129822 -0.0131299 -0.0132353 -0.0132975 -0.013319 -0.0133054 -0.0132643 -0.0132034 -0.0131296 -0.0130577 -0.0133417 -0.0132512 -0.0131694 -0.0130979 -0.0130371 -0.0129863 -0.0129438 -0.0129067 -0.0128712 -0.012832 -0.0127824 -0.012716 -0.0127219 -0.0126651 -0.0125912 -0.0125046 -0.0124094 -0.0123093 -0.0122075 -0.0121073 -0.0120128 -0.0119261 -0.0118349 -0.0116865 -0.010306 -0.00963097 -0.00809842 -0.00557244 -0.00214648 0.00177152 0.00554166 0.00851315 0.0102622 0.0107175 0.0101187 0.00885683 0.00730224 0.00570944 -0.0138468 -0.0141009 -0.0143134 -0.0144757 -0.0145829 -0.0146343 -0.0146347 -0.0145926 -0.0145187 -0.0144242 -0.0143181 -0.0142162 -0.0144481 -0.0143297 -0.0142277 -0.0141444 -0.0140808 -0.0140367 -0.0140108 -0.014001 -0.01