# vtk DataFile Version 2.0
Velocidades
ASCII

DATASET STRUCTURED_GRID
DIMENSIONS   50   50   20

POINTS   50000   double
0.00568455   0.00568455   0.025
0.0174023   0.00568455   0.025
0.0298294   0.00568455   0.025
0.0429888   0.00568455   0.025
0.0569012   0.00568455   0.025
0.0715849   0.00568455   0.025
0.0870549   0.00568455   0.025
0.103323   0.00568455   0.025
0.120395   0.00568455   0.025
0.138275   0.00568455   0.025
0.156961   0.00568455   0.025
0.176443   0.00568455   0.025
0.196707   0.00568455   0.025
0.217734   0.00568455   0.025
0.239496   0.00568455   0.025
0.261959   0.00568455   0.025
0.285082   0.00568455   0.025
0.308818   0.00568455   0.025
0.333113   0.00568455   0.025
0.357906   0.00568455   0.025
0.383132   0.00568455   0.025
0.408719   0.00568455   0.025
0.434592   0.00568455   0.025
0.460672   0.00568455   0.025
0.486877   0.00568455   0.025
0.513123   0.00568455   0.025
0.539328   0.00568455   0.025
0.565408   0.00568455   0.025
0.591281   0.00568455   0.025
0.616868   0.00568455   0.025
0.642094   0.00568455   0.025
0.666887   0.00568455   0.025
0.691182   0.00568455   0.025
0.714918   0.00568455   0.025
0.738041   0.00568455   0.025
0.760504   0.00568455   0.025
0.782266   0.00568455   0.025
0.803293   0.00568455   0.025
0.823557   0.00568455   0.025
0.843039   0.00568455   0.025
0.861725   0.00568455   0.025
0.879605   0.00568455   0.025
0.896677   0.00568455   0.025
0.912945   0.00568455   0.025
0.928415   0.00568455   0.025
0.943099   0.00568455   0.025
0.957011   0.00568455   0.025
0.970171   0.00568455   0.025
0.982598   0.00568455   0.025
0.994315   0.00568455   0.025
0.00568455   0.0174023   0.025
0.0174023   0.0174023   0.025
0.0298294   0.0174023   0.025
0.0429888   0.0174023   0.025
0.0569012   0.0174023   0.025
0.0715849   0.0174023   0.025
0.0870549   0.0174023   0.025
0.103323   0.0174023   0.025
0.120395   0.0174023   0.025
0.138275   0.0174023   0.025
0.156961   0.0174023   0.025
0.176443   0.0174023   0.025
0.196707   0.0174023   0.025
0.217734   0.0174023   0.025
0.239496   0.0174023   0.025
0.261959   0.0174023   0.025
0.285082   0.0174023   0.025
0.308818   0.0174023   0.025
0.333113   0.0174023   0.025
0.357906   0.0174023   0.025
0.383132   0.0174023   0.025
0.408719   0.0174023   0.025
0.434592   0.0174023   0.025
0.460672   0.0174023   0.025
0.486877   0.0174023   0.025
0.513123   0.0174023   0.025
0.539328   0.0174023   0.025
0.565408   0.0174023   0.025
0.591281   0.0174023   0.025
0.616868   0.0174023   0.025
0.642094   0.0174023   0.025
0.666887   0.0174023   0.025
0.691182   0.0174023   0.025
0.714918   0.0174023   0.025
0.738041   0.0174023   0.025
0.760504   0.0174023   0.025
0.782266   0.0174023   0.025
0.803293   0.0174023   0.025
0.823557   0.0174023   0.025
0.843039   0.0174023   0.025
0.861725   0.0174023   0.025
0.879605   0.0174023   0.025
0.896677   0.0174023   0.025
0.912945   0.0174023   0.025
0.928415   0.0174023   0.025
0.943099   0.0174023   0.025
0.957011   0.0174023   0.025
0.970171   0.0174023   0.025
0.982598   0.0174023   0.025
0.994315   0.0174023   0.025
0.00568455   0.0298294   0.025
0.0174023   0.0298294   0.025
0.0298294   0.0298294   0.025
0.0429888   0.0298294   0.025
0.0569012   0.0298294   0.025
0.0715849   0.0298294   0.025
0.0870549   0.0298294   0.025
0.103323   0.0298294   0.025
0.120395   0.0298294   0.025
0.138275   0.0298294   0.025
0.156961   0.0298294   0.025
0.176443   0.0298294   0.025
0.196707   0.0298294   0.025
0.217734   0.0298294   0.025
0.239496   0.0298294   0.025
0.261959   0.0298294   0.025
0.285082   0.0298294   0.025
0.308818   0.0298294   0.025
0.333113   0.0298294   0.025
0.357906   0.0298294   0.025
0.383132   0.0298294   0.025
0.408719   0.0298294   0.025
0.434592   0.0298294   0.025
0.460672   0.0298294   0.025
0.486877   0.0298294   0.025
0.513123   0.0298294   0.025
0.539328   0.0298294   0.025
0.565408   0.0298294   0.025
0.591281   0.0298294   0.025
0.616868   0.0298294   0.025
0.642094   0.0298294   0.025
0.666887   0.0298294   0.025
0.691182   0.0298294   0.025
0.714918   0.0298294   0.025
0.738041   0.0298294   0.025
0.760504   0.0298294   0.025
0.782266   0.0298294   0.025
0.803293   0.0298294   0.025
0.823557   0.0298294   0.025
0.843039   0.0298294   0.025
0.861725   0.0298294   0.025
0.879605   0.0298294   0.025
0.896677   0.0298294   0.025
0.912945   0.0298294   0.025
0.928415   0.0298294   0.025
0.943099   0.0298294   0.025
0.957011   0.0298294   0.025
0.970171   0.0298294   0.025
0.982598   0.0298294   0.025
0.994315   0.0298294   0.025
0.00568455   0.0429888   0.025
0.0174023   0.0429888   0.025
0.0298294   0.0429888   0.025
0.0429888   0.0429888   0.025
0.0569012   0.0429888   0.025
0.0715849   0.0429888   0.025
0.0870549   0.0429888   0.025
0.103323   0.0429888   0.025
0.120395   0.0429888   0.025
0.138275   0.0429888   0.025
0.156961   0.0429888   0.025
0.176443   0.0429888   0.025
0.196707   0.0429888   0.025
0.217734   0.0429888   0.025
0.239496   0.0429888   0.025
0.261959   0.0429888   0.025
0.285082   0.0429888   0.025
0.308818   0.0429888   0.025
0.333113   0.0429888   0.025
0.357906   0.0429888   0.025
0.383132   0.0429888   0.025
0.408719   0.0429888   0.025
0.434592   0.0429888   0.025
0.460672   0.0429888   0.025
0.486877   0.0429888   0.025
0.513123   0.0429888   0.025
0.539328   0.0429888   0.025
0.565408   0.0429888   0.025
0.591281   0.0429888   0.025
0.616868   0.0429888   0.025
0.642094   0.0429888   0.025
0.666887   0.0429888   0.025
0.691182   0.0429888   0.025
0.714918   0.0429888   0.025
0.738041   0.0429888   0.025
0.760504   0.0429888   0.025
0.782266   0.0429888   0.025
0.803293   0.0429888   0.025
0.823557   0.0429888   0.025
0.843039   0.0429888   0.025
0.861725   0.0429888   0.025
0.879605   0.0429888   0.025
0.896677   0.0429888   0.025
0.912945   0.0429888   0.025
0.928415   0.0429888   0.025
0.943099   0.0429888   0.025
0.957011   0.0429888   0.025
0.970171   0.0429888   0.025
0.982598   0.0429888   0.025
0.994315   0.0429888   0.025
0.00568455   0.0569012   0.025
0.0174023   0.0569012   0.025
0.0298294   0.0569012   0.025
0.0429888   0.0569012   0.025
0.0569012   0.0569012   0.025
0.0715849   0.0569012   0.025
0.0870549   0.0569012   0.025
0.103323   0.0569012   0.025
0.120395   0.0569012   0.025
0.138275   0.0569012   0.025
0.156961   0.0569012   0.025
0.176443   0.0569012   0.025
0.196707   0.0569012   0.025
0.217734   0.0569012   0.025
0.239496   0.0569012   0.025
0.261959   0.0569012   0.025
0.285082   0.0569012   0.025
0.308818   0.0569012   0.025
0.333113   0.0569012   0.025
0.357906   0.0569012   0.025
0.383132   0.0569012   0.025
0.408719   0.0569012   0.025
0.434592   0.0569012   0.025
0.460672   0.0569012   0.025
0.486877   0.0569012   0.025
0.513123   0.0569012   0.025
0.539328   0.0569012   0.025
0.565408   0.0569012   0.025
0.591281   0.0569012   0.025
0.616868   0.0569012   0.025
0.642094   0.0569012   0.025
0.666887   0.0569012   0.025
0.691182   0.0569012   0.025
0.714918   0.0569012   0.025
0.738041   0.0569012   0.025
0.760504   0.0569012   0.025
0.782266   0.0569012   0.025
0.803293   0.0569012   0.025
0.823557   0.0569012   0.025
0.843039   0.0569012   0.025
0.861725   0.0569012   0.025
0.879605   0.0569012   0.025
0.896677   0.0569012   0.025
0.912945   0.0569012   0.025
0.928415   0.0569012   0.025
0.943099   0.0569012   0.025
0.957011   0.0569012   0.025
0.970171   0.0569012   0.025
0.982598   0.0569012   0.025
0.994315   0.0569012   0.025
0.00568455   0.0715849   0.025
0.0174023   0.0715849   0.025
0.0298294   0.0715849   0.025
0.0429888   0.0715849   0.025
0.0569012   0.0715849   0.025
0.0715849   0.0715849   0.025
0.0870549   0.0715849   0.025
0.103323   0.0715849   0.025
0.120395   0.0715849   0.025
0.138275   0.0715849   0.025
0.156961   0.0715849   0.025
0.176443   0.0715849   0.025
0.196707   0.0715849   0.025
0.217734   0.0715849   0.025
0.239496   0.0715849   0.025
0.261959   0.0715849   0.025
0.285082   0.0715849   0.025
0.308818   0.0715849   0.025
0.333113   0.0715849   0.025
0.357906   0.0715849   0.025
0.383132   0.0715849   0.025
0.408719   0.0715849   0.025
0.434592   0.0715849   0.025
0.460672   0.0715849   0.025
0.486877   0.0715849   0.025
0.513123   0.0715849   0.025
0.539328   0.0715849   0.025
0.565408   0.0715849   0.025
0.591281   0.0715849   0.025
0.616868   0.0715849   0.025
0.642094   0.0715849   0.025
0.666887   0.0715849   0.025
0.691182   0.0715849   0.025
0.714918   0.0715849   0.025
0.738041   0.0715849   0.025
0.760504   0.0715849   0.025
0.782266   0.0715849   0.025
0.803293   0.0715849   0.025
0.823557   0.0715849   0.025
0.843039   0.0715849   0.025
0.861725   0.0715849   0.025
0.879605   0.0715849   0.025
0.896677   0.0715849   0.025
0.912945   0.0715849   0.025
0.928415   0.0715849   0.025
0.943099   0.0715849   0.025
0.957011   0.0715849   0.025
0.970171   0.0715849   0.025
0.982598   0.0715849   0.025
0.994315   0.0715849   0.025
0.00568455   0.0870549   0.025
0.0174023   0.0870549   0.025
0.0298294   0.0870549   0.025
0.0429888   0.0870549   0.025
0.0569012   0.0870549   0.025
0.0715849   0.0870549   0.025
0.0870549   0.0870549   0.025
0.103323   0.0870549   0.025
0.120395   0.0870549   0.025
0.138275   0.0870549   0.025
0.156961   0.0870549   0.025
0.176443   0.0870549   0.025
0.196707   0.0870549   0.025
0.217734   0.0870549   0.025
0.239496   0.0870549   0.025
0.261959   0.0870549   0.025
0.285082   0.0870549   0.025
0.308818   0.0870549   0.025
0.333113   0.0870549   0.025
0.357906   0.0870549   0.025
0.383132   0.0870549   0.025
0.408719   0.0870549   0.025
0.434592   0.0870549   0.025
0.460672   0.0870549   0.025
0.486877   0.0870549   0.025
0.513123   0.0870549   0.025
0.539328   0.0870549   0.025
0.565408   0.0870549   0.025
0.591281   0.0870549   0.025
0.616868   0.0870549   0.025
0.642094   0.0870549   0.025
0.666887   0.0870549   0.025
0.691182   0.0870549   0.025
0.714918   0.0870549   0.025
0.738041   0.0870549   0.025
0.760504   0.0870549   0.025
0.782266   0.0870549   0.025
[...]
POINT_DATA   50000
VECTORS Velocidades double

-7.68038e-05 -0.00168794 0
-0.000207804 -0.00331535 0
-0.000285349 -0.00423166 0
-0.000313797 -0.00474654 0
-0.0003209 -0.00498545 0
-0.000333891 -0.00501179 0
-0.000373497 -0.00486454 0
-0.000454288 -0.00457136 0
-0.000586088 -0.00415335 0
-0.000775507 -0.0036258 0
-0.00102798 -0.00299511 0
-0.00115373 -0.00224526 0
-0.00133351 -0.00127764 0
-0.00177554 -0.000549764 0
-0.00229286 5.72612e-05 0
-0.00285803 0.000570215 0
-0.00346166 0.000985991 0
-0.00409468 0.00128765 0
-0.00474396 0.00145274 0
-0.00539056 0.00145979 0
-0.0060091 0.00129426 0
-0.00656832 0.000953502 0
-0.00703384 0.000450267 0
-0.00735985 -0.000184842 0
-0.00750451 -0.000891536 0
-0.00743978 -0.00160274 0
-0.00714821 -0.00223907 0
-0.0066335 -0.00272608 0
-0.00591964 -0.00299997 0
-0.00505135 -0.00301626 0
-0.00409 -0.00275703 0
-0.00310548 -0.00223455 0
-0.00216612 -0.00149037 0
-0.00132869 -0.000591104 0
-0.00062988 0.000376613 0
-0.000238222 0.00130425 0
2.41155e-06 0.00203238 0
0.000272726 0.002875 0
0.000437865 0.00367442 0
0.000504016 0.00437172 0
0.000490945 0.00494106 0
0.000418452 0.00537058 0
0.000304779 0.00565422 0
0.000167094 0.0057872 0
2.25545e-05 0.00576278 0
-0.000110247 0.0055683 0
-0.00020949 0.00517818 0
-0.000249179 0.004538 0
-0.00020488 0.00352112 0
-7.95669e-05 0.00179112 0
-0.000256965 -0.00310315 0
-0.000676936 -0.0064677 0
-0.000894119 -0.0084122 0
-0.000950258 -0.00949133 0
-0.000950339 -0.00997248 0
-0.000977402 -0.0100004 0
-0.00109052 -0.00966507 0
-0.00133111 -0.00902949 0
-0.00172789 -0.00814075 0
-0.00230113 -0.00703191 0
-0.00306877 -0.00571537 0
-0.00340484 -0.0041545 0
-0.00396824 -0.00216843 0
-0.005396 -0.000667846 0
-0.00700749 0.00057588 0
-0.0087664 0.00162358 0
-0.0106476 0.00247028 0
-0.0126205 0.0030799 0
-0.0146397 0.0034038 0
-0.01664 0.00339496 0
-0.0185362 0.00302047 0
-0.0202261 0.0022724 0
-0.0215991 0.00117592 0
-0.0225261 -0.000205419 0
-0.022888 -0.00177008 0
-0.0226059 -0.00334814 0
-0.0216469 -0.00477734 0
-0.0200361 -0.00589871 0
-0.0178523 -0.00657246 0
-0.0152285 -0.00669794 0
-0.0123404 -0.00623054 0
-0.00938583 -0.00519059 0
-0.00655933 -0.00366265 0
-0.00402615 -0.00178712 0
-0.00189897 0.000249504 0
-0.000742246 0.00220984 0
-1.22474e-06 0.00376241 0
0.000881789 0.0055474 0
0.00140398 0.00724234 0
0.00161408 0.00872154 0
0.00157386 0.00993152 0
0.00134377 0.0108483 0
0.000980262 0.0114592 0
0.000537197 0.011753 0
6.85475e-05 0.0117128 0
-0.000367702 0.0113074 0
-0.0007038 0.0104756 0
-0.00085467 0.00909218 0
-0.000720454 0.00689086 0
-0.00028454 0.00328024 0
-0.000185326 -0.00262197 0
-0.000588756 -0.00607355 0
-0.000960915 -0.00820703 0
-0.00122015 -0.00939018 0
-0.00142772 -0.00988247 0
-0.00167569 -0.00985375 0
-0.00204776 -0.00941851 0
-0.00261052 -0.00865829 0
-0.00341445 -0.00763261 0
-0.00449796 -0.0063815 0
-0.00589332 -0.00491826 0
-0.00652532 -0.00320225 0
-0.00749759 -0.0010882 0
-0.00989736 0.00052863 0
-0.0125945 0.00185642 0
-0.0155442 0.00296616 0
-0.0186998 0.00385396 0
-0.0220012 0.00447761 0
-0.0253631 0.00477874 0
-0.0286695 0.00469953 0
-0.0317733 0.00419734 0
-0.0345027 0.00325778 0
-0.0366738 0.00190516 0
-0.0381159 0.000207449 0
-0.0386325 -0.00175852 0
-0.0380871 -0.00375509 0
-0.0364671 -0.00560316 0
-0.0338201 -0.00711735 0
-0.0302733 -0.0081269 0
-0.0260327 -0.00850174 0
-0.0213662 -0.00817497 0
-0.0165739 -0.00715601 0
-0.0119528 -0.00553236 0
-0.0077592 -0.00346202 0
-0.00417553 -0.00116387 0
-0.00220379 0.00107832 0
-0.000919747 0.00290171 0
0.000638691 0.00495844 0
0.00161303 0.00691044 0
0.00208715 0.00861673 0
0.00215649 0.010019 0
0.00191679 0.0110911 0
0.00146131 0.0118173 0
0.000881991 0.0121807 0
0.000271941 0.0121553 0
-0.000271795 0.0116955 0
-0.000647802 0.0107207 0
-0.000760507 0.00908791 0
-0.000565162 0.00655416 0
-0.000195141 0.00275876 0
-0.000117056 -0.00227421 0
-0.000450087 -0.00560022 0
-0.000900378 -0.00780504 0
-0.00137256 -0.00905292 0
-0.00187687 -0.00953864 0
-0.00247804 -0.00942977 0
-0.00325614 -0.00885787 0
-0.00428689 -0.00792351 0
-0.00563471 -0.00670165 0
-0.00735219 -0.00524254 0
-0.00948139 -0.003565 0
-0.0104745 -0.00163559 0
-0.0118902 0.000650021 0
-0.0152878 0.00243332 0
-0.0190838 0.00389463 0
-0.0232308 0.00510374 0
-0.0276608 0.00605296 0
-0.0322791 0.00668981 0
-0.0369562 0.00694153 0
-0.0415217 0.00673493 0
-0.0457668 0.00601411 0
-0.049453 0.00475646 0
-0.0523293 0.00298579 0
-0.0542208 0.000776831 0
-0.0548514 -0.00178914 0
-0.0540231 -0.00441722 0
-0.0517734 -0.0068942 0
-0.0481681 -0.00899663 0
-0.0433731 -0.0105107 0
-0.0376507 -0.0112658 0
-0.0313393 -0.0111637 0
-0.0248198 -0.0101975 0
-0.0184731 -0.00845676 0
-0.0126353 -0.00612147 0
-0.00755885 -0.00345175 0
-0.00474005 -0.00078561 0
-0.00286785 0.00147329 0
-0.000537748 0.00394706 0
0.00100465 0.00628445 0
0.00187724 0.00833241 0
0.00220366 0.0100257 0
0.00210919 0.0113326 0
0.00171926 0.01223 0
0.001159 0.0126917 0
0.000552474 0.0126793 0
1.94924e-05 0.0121339 0
-0.000334061 0.0109666 0
-0.000439648 0.00905219 0
-0.000310603 0.00624028 0
-9.79866e-05 0.00242265 0
-8.39108e-05 -0.0020294 0
-0.000381324 -0.00510512 0
-0.000898687 -0.00721745 0
-0.00158029 -0.00841602 0
-0.00241975 -0.0088247 0
-0.00345462 -0.00858579 0
-0.00474699 -0.00783182 0
-0.00636646 -0.00667473 0
-0.00837967 -0.00520259 0
-0.0108448 -0.00347719 0
-0.0138072 -0.00152811 0
-0.0152156 0.000660309 0
-0.0171112 0.0031465 0
-0.0215534 0.00513931 0
-0.0264785 0.00678086 0
-0.0318397 0.00812505 0
-0.0375483 0.00915166 0
-0.043474 0.00979228 0
-0.0494404 0.00995525 0
-0.0552227 0.00954839 0
-0.0605526 0.00850037 0
-0.0651313 0.00678027 0
-0.068651 0.00441364 0
-0.07095 0.00148899 0
-0.0716796 -0.00187968 0
-0.0705882 -0.00534805 0
-0.067775 -0.0086609 0
-0.0633156 -0.0115471 0
-0.0573999 -0.0137394 0
-0.0503286 -0.0150169 0
-0.0424913 -0.0152415 0
-0.0343314 -0.0143831 0
-0.0263004 -0.0125298 0
-0.0188093 -0.00988362 0
-0.0121846 -0.00674892 0
-0.00848657 -0.00352047 0
-0.00597439 -0.000649416 0
-0.0027488 0.00238764 0
-0.000498383 0.00523641 0
0.000925308 0.00773908 0
0.00166793 0.00982297 0
0.00187738 0.0114466 0
0.00170399 0.0125758 0
0.00129748 0.0131725 0
0.000801199 0.0131883 0
0.000342922 0.01256 0
2.01299e-05 0.011211 0
-0.000120747 0.00906274 0
-0.000105378 0.00606619 0
-3.34632e-05 0.00226396 0
-7.80627e-05 -0.0018204 0
-0.000391567 -0.00455809 0
-0.00101264 -0.00642323 0
-0.00192828 -0.00742656 0
-0.00313811 -0.00764607 0
-0.00466524 -0.007195 0
-0.00655331 -0.00619512 0
-0.00885816 -0.00475967 0
-0.0116391 -0.00298399 0
-0.0149512 -0.00094008 0
-0.0188364 0.00132832 0
-0.020706 0.00381174 0
-0.0231168 0.00651855 0
-0.0286593 0.0087559 0
-0.0347544 0.0106175 0
-0.0413545 0.0121263 0
-0.0483508 0.0132387 0
-0.0555775 0.0138632 0
-0.0628123 0.013885 0
-0.0697786 0.0131903 0
-0.0761545 0.011692 0
-0.0815902 0.00935261 0
-0.0857338 0.00620362 0
-0.0884261 0.00235621 0
-0.0892684 -0.00202393 0
-0.0879853 -0.00653502 0
-0.0847196 -0.0108887 0
-0.079543 -0.0147585 0
-0.0726524 -0.0178148 0
-0.0643677 -0.0197767 0
-0.0551116 -0.020457 0
-0.0453752 -0.0197932 0
-0.0356725 -0.017864 0
-0.0264885 -0.0148888 0
-0.0182317 -0.0112139 0
-0.0136102 -0.0072907 0
-0.0103936 -0.00362541 0
-0.00611933 0.000119447 0
-0.00299282 0.00360378 0
-0.000843153 0.00667548 0
0.000488628 0.00925474 0
0.00116478 0.0112865 0
0.0013526 0.0127224 0
0.00121812 0.0135125 0
0.000915959 0.0136032 0
0.000576913 0.0129382 0
0.000294523 0.011467 0
0.000113931 0.00916222 0
3.00256e-05 0.00604737 0
4.31283e-06 0.0022276 0
-9.03987e-05 -0.00159075 0
-0.000466883 -0.0038878 0
-0.00124588 -0.00535708 0
-0.00244333 -0.00600998 0
-0.00407019 -0.00590538 0
-0.00614423 -0.00513538 0
-0.00869505 -0.00380726 0
-0.0117632 -0.00202793 0
-0.0153953 0.000106619 0
-0.0196372 0.00251736 0
-0.0245221 0.00514539 0
-0.0268908 0.00795219 0
-0.0298488 0.010894 0
-0.0365481 0.013404 0
-0.0438581 0.0155168 0
-0.0517259 0.0172106 0
-0.0600223 0.0184068 0
-0.0685478 0.0189839 0
-0.0770377 0.0187999 0
-0.0851697 0.0177184 0
-0.0925779 0.0156379 0
-0.0988732 0.0125176 0
-0.103672 0.00840019 0
-0.106771 0.00342645 0
-0.107771 -0.00217957 0
-0.106428 -0.00792836 0
-0.102872 -0.0135289 0
-0.097154 -0.0185928 0
-0.0894583 -0.0227193 0
-0.080105 -0.0255583 0
-0.0695325 -0.0268612 0
-0.0582673 -0.0265206 0
-0.0468801 -0.0245933 0
-0.0359329 -0.0213055 0
-0.0259255 -0.0170381 0
-0.0203178 -0.0122972 0
-0.016314 -0.00765268 0
-0.010802 -0.00306151 0
-0.00659678 0.00118106 0
-0.00351836 0.00494185 0
-0.00140631 0.00813372 0
-9.27101e-05 0.0106836 0
0.000600082 0.0125252 0
0.000849701 0.0135977 0
0.000820235 0.0138467 0
0.000649165 0.0132289 0
0.000437595 0.0117226 0
0.000246929 0.00934122 0
0.000105249 0.00614878 0
2.42286e-05 0.00226714 0
-0.000115191 -0.0012957 0
-0.000593046 -0.00301062 0
-0.00158521 -0.00392495 0
-0.00312197 -0.00406616 0
-0.0052214 -0.00349136 0
-0.00789826 -0.00228122 0
-0.0111712 -0.000529467 0
-0.0150664 0.00166762 0
-0.0196161 0.00421892 0
-0.0248534 0.00704236 0
-0.0308 0.0100648 0
-0.0336967 0.0132178 0
-0.0372286 0.016406 0
-0.0451365 0.019211 0
-0.0537035 0.021597 0
-0.0628674 0.023485 0
-0.0724776 0.0247518 0
-0.0823037 0.0252394 0
-0.0920451 0.0247757 0
-0.101343 0.0232026 0
-0.109799 0.0204066 0
-0.116998 0.0163483 0
-0.122536 0.0110857 0
-0.126081 0.00479143 0
-0.127315 -0.00225693 0
-0.126105 -0.00943142 0
-0.122474 -0.0164906 0
-0.116432 -0.0229764 0
-0.108132 -0.0284089 0
-0.0978742 -0.032358 0
-0.0860966 -0.0345005 0
-0.0733481 -0.0346663 0
-0.0602504 -0.0328723 0
-0.0474452 -0.0293339 0
-0.0355348 -0.024454 0
-0.0288591 -0.0187881 0
-0.0239638 -0.0129786 0
-0.0169797 -0.00741403 0
-0.0114497 -0.00229092 0
-0.00720459 0.00229125 0
-0.00409678 0.00623455 0
-0.00196076 0.00944061 0
-0.00061218 0.0118204 0
0.000137954 0.0133005 0
0.000466737 0.013827 0
0.000526201 0.0133702 0
0.000436148 0.0119323 0
0.00028424 0.00955389 0
0.000133152 0.00631842 0
3.22056e-05 0.00234817 0
-0.000149065 -0.000897678 0
-0.000759036 -0.00184207 0
-0.00201382 -0.00201944 0
-0.00394665 -0.00147744 0
-0.00657548 -0.000279515 0
-0.00990969 0.00149895 0
-0.0139574 0.00377622 0
-0.0187311 0.00646924 0
-0.0242487 0.00949627 0
-0.0305294 0.0127761 0
-0.0375827 0.0162238 0
-0.041027 0.019742 0
-0.0451523 0.0231869 0
-0.0543101 0.0263049 0
-0.0641681 0.0289772 0
-0.0746507 0.0310577 0
-0.0855858 0.0323709 0
-0.0967168 0.032718 0
-0.107715 0.0318963 0
-0.118197 0.0297275 0
-0.127745 0.0260905 0
-0.135929 0.0209508 0
-0.142334 0.0143836 0
-0.146382 0.00659004 0
-0.147948 -0.00211169 0
-0.147122 -0.0108952 0
-0.143679 -0.0196349 0
-0.137571 -0.0277925 0
-0.128904 -0.034802 0
-0.117942 -0.0401436 0
-0.1051 -0.0434029 0
-0.0909353 -0.0443265 0
-0.0761114 -0.0428658 0
-0.0613482 -0.0392012 0
-0.0473593 -0.0337372 0
-0.0395222 -0.0270676 0
-0.0336085 -0.0199128 0
-0.024863 -0.013266 0
-0.0177095 -0.0071377 0
-0.012017 -0.00158079 0
-0.00766698 0.00328532 0
-0.00450246 0.00732428 0
-0.00233258 0.0104157 0
-0.000953295 0.012469 0
-0.000167737 0.0134279 0
0.000199433 0.0132728 0
0.000295236 0.0120224 0
0.000238432 0.00973418 0
0.000124407 0.00650122 0
3.18805e-05 0.00244439 0
-0.000189807 -0.000363289 0
-0.000956084 -0.000301006 0
-0.00251444 0.000469432 0
-0.0048927 0.00188047 0
-0.00810157 0.00386056 0
-0.0121407 0.0063381 0
-0.0170059 0.00924388 0
-0.0226959 0.012511 0
-0.0292146 0.0160713 0
-0.0365682 0.0198484 0
-0.0447541 0.0237488 0
-0.0487554 0.0276491 0
-0.0534846 0.0313623 0
-0.0639179 0.0348074 0
-0.0750868 0.0377706 0
-0.0868989 0.0400317 0
-0.0991624 0.0413584 0
-0.1116 0.0415093 0
-0.123865 0.040252 0
-0.135561 0.0373918 0
-0.14626 0.0328036 0
-0.155532 0.0264602 0
-0.162955 0.018453 0
-0.167566 0.00900325 0
-0.169577 -0.0015455 0
-0.169421 -0.0121201 0
-0.166462 -0.0227738 0
-0.160583 -0.0328742 0
-0.151833 -0.0417674 0
-0.140416 -0.0488347 0
-0.126709 -0.0535551 0
-0.111253 -0.0555674 0
-0.0947336 -0.0547272 0
-0.0779411 -0.051146 0
-0.0617015 -0.0451994 0
-0.0526158 -0.0374982 0
-0.045539 -0.0288391 0
-0.0346813 -0.0210292 0
-0.0255467 -0.0137638 0
-0.0180786 -0.00704652 0
-0.012204 -0.00104158 0
-0.00777825 0.00405631 0
-0.00460103 0.00808191 0
-0.0024469 0.0109192 0
-0.00109114 0.0125039 0
-0.000326823 0.0128206 0
2.67941e-05 0.0118986 0
0.000122487 0.00980607 0
8.72235e-05 0.00664362 0
2.56089e-05 0.00253459 0
-0.000235621 0.000337518 0
-0.00117619 0.00168758 0
-0.00306894 0.00364619 0
-0.00593015 0.0061278 0
-0.00975732 0.00905488 0
-0.0145357 0.0123622 0
-0.0202463 0.0159969 0
-0.0268734 0.0199126 0
-0.0344074 0.0240597 0
-0.0428422 0.0283714 0
-0.0521651 0.0327489 0
-0.0567216 0.0370474 0
-0.0620546 0.0410427 0
-0.0737673 0.0448252 0
-0.0862457 0.0480763 0
-0.0993792 0.0504976 0
-0.112959 0.0517987 0
-0.126693 0.0516969 0
-0.140227 0.0499329 0
-0.15316 0.0462991 0
-0.165068 0.0406696 0
-0.175522 0.0330255 0
-0.184102 0.0234705 0
-0.189322 0.0122371 0
-0.191884 -0.000319038 0
-0.192691 -0.0128686 0
-0.19052 -0.0256751 0
-0.185191 -0.0380012 0
-0.176686 -0.0491091 0
-0.165137 -0.0582784 0
-0.150854 -0.0648686 0
-0.13433 -0.0683869 0
-0.116245 -0.0685584 0
-0.0974323 -0.065383 0
-0.0788186 -0.0591637 0
-0.0684345 -0.050492 0
-0.0600445 -0.0402236 0
-0.0466653 -0.031209 0
-0.0351362 -0.0226599 0
-0.025519 -0.0145528 0
-0.0178012 -0.0071369 0
-0.0118517 -0.000694615 0
-0.00745647 0.00454526 0
-0.00436165 0.0084295 0
-0.00230657 0.0108779 0
-0.00104513 0.0118733 0
-0.000357187 0.0114511 0
-5.27878e-05 0.00968841 0
2.76548e-05 0.00669451 0
1.49881e-05 0.00260093 0
-0.000284708 0.00123086 0
-0.00141094 0.00418893 0
-0.00365703 0.00760235 0
-0.00702334 0.0113702 0
-0.0114895 0.0154135 0
-0.0170227 0.0196796 0
-0.0235867 0.0241382 0
-0.0311502 0.0287708 0
-0.0396904 0.0335524 0
-0.0491905 0.038431 0
-0.0596297 0.0433073 0
-0.0647276 0.0480192 0
-0.0706512 0.0523132 0
-0.0836189 0.0564394 0
-0.0973763 0.0599681 0
-0.111795 0.0625221 0
-0.126651 0.0637552 0
-0.141646 0.0633461 0
-0.156423 0.0610128 0
-0.170587 0.0565382 0
-0.18372 0.0497979 0
-0.195404 0.0407808 0
-0.205227 0.0295998 0
-0.211061 0.0164918 0
-0.214253 0.00181928 0
-0.216275 -0.0128891 0
-0.215173 -0.028076 0
-0.210722 -0.0429007 0
-0.202835 -0.0565553 0
-0.191558 -0.0682229 0
-0.177104 -0.0771393 0
-0.159883 -0.0826621 0
-0.140519 -0.0843509 0
-0.119842 -0.0820447 0
-0.098847 -0.0759156 0
-0.0871985 -0.0664793 0
-0.0773642 -0.0546096 0
-0.0610183 -0.0443987 0
-0.0466473 -0.0343979 0
-0.0344771 -0.0246201 0
-0.0245671 -0.0154581 0
-0.0168013 -0.00731929 0
-0.0109498 -0.000519711 0
-0.00672505 0.00473493 0
-0.00382368 0.00833853 0
-0.00195372 0.0102663 0
-0.000849881 0.0105567 0
-0.000280678 0.00929568 0
-5.05038e-05 0.0066043 0
1.01369e-06 0.00262787 0
-0.000335017 0.00233718 0
-0.00165067 0.00725356 0
-0.00425514 0.0124081 0
-0.00812998 0.0176876 0
-0.013234 0.0230183 0
-0.0195136 0.0283682 0
-0.0269137 0.0337392 0
-0.0353868 0.0391491 0
-0.0448973 0.0446057 0
-0.0554187 0.0500779 0
-0.0669241 0.0554711 0
-0.0725363 0.0606112 0
-0.0790211 0.0652224 0
-0.0931832 0.0696926 0
-0.10815 0.0734804 0
-0.123776 0.0761331 0
-0.139827 0.0772525 0
-0.156001 0.0764833 0
-0.171944 0.0735246 0
-0.187266 0.0681532 0
-0.201566 0.0602478 0
-0.214437 0.0498055 0
-0.225485 0.0369485 0
-0.231883 0.0219186 0
-0.235728 0.00508833 0
-0.239128 -0.0119523 0
-0.239313 -0.0297073 0
-0.236044 -0.0472595 0
-0.229171 -0.0637547 0
-0.218645 -0.0782979 0
-0.204556 -0.0900102 0
-0.187184 -0.0980927 0
-0.167037 -0.101913 0
-0.144876 -0.101098 0
-0.121695 -0.0956217 0
-0.108958 -0.0858442 0
-0.097609 -0.0725828 0
-0.0778741 -0.0612408 0
-0.0602312 -0.0496009 0
-0.0451052 -0.0378279 0
-0.0326374 -0.0265268 0
-0.0227359 -0.0162725 0
-0.0151595 -0.00749738 0
-0.00958739 -0.00047992 0
-0.00567024 0.00463488 0
-0.00306469 0.00780707 0
-0.00145439 0.00907526 0
-0.000560598 0.00853497 0
-0.000146233 0.00632213 0
-1.59619e-05 0.00260065 0
-0.000384134 0.00366885 0
-0.00188408 0.010911 0
-0.00483578 0.0181031 0
-0.00920076 0.0251235 0
-0.0149158 0.0319107 0
-0.0219056 0.0384635 0
-0.0300952 0.0448271 0
-0.039421 0.0510663 0
-0.0498346 0.0572304 0
-0.061301 0.0633164 0
-0.0737883 0.0692402 0
-0.0798727 0.074821 0
-0.0868708 0.0797673 0
-0.102121 0.0845733 0
-0.118179 0.0885919 0
-0.134882 0.0913005 0
-0.151986 0.0922544 0
-0.169188 0.091069 0
-0.186137 0.0874283 0
-0.202453 0.0811058 0
-0.217746 0.0719864 0
-0.231632 0.0600795 0
-0.243747 0.0455224 0
-0.250589 0.0285703 0
-0.255035 0.0096177 0
-0.259833 -0.00989449 0
-0.261419 -0.0303286 0
-0.259573 -0.0507511 0
-0.254096 -0.070293 0
-0.244843 -0.088015 0
-0.231763 -0.10295 0
-0.214962 -0.114156 0
-0.194768 -0.120796 0
-0.171784 -0.122248 0
-0.146911 -0.118216 0
-0.133461 -0.108812 0
-0.120647 -0.0946824 0
-0.0972342 -0.0823364 0
-0.0759944 -0.0688822 0
-0.0575624 -0.054782 0
-0.0421797 -0.0409169 0
-0.0298037 -0.0280737 0
-0.0202026 -0.0168383 0
-0.0130328 -0.00759035 0
-0.00790122 -0.00053337 0
-0.00441049 0.00426616 0
-0.0021876 0.00684217 0
-0.000899902 0.00729929 0
-0.00026189 0.00579087 0
-3.63329e-05 0.00250326 0
-0.000429263 0.00522721 0
-0.00209825 0.0151629 0
-0.00536772 0.024687 0
-0.01018 0.0336729 0
-0.0164507 0.0420794 0
-0.0240831 0.0499463 0
-0.0329832 0.0573738 0
-0.0430712 0.0644851 0
-0.0542865 0.0713807 0
-0.0665857 0.0780935 0
-0.079932 0.0845554 0
-0.0864302 0.0905843 0
-0.0938718 0.0958789 0
-0.110051 0.101 0
-0.127021 0.105206 0
-0.144604 0.107915 0
-0.162545 0.108639 0
-0.180538 0.106969 0
-0.198232 0.102578 0
-0.215256 0.0952396 0
-0.231237 0.0848518 0
-0.245819 0.0714455 0
-0.258684 0.0551856 0
-0.26578 0.036357 0
-0.270689 0.015391 0
-0.276732 -0.00666195 0
-0.279691 -0.0297729 0
-0.279398 -0.0530793 0
-0.275627 -0.0757339 0
-0.268148 -0.0968009 0
-0.256766 -0.115271 0
-0.241385 -0.130095 0
-0.222095 -0.140249 0
-0.199252 -0.144847 0
-0.173545 -0.143266 0
-0.159987 -0.135284 0
-0.145953 -0.12123 0
-0.118876 -0.108092 0
-0.0939398 -0.0927429 0
-0.0719768 -0.076056 0
-0.0533708 -0.0592264 0
-0.0381828 -0.0432989 0
-0.0262326 -0.0290622 0
-0.0171802 -0.0170406 0
-0.0106011 -0.00752732 0
-0.00604597 -0.00063468 0
-0.00308151 0.00365684 0
-0.00131454 0.00545793 0
-0.000403434 0.00494031 0
-6.12791e-05 0.00231564 0
-0.000467324 0.00699981 0
-0.00227902 0.0199764 0
-0.00581705 0.0321102 0
-0.0110077 0.0432728 0
-0.0177481 0.0534499 0
-0.0259228 0.0627323 0
-0.0354201 0.0712857 0
-0.0461447 0.0793027 0
-0.058024 0.0869448 0
-0.0710053 0.094288 0
-0.0850465 0.101287 0
-0.0918826 0.107762 0
-0.0996739 0.113407 0
-0.116562 0.118804 0
-0.134202 0.123137 0
-0.152394 0.125769 0
-0.170873 0.126178 0
-0.189324 0.123932 0
-0.207396 0.118698 0
-0.224726 0.110259 0
-0.240961 0.098534 0
-0.255785 0.083592 0
-0.268941 0.0656432 0
-0.276048 0.0450218 0
-0.281201 0.0222081 0
-0.288156 -0.00234368 0
-0.2923 -0.0279911 0
-0.29354 -0.0540342 0
-0.291648 -0.0796847 0
-0.286339 -0.104068 0
-0.277288 -0.126196 0
-0.264198 -0.144971 0
-0.246884 -0.159234 0
-0.225388 -0.167853 0
-0.200074 -0.169868 0
-0.187208 -0.164652 0
-0.17246 -0.152072 0
-0.142229 -0.138517 0
-0.113857 -0.121434 0
-0.0883575 -0.102098 0
-0.0663344 -0.08202 0
-0.0480391 -0.0625497 0
-0.0334134 -0.0447471 0
-0.0221686 -0.0293453 0
-0.0138755 -0.0167771 0
-0.00804379 -0.00723383 0
-0.00418073 -0.000729004 0
-0.00182778 0.00284603 0
-0.000579897 0.00367965 0
-9.26522e-05 0.00201056 0
-0.000495144 0.00895812 0
-0.00241189 0.0252789 0
-0.00614922 0.0402673 0
-0.0116227 0.0537944 0
-0.0187165 0.0658773 0
-0.0273004 0.0766646 0
-0.0372476 0.0863964 0
-0.0484484 0.0953437 0
-0.0608175 0.103737 0
-0.0742921 0.111704 0
-0.0888223 0.119226 0
-0.095903 0.126131 0
-0.103926 0.132111 0
-0.121246 0.137721 0
-0.139247 0.142094 0
-0.157707 0.144547 0
-0.176346 0.144526 0
-0.19484 0.141584 0
-0.212835 0.135385 0
-0.229978 0.125732 0
-0.245946 0.112586 0
-0.260471 0.0960694 0
-0.273371 0.0764583 0
-0.280217 0.0541531 0
-0.285344 0.0296882 0
-0.292737 0.00282166 0
-0.297737 -0.0250812 0
-0.300322 -0.0535441 0
-0.3003 -0.081875 0
-0.297364 -0.109318 0
-0.291102 -0.134975 0
-0.281042 -0.157783 0
-0.266739 -0.176524 0
-0.24789 -0.18989 0
-0.224462 -0.196613 0
-0.21317 -0.19565 0