# vtk DataFile Version 2.0
Velocidades
ASCII

DATASET STRUCTURED_GRID
DIMENSIONS   50   50   20

POINTS   50000   double
0.00568455   0.00568455   0.025
0.0174023   0.00568455   0.025
0.0298294   0.00568455   0.025
0.0429888   0.00568455   0.025
0.0569012   0.00568455   0.025
0.0715849   0.00568455   0.025
0.0870549   0.00568455   0.025
0.103323   0.00568455   0.025
0.120395   0.00568455   0.025
0.138275   0.00568455   0.025
0.156961   0.00568455   0.025
0.176443   0.00568455   0.025
0.196707   0.00568455   0.025
0.217734   0.00568455   0.025
0.239496   0.00568455   0.025
0.261959   0.00568455   0.025
0.285082   0.00568455   0.025
0.308818   0.00568455   0.025
0.333113   0.00568455   0.025
0.357906   0.00568455   0.025
0.383132   0.00568455   0.025
0.408719   0.00568455   0.025
0.434592   0.00568455   0.025
0.460672   0.00568455   0.025
0.486877   0.00568455   0.025
0.513123   0.00568455   0.025
0.539328   0.00568455   0.025
0.565408   0.00568455   0.025
0.591281   0.00568455   0.025
0.616868   0.00568455   0.025
0.642094   0.00568455   0.025
0.666887   0.00568455   0.025
0.691182   0.00568455   0.025
0.714918   0.00568455   0.025
0.738041   0.00568455   0.025
0.760504   0.00568455   0.025
0.782266   0.00568455   0.025
0.803293   0.00568455   0.025
0.823557   0.00568455   0.025
0.843039   0.00568455   0.025
0.861725   0.00568455   0.025
0.879605   0.00568455   0.025
0.896677   0.00568455   0.025
0.912945   0.00568455   0.025
0.928415   0.00568455   0.025
0.943099   0.00568455   0.025
0.957011   0.00568455   0.025
0.970171   0.00568455   0.025
0.982598   0.00568455   0.025
0.994315   0.00568455   0.025
0.00568455   0.0174023   0.025
0.0174023   0.0174023   0.025
0.0298294   0.0174023   0.025
0.0429888   0.0174023   0.025
0.0569012   0.0174023   0.025
0.0715849   0.0174023   0.025
0.0870549   0.0174023   0.025
0.103323   0.0174023   0.025
0.120395   0.0174023   0.025
0.138275   0.0174023   0.025
0.156961   0.0174023   0.025
0.176443   0.0174023   0.025
0.196707   0.0174023   0.025
0.217734   0.0174023   0.025
0.239496   0.0174023   0.025
0.261959   0.0174023   0.025
0.285082   0.0174023   0.025
0.308818   0.0174023   0.025
0.333113   0.0174023   0.025
0.357906   0.0174023   0.025
0.383132   0.0174023   0.025
0.408719   0.0174023   0.025
0.434592   0.0174023   0.025
0.460672   0.0174023   0.025
0.486877   0.0174023   0.025
0.513123   0.0174023   0.025
0.539328   0.0174023   0.025
0.565408   0.0174023   0.025
0.591281   0.0174023   0.025
0.616868   0.0174023   0.025
0.642094   0.0174023   0.025
0.666887   0.0174023   0.025
0.691182   0.0174023   0.025
0.714918   0.0174023   0.025
0.738041   0.0174023   0.025
0.760504   0.0174023   0.025
0.782266   0.0174023   0.025
0.803293   0.0174023   0.025
0.823557   0.0174023   0.025
0.843039   0.0174023   0.025
0.861725   0.0174023   0.025
0.879605   0.0174023   0.025
0.896677   0.0174023   0.025
0.912945   0.0174023   0.025
0.928415   0.0174023   0.025
0.943099   0.0174023   0.025
0.957011   0.0174023   0.025
0.970171   0.0174023   0.025
0.982598   0.0174023   0.025
0.994315   0.0174023   0.025
0.00568455   0.0298294   0.025
0.0174023   0.0298294   0.025
0.0298294   0.0298294   0.025
0.0429888   0.0298294   0.025
0.0569012   0.0298294   0.025
0.0715849   0.0298294   0.025
0.0870549   0.0298294   0.025
0.103323   0.0298294   0.025
0.120395   0.0298294   0.025
0.138275   0.0298294   0.025
0.156961   0.0298294   0.025
0.176443   0.0298294   0.025
0.196707   0.0298294   0.025
0.217734   0.0298294   0.025
0.239496   0.0298294   0.025
0.261959   0.0298294   0.025
0.285082   0.0298294   0.025
0.308818   0.0298294   0.025
0.333113   0.0298294   0.025
0.357906   0.0298294   0.025
0.383132   0.0298294   0.025
0.408719   0.0298294   0.025
0.434592   0.0298294   0.025
0.460672   0.0298294   0.025
0.486877   0.0298294   0.025
0.513123   0.0298294   0.025
0.539328   0.0298294   0.025
0.565408   0.0298294   0.025
0.591281   0.0298294   0.025
0.616868   0.0298294   0.025
0.642094   0.0298294   0.025
0.666887   0.0298294   0.025
0.691182   0.0298294   0.025
0.714918   0.0298294   0.025
0.738041   0.0298294   0.025
0.760504   0.0298294   0.025
0.782266   0.0298294   0.025
0.803293   0.0298294   0.025
0.823557   0.0298294   0.025
0.843039   0.0298294   0.025
0.861725   0.0298294   0.025
0.879605   0.0298294   0.025
0.896677   0.0298294   0.025
0.912945   0.0298294   0.025
0.928415   0.0298294   0.025
0.943099   0.0298294   0.025
0.957011   0.0298294   0.025
0.970171   0.0298294   0.025
0.982598   0.0298294   0.025
0.994315   0.0298294   0.025
0.00568455   0.0429888   0.025
0.0174023   0.0429888   0.025
0.0298294   0.0429888   0.025
0.0429888   0.0429888   0.025
0.0569012   0.0429888   0.025
0.0715849   0.0429888   0.025
0.0870549   0.0429888   0.025
0.103323   0.0429888   0.025
0.120395   0.0429888   0.025
0.138275   0.0429888   0.025
0.156961   0.0429888   0.025
0.176443   0.0429888   0.025
0.196707   0.0429888   0.025
0.217734   0.0429888   0.025
0.239496   0.0429888   0.025
0.261959   0.0429888   0.025
0.285082   0.0429888   0.025
0.308818   0.0429888   0.025
0.333113   0.0429888   0.025
0.357906   0.0429888   0.025
0.383132   0.0429888   0.025
0.408719   0.0429888   0.025
0.434592   0.0429888   0.025
0.460672   0.0429888   0.025
0.486877   0.0429888   0.025
0.513123   0.0429888   0.025
0.539328   0.0429888   0.025
0.565408   0.0429888   0.025
0.591281   0.0429888   0.025
0.616868   0.0429888   0.025
0.642094   0.0429888   0.025
0.666887   0.0429888   0.025
0.691182   0.0429888   0.025
0.714918   0.0429888   0.025
0.738041   0.0429888   0.025
0.760504   0.0429888   0.025
0.782266   0.0429888   0.025
0.803293   0.0429888   0.025
0.823557   0.0429888   0.025
0.843039   0.0429888   0.025
0.861725   0.0429888   0.025
0.879605   0.0429888   0.025
0.896677   0.0429888   0.025
0.912945   0.0429888   0.025
0.928415   0.0429888   0.025
0.943099   0.0429888   0.025
0.957011   0.0429888   0.025
0.970171   0.0429888   0.025
0.982598   0.0429888   0.025
0.994315   0.0429888   0.025
0.00568455   0.0569012   0.025
0.0174023   0.0569012   0.025
0.0298294   0.0569012   0.025
0.0429888   0.0569012   0.025
0.0569012   0.0569012   0.025
0.0715849   0.0569012   0.025
0.0870549   0.0569012   0.025
0.103323   0.0569012   0.025
0.120395   0.0569012   0.025
0.138275   0.0569012   0.025
0.156961   0.0569012   0.025
0.176443   0.0569012   0.025
0.196707   0.0569012   0.025
0.217734   0.0569012   0.025
0.239496   0.0569012   0.025
0.261959   0.0569012   0.025
0.285082   0.0569012   0.025
0.308818   0.0569012   0.025
0.333113   0.0569012   0.025
0.357906   0.0569012   0.025
0.383132   0.0569012   0.025
0.408719   0.0569012   0.025
0.434592   0.0569012   0.025
0.460672   0.0569012   0.025
0.486877   0.0569012   0.025
0.513123   0.0569012   0.025
0.539328   0.0569012   0.025
0.565408   0.0569012   0.025
0.591281   0.0569012   0.025
0.616868   0.0569012   0.025
0.642094   0.0569012   0.025
0.666887   0.0569012   0.025
0.691182   0.0569012   0.025
0.714918   0.0569012   0.025
0.738041   0.0569012   0.025
0.760504   0.0569012   0.025
0.782266   0.0569012   0.025
0.803293   0.0569012   0.025
0.823557   0.0569012   0.025
0.843039   0.0569012   0.025
0.861725   0.0569012   0.025
0.879605   0.0569012   0.025
0.896677   0.0569012   0.025
0.912945   0.0569012   0.025
0.928415   0.0569012   0.025
0.943099   0.0569012   0.025
0.957011   0.0569012   0.025
0.970171   0.0569012   0.025
0.982598   0.0569012   0.025
0.994315   0.0569012   0.025
0.00568455   0.0715849   0.025
0.0174023   0.0715849   0.025
0.0298294   0.0715849   0.025
0.0429888   0.0715849   0.025
0.0569012   0.0715849   0.025
0.0715849   0.0715849   0.025
0.0870549   0.0715849   0.025
0.103323   0.0715849   0.025
0.120395   0.0715849   0.025
0.138275   0.0715849   0.025
0.156961   0.0715849   0.025
0.176443   0.0715849   0.025
0.196707   0.0715849   0.025
0.217734   0.0715849   0.025
0.239496   0.0715849   0.025
0.261959   0.0715849   0.025
0.285082   0.0715849   0.025
0.308818   0.0715849   0.025
0.333113   0.0715849   0.025
0.357906   0.0715849   0.025
0.383132   0.0715849   0.025
0.408719   0.0715849   0.025
0.434592   0.0715849   0.025
0.460672   0.0715849   0.025
0.486877   0.0715849   0.025
0.513123   0.0715849   0.025
0.539328   0.0715849   0.025
0.565408   0.0715849   0.025
0.591281   0.0715849   0.025
0.616868   0.0715849   0.025
0.642094   0.0715849   0.025
0.666887   0.0715849   0.025
0.691182   0.0715849   0.025
0.714918   0.0715849   0.025
0.738041   0.0715849   0.025
0.760504   0.0715849   0.025
0.782266   0.0715849   0.025
0.803293   0.0715849   0.025
0.823557   0.0715849   0.025
0.843039   0.0715849   0.025
0.861725   0.0715849   0.025
0.879605   0.0715849   0.025
0.896677   0.0715849   0.025
0.912945   0.0715849   0.025
0.928415   0.0715849   0.025
0.943099   0.0715849   0.025
0.957011   0.0715849   0.025
0.970171   0.0715849   0.025
0.982598   0.0715849   0.025
0.994315   0.0715849   0.025
0.00568455   0.0870549   0.025
0.0174023   0.0870549   0.025
0.0298294   0.0870549   0.025
0.0429888   0.0870549   0.025
0.0569012   0.0870549   0.025
0.0715849   0.0870549   0.025
0.0870549   0.0870549   0.025
0.103323   0.0870549   0.025
0.120395   0.0870549   0.025
0.138275   0.0870549   0.025
0.156961   0.0870549   0.025
0.176443   0.0870549   0.025
0.196707   0.0870549   0.025
0.217734   0.0870549   0.025
0.239496   0.0870549   0.025
0.261959   0.0870549   0.025
0.285082   0.0870549   0.025
0.308818   0.0870549   0.025
0.333113   0.0870549   0.025
0.357906   0.0870549   0.025
0.383132   0.0870549   0.025
0.408719   0.0870549   0.025
0.434592   0.0870549   0.025
0.460672   0.0870549   0.025
0.486877   0.0870549   0.025
0.513123   0.0870549   0.025
0.539328   0.0870549   0.025
0.565408   0.0870549   0.025
0.591281   0.0870549   0.025
0.616868   0.0870549   0.025
0.642094   0.0870549   0.025
0.666887   0.0870549   0.025
0.691182   0.0870549   0.025
0.714918   0.0870549   0.025
0.738041   0.0870549   0.025
0.760504   0.0870549   0.025
0.782266   0.0870549   0.025
[...]
POINT_DATA   50000
VECTORS Velocidades double

-7.68554e-05 -0.00168912 0
-0.000207939 -0.00331772 0
-0.00028552 -0.00423473 0
-0.000313955 -0.00475001 0
-0.000321017 -0.00498911 0
-0.000333962 -0.00501546 0
-0.000373535 -0.00486804 0
-0.00045432 -0.00457456 0
-0.000586154 -0.00415612 0
-0.000775653 -0.00362804 0
-0.00102825 -0.00299675 0
-0.00115407 -0.00224623 0
-0.00133394 -0.00127785 0
-0.00177621 -0.000549338 0
-0.00229381 5.82545e-05 0
-0.00285929 0.000571712 0
-0.00346325 0.000987912 0
-0.00409663 0.0012899 0
-0.00474628 0.00145517 0
-0.00539326 0.00146228 0
-0.00601218 0.00129665 0
-0.00657176 0.000955645 0
-0.00703761 0.000452023 0
-0.00736385 -0.000183584 0
-0.00750866 -0.000890805 0
-0.007444 -0.00160258 0
-0.00715236 -0.00223946 0
-0.00663745 -0.00272696 0
-0.00592327 -0.00300122 0
-0.00505455 -0.00301773 0
-0.0040927 -0.00275857 0
-0.00310765 -0.00223601 0
-0.00216777 -0.00149161 0
-0.00132986 -0.000592022 0
-0.000630644 0.000376076 0
-0.000238752 0.0013041 0
2.02522e-06 0.00203252 0
0.000272499 0.00287548 0
0.000437749 0.00367522 0
0.000503969 0.00437278 0
0.000490936 0.00494233 0
0.000418458 0.00537202 0
0.000304782 0.00565577 0
0.000167082 0.00578882 0
2.25205e-05 0.00576441 0
-0.000110305 0.0055699 0
-0.000209566 0.00517969 0
-0.00024926 0.00453933 0
-0.000204944 0.00352216 0
-7.95914e-05 0.00179165 0
-0.000257138 -0.00310532 0
-0.000677376 -0.00647233 0
-0.00089465 -0.00841833 0
-0.000950727 -0.00949833 0
-0.000950669 -0.00997987 0
-0.000977582 -0.0100078 0
-0.00109059 -0.0096721 0
-0.00133116 -0.00903588 0
-0.00172804 -0.00814624 0
-0.00230152 -0.00703629 0
-0.00306954 -0.00571851 0
-0.00340579 -0.00415626 0
-0.00396951 -0.00216864 0
-0.00539805 -0.000666758 0
-0.00701042 0.000578123 0
-0.00877032 0.00162685 0
-0.0106526 0.00247441 0
-0.0126267 0.00308468 0
-0.014647 0.00340898 0
-0.0166485 0.00340024 0
-0.0185459 0.00302553 0
-0.0202369 0.00227693 0
-0.0216109 0.00117963 0
-0.0225384 -0.000202753 0
-0.0229007 -0.00176856 0
-0.0226187 -0.00334785 0
-0.0216594 -0.00477824 0
-0.0200479 -0.00590066 0
-0.0178631 -0.00657523 0
-0.015238 -0.00670122 0
-0.0123484 -0.006234 0
-0.00939228 -0.00519389 0
-0.00656425 -0.0036655 0
-0.00402966 -0.00178929 0
-0.00190128 0.000248139 0
-0.000743876 0.0022093 0
-2.42185e-06 0.00376252 0
0.000881103 0.00554824 0
0.00140364 0.00724385 0
0.00161396 0.00872361 0
0.00157385 0.00993404 0
0.0013438 0.0108512 0
0.000980288 0.0114623 0
0.000537169 0.0117562 0
6.84426e-05 0.0117161 0
-0.00036789 0.0113107 0
-0.000704055 0.0104786 0
-0.000854949 0.00909485 0
-0.00072068 0.00689291 0
-0.000284628 0.00328122 0
-0.000185442 -0.00262383 0
-0.0005891 -0.00607797 0
-0.000961412 -0.00821312 0
-0.00122067 -0.00939725 0
-0.00142817 -0.00988997 0
-0.00167606 -0.00986122 0
-0.0020481 -0.00942557 0
-0.00261096 -0.00866459 0
-0.00341517 -0.0076379 0
-0.00449917 -0.00638557 0
-0.00589525 -0.00492097 0
-0.00652759 -0.00320348 0
-0.0075004 -0.00108782 0
-0.00990148 0.000530373 0
-0.0126001 0.00185938 0
-0.0155515 0.00297019 0
-0.0187089 0.00385889 0
-0.0220122 0.00448321 0
-0.0253761 0.00478473 0
-0.0286844 0.00470558 0
-0.0317901 0.00420311 0
-0.0345212 0.00326293 0
-0.0366936 0.00190937 0
-0.0381366 0.000210469 0
-0.0386536 -0.00175688 0
-0.0381082 -0.0037549 0
-0.0364877 -0.00560439 0
-0.0338395 -0.00711985 0
-0.030291 -0.00813041 0
-0.0260484 -0.00850592 0
-0.0213795 -0.00817942 0
-0.0165848 -0.00716034 0
-0.0119612 -0.00553622 0
-0.00776542 -0.00346512 0
-0.00417978 -0.00116603 0
-0.00220693 0.00107713 0
-0.000922158 0.00290134 0
0.000637165 0.00495893 0
0.00161213 0.0069117 0
0.00208666 0.00861863 0
0.00215626 0.0100214 0
0.00191669 0.0110939 0
0.00146125 0.0118204 0
0.000881896 0.012184 0
0.000271777 0.0121586 0
-0.000272035 0.0116988 0
-0.000648089 0.0107238 0
-0.000760783 0.00909055 0
-0.000565351 0.00655608 0
-0.000195204 0.00275957 0
-0.000117117 -0.00227587 0
-0.000450302 -0.00560442 0
-0.00090076 -0.00781101 0
-0.00137305 -0.00905997 0
-0.00187744 -0.00954615 0
-0.0024787 -0.00943722 0
-0.00325698 -0.0088648 0
-0.00428807 -0.00792957 0
-0.00563646 -0.00670653 0
-0.00735477 -0.00524604 0
-0.00948509 -0.00356697 0
-0.0104788 -0.00163595 0
-0.0118952 0.000651345 0
-0.0152947 0.0024361 0
-0.0190927 0.00389872 0
-0.0232421 0.00510898 0
-0.0276746 0.00605915 0
-0.0322956 0.00669668 0
-0.0369753 0.00694876 0
-0.0415434 0.00674216 0
-0.0457909 0.00602094 0
-0.0494792 0.0047625 0
-0.0523573 0.00299068 0
-0.0542498 0.000780274 0
-0.0548808 -0.00178739 0
-0.0540523 -0.00441726 0
-0.0518016 -0.00689598 0
-0.0481948 -0.00899999 0
-0.0433975 -0.0105154 0
-0.0376724 -0.0112713 0
-0.031358 -0.0111696 0
-0.0248353 -0.0102034 0
-0.0184853 -0.00846213 0
-0.0126446 -0.00612598 0
-0.00756544 -0.00345516 0
-0.00474512 -0.000787828 0
-0.00287189 0.00147215 0
-0.000540511 0.00394697 0
0.00100283 0.00628528 0
0.0018761 0.008334 0
0.00220297 0.010028 0
0.00210878 0.0113353 0
0.00171899 0.0122331 0
0.00115878 0.0126951 0
0.000552245 0.0126827 0
1.92406e-05 0.0121372 0
-0.000334315 0.0109696 0
-0.000439859 0.00905477 0
-0.000310726 0.00624208 0
-9.8022e-05 0.00242335 0
-8.39433e-05 -0.00203094 0
-0.000381468 -0.00510912 0
-0.000899011 -0.00722324 0
-0.00158083 -0.0084229 0
-0.00242055 -0.00883203 0
-0.00345575 -0.008593 0
-0.0047486 -0.0078384 0
-0.00636874 -0.00668027 0
-0.00838289 -0.00520676 0
-0.0108493 -0.00347978 0
-0.0138133 -0.00152898 0
-0.0152225 0.000661215 0
-0.0171191 0.00314918 0
-0.0215637 0.00514358 0
-0.0264915 0.00678656 0
-0.0318557 0.00813198 0
-0.0375674 0.00915959 0
-0.0434964 0.00980089 0
-0.0494661 0.00996415 0
-0.0552515 0.00955716 0
-0.0605842 0.00850854 0
-0.0651652 0.0067874 0
-0.0686868 0.00441931 0
-0.070987 0.00149285 0
-0.0717169 -0.00187791 0
-0.0706251 -0.00534848 0
-0.0678105 -0.00866347 0
-0.0633491 -0.0115516 0
-0.0574307 -0.0137455 0
-0.0503562 -0.0150241 0
-0.0425153 -0.0152493 0
-0.0343516 -0.014391 0
-0.0263167 -0.0125372 0
-0.0188219 -0.00989004 0
-0.0121939 -0.00675404 0
-0.00849399 -0.00352414 0
-0.0059805 -0.000651672 0
-0.0027532 0.00238668 0
-0.000501478 0.00523656 0
0.000923197 0.00774016 0
0.00166654 0.00982483 0
0.00187647 0.011449 0
0.00170339 0.0125787 0
0.00129705 0.0131758 0
0.000800872 0.0131917 0
0.000342653 0.0125633 0
1.99136e-05 0.011214 0
-0.000120896 0.00906524 0
-0.000105453 0.00606789 0
-3.34817e-05 0.0022646 0
-7.8088e-05 -0.00182187 0
-0.000391702 -0.00456189 0
-0.00101301 -0.00642874 0
-0.00192899 -0.00743309 0
-0.0031393 -0.00765298 0
-0.00466705 -0.00720166 0
-0.00655595 -0.006201 0
-0.00886188 -0.00476432 0
-0.0116442 -0.00298705 0
-0.014958 -0.000941324 0
-0.0188453 0.00132902 0
-0.020716 0.00381438 0
-0.0231281 0.00652305 0
-0.0286735 0.00876212 0
-0.034772 0.0106253 0
-0.0413757 0.0121355 0
-0.0483757 0.0132488 0
-0.0556062 0.013874 0
-0.0628447 0.0138959 0
-0.0698145 0.0132009 0
-0.0761934 0.0117017 0
-0.0816317 0.00936095 0
-0.085777 0.00621009 0
-0.0884704 0.00236043 0
-0.089313 -0.00202226 0
-0.0880292 -0.00653601 0
-0.0847619 -0.0108923 0
-0.079583 -0.0147645 0
-0.0726893 -0.0178227 0
-0.064401 -0.0197861 0
-0.0551408 -0.0204672 0
-0.0454002 -0.0198036 0
-0.035693 -0.0178738 0
-0.0265048 -0.0148976 0
-0.0182441 -0.0112212 0
-0.0136204 -0.00729627 0
-0.0104022 -0.00362916 0
-0.00612577 0.000117274 0
-0.00299754 0.00360294 0
-0.000846519 0.00667579 0
0.000486292 0.00925601 0
0.0011632 0.0112886 0
0.00135154 0.012725 0
0.00121741 0.0135156 0
0.000915482 0.0136065 0
0.000576591 0.0129414 0
0.000294315 0.0114699 0
0.000113813 0.00916463 0
2.99772e-05 0.00604899 0
4.30276e-06 0.00222821 0
-9.0431e-05 -0.00159214 0
-0.000467063 -0.00389133 0
-0.00124638 -0.00536216 0
-0.00244436 -0.00601593 0
-0.00407194 -0.00591153 0
-0.00614694 -0.00514112 0
-0.00869899 -0.00381201 0
-0.0117686 -0.00203121 0
-0.0154027 0.00010516 0
-0.0196468 0.00251797 0
-0.0245343 0.00514816 0
-0.0269043 0.00795709 0
-0.0298639 0.0109009 0
-0.0365668 0.0134127 0
-0.0438806 0.0155272 0
-0.0517525 0.0172224 0
-0.0600532 0.0184196 0
-0.0685829 0.0189973 0
-0.0770768 0.0188132 0
-0.0852125 0.0177311 0
-0.0926238 0.0156493 0
-0.0989215 0.0125272 0
-0.103722 0.00840743 0
-0.106822 0.00343091 0
-0.107823 -0.00217816 0
-0.106478 -0.00793011 0
-0.10292 -0.0135337 0
-0.0971998 -0.0186005 0
-0.0895009 -0.0227294 0
-0.0801437 -0.0255701 0
-0.0695669 -0.0268741 0
-0.0582971 -0.0265338 0
-0.0469051 -0.0246062 0
-0.0359532 -0.0213172 0
-0.0259414 -0.0170481 0
-0.0203311 -0.0123051 0
-0.0163255 -0.00765835 0
-0.0108109 -0.00306531 0
-0.00660345 0.00117886 0
-0.00352325 0.00494103 0
-0.0014098 0.00813409 0
-9.5131e-05 0.010685 0
0.000598444 0.0125274 0
0.000848621 0.0136004 0
0.000819542 0.0138497 0
0.000648741 0.013232 0
0.000437355 0.0117254 0
0.000246813 0.00934353 0
0.000105208 0.00615033 0
2.42215e-05 0.00226772 0
-0.00011524 -0.00129697 0
-0.00059331 -0.00301378 0
-0.00158593 -0.00392938 0
-0.00312343 -0.0040712 0
-0.00522389 -0.00349637 0
-0.00790207 -0.00228556 0
-0.0111767 -0.000532573 0
-0.0150739 0.00166623 0
-0.019626 0.00421963 0
-0.0248661 0.00704539 0
-0.0308158 0.0100702 0
-0.0337142 0.0132255 0
-0.0372479 0.0164157 0
-0.0451599 0.0192227 0
-0.0537312 0.0216105 0
-0.0628997 0.0235 0
-0.0725144 0.0247677 0
-0.082345 0.0252556 0
-0.0920906 0.0247916 0
-0.101392 0.0232175 0
-0.109851 0.0204198 0
-0.117052 0.0163591 0
-0.122592 0.0110936 0
-0.126138 0.00479599 0
-0.127371 -0.00225595 0
-0.12616 -0.00943408 0
-0.122528 -0.0164968 0
-0.116483 -0.0229859 0
-0.108179 -0.0284212 0
-0.097918 -0.0323725 0
-0.086136 -0.0345163 0
-0.0733827 -0.0346828 0
-0.06028 -0.0328884 0
-0.0474698 -0.0293489 0
-0.0355545 -0.0244672 0
-0.028876 -0.018799 0
-0.0239786 -0.0129867 0
-0.0169913 -0.00741993 0
-0.0114586 -0.00229495 0
-0.00721124 0.00228888 0
-0.0041016 0.00623366 0
-0.00196416 0.00944098 0
-0.000614502 0.0118218 0
0.000136421 0.0133026 0
0.000465768 0.0138295 0
0.000525626 0.013373 0
0.000435838 0.0119349 0
0.000284099 0.00955605 0
0.000133106 0.00631989 0
3.2198e-05 0.00234873 0
-0.000149138 -0.000898761 0
-0.000759414 -0.00184466 0
-0.00201484 -0.00202293 0
-0.00394865 -0.00148119 0
-0.00657884 -0.000282897 0
-0.00991478 0.00149654 0
-0.0139646 0.00377534 0
-0.0187408 0.00647037 0
-0.0242613 0.00949976 0
-0.0305453 0.0127822 0
-0.0376022 0.0162324 0
-0.0410484 0.0197531 0
-0.0451758 0.0232 0
-0.0543381 0.0263202 0
-0.0642009 0.0289943 0
-0.0746883 0.0310762 0
-0.0856282 0.0323902 0
-0.0967638 0.0327374 0
-0.107766 0.0319149 0
-0.118252 0.0297446 0
-0.127802 0.0261053 0
-0.135988 0.0209627 0
-0.142394 0.014392 0
-0.146443 0.00659455 0
-0.148009 -0.00211126 0
-0.147181 -0.0108988 0
-0.143737 -0.0196426 0
-0.137626 -0.0278039 0
-0.128956 -0.0348166 0
-0.11799 -0.0401608 0
-0.105144 -0.0434219 0
-0.0909745 -0.0443464 0
-0.0761454 -0.0428856 0
-0.061377 -0.03922 0
-0.047383 -0.0337541 0
-0.0395429 -0.0270818 0
-0.0336268 -0.0199238 0
-0.0248776 -0.0132745 0
-0.0177209 -0.00714412 0
-0.0120256 -0.00158521 0
-0.00767326 0.00328272 0
-0.00450693 0.00732327 0
-0.00233567 0.010416 0
-0.000955344 0.0124703 0
-0.000169032 0.0134298 0
0.000198668 0.0132751 0
0.000294828 0.0120247 0
0.000238248 0.00973614 0
0.000124347 0.00650259 0
3.18704e-05 0.00244493 0
-0.000189908 -0.000364096 0
-0.000956597 -0.000302794 0
-0.00251579 0.000467251 0
-0.00489531 0.00187848 0
-0.0081059 0.00385935 0
-0.0121471 0.00633822 0
-0.0170149 0.00924586 0
-0.0227079 0.0125153 0
-0.02923 0.0160782 0
-0.0365874 0.0198582 0
-0.0447774 0.0237613 0
-0.0487807 0.0276642 0
-0.0535123 0.0313794 0
-0.0639504 0.0348267 0
-0.0751243 0.0377917 0
-0.0869414 0.0400541 0
-0.0992097 0.0413813 0
-0.111652 0.0415318 0
-0.123921 0.0402733 0
-0.135619 0.037411 0
-0.146321 0.0328198 0
-0.155594 0.0264729 0
-0.163018 0.0184617 0
-0.16763 0.00900756 0
-0.16964 -0.00154573 0
-0.169483 -0.0121248 0
-0.166522 -0.022783 0
-0.160641 -0.0328875 0
-0.151888 -0.0417843 0
-0.140468 -0.0488546 0
-0.126757 -0.0535773 0
-0.111296 -0.0555908 0
-0.0947719 -0.0547509 0
-0.0779741 -0.0511689 0
-0.0617292 -0.0452204 0
-0.0526405 -0.0375164 0
-0.0455611 -0.0288536 0
-0.0346991 -0.021041 0
-0.0255607 -0.0137732 0
-0.0180892 -0.00705356 0
-0.0122119 -0.00104639 0
-0.00778387 0.0040535 0
-0.00460492 0.00808078 0
-0.0024495 0.0109194 0
-0.00109279 0.012505 0
-0.000327803 0.0128223 0
2.62691e-05 0.0119004 0
0.000122248 0.00980777 0
8.7144e-05 0.00664485 0
2.55954e-05 0.00253508 0
-0.000235754 0.000337099 0
-0.00117685 0.00168688 0
-0.00307064 0.00364574 0
-0.00593341 0.0061281 0
-0.00976263 0.00905643 0
-0.0145435 0.0123655 0
-0.0202572 0.0160024 0
-0.0268877 0.0199207 0
-0.0344254 0.0240707 0
-0.0428644 0.0283854 0
-0.0521919 0.0327659 0
-0.0567506 0.0370669 0
-0.0620861 0.0410642 0
-0.0738039 0.0448489 0
-0.0862873 0.0481017 0
-0.0994258 0.050524 0
-0.11301 0.0518252 0
-0.126749 0.0517225 0
-0.140286 0.0499566 0
-0.153221 0.0463201 0
-0.165131 0.040687 0
-0.175585 0.0330388 0
-0.184166 0.0234792 0
-0.189386 0.012241 0
-0.191948 -0.000320015 0
-0.192753 -0.0128744 0
-0.19058 -0.0256857 0
-0.18525 -0.0380162 0
-0.176742 -0.0491281 0
-0.165191 -0.0583008 0
-0.150904 -0.0648936 0
-0.134376 -0.0684137 0
-0.116287 -0.0685859 0
-0.0974691 -0.0654102 0
-0.07885 -0.0591892 0
-0.068463 -0.0505146 0
-0.0600704 -0.0402423 0
-0.0466862 -0.0312249 0
-0.0351526 -0.022673 0
-0.0255316 -0.0145631 0
-0.0178106 -0.00714445 0
-0.0118585 -0.000699701 0
-0.0074612 0.00454229 0
-0.00436483 0.00842824 0
-0.0023086 0.0108779 0
-0.00104634 0.0118742 0
-0.000357838 0.0114524 0
-5.30855e-05 0.00968976 0
2.75546e-05 0.00669555 0
1.49707e-05 0.00260138 0
-0.000284871 0.00123095 0
-0.00141174 0.00418964 0
-0.00365908 0.00760408 0
-0.00702723 0.0113733 0
-0.0114958 0.0154184 0
-0.0170318 0.0196867 0
-0.0235992 0.0241479 0
-0.0311664 0.0287833 0
-0.0397108 0.033568 0
-0.0492154 0.0384498 0
-0.0596594 0.0433291 0
-0.0647597 0.0480436 0
-0.0706858 0.0523396 0
-0.0836587 0.0564677 0
-0.097421 0.0599978 0
-0.111844 0.0625525 0
-0.126705 0.0637851 0
-0.141703 0.0633745 0
-0.156483 0.0610386 0
-0.170648 0.0565605 0
-0.183783 0.049816 0
-0.195467 0.0407942 0
-0.20529 0.0296081 0
-0.211123 0.016495 0
-0.214315 0.00181745 0
-0.216335 -0.012896 0
-0.215231 -0.0280879 0
-0.210779 -0.0429172 0
-0.20289 -0.0565759 0
-0.191611 -0.0682473 0
-0.177155 -0.0771669 0
-0.159931 -0.0826919 0
-0.140563 -0.084382 0
-0.119882 -0.0820759 0
-0.0988816 -0.0759456 0
-0.0872304 -0.0665067 0
-0.0773933 -0.0546332 0
-0.0610421 -0.0444194 0
-0.0466661 -0.0344153 0
-0.0344916 -0.0246342 0
-0.0245779 -0.0154689 0
-0.0168092 -0.00732712 0
-0.0109554 -0.000524916 0
-0.00672881 0.0047319 0
-0.00382609 0.00833719 0
-0.00195517 0.0102662 0
-0.000850663 0.0105573 0
-0.000281037 0.00929658 0
-5.06254e-05 0.00660511 0
9.92429e-07 0.00262825 0
-0.000335209 0.00233791 0
-0.0016516 0.00725599 0
-0.0042575 0.0124125 0
-0.00813443 0.0176942 0
-0.0132411 0.0230272 0
-0.019524 0.0283797 0
-0.0269277 0.0337536 0
-0.0354048 0.0391666 0
-0.0449197 0.0446265 0
-0.0554458 0.0501019 0
-0.0669561 0.0554981 0
-0.0725707 0.0606407 0
-0.0790581 0.0652537 0
-0.0932251 0.0697256 0
-0.108197 0.0735145 0
-0.123827 0.0761672 0
-0.139882 0.0772854 0
-0.156058 0.0765139 0
-0.172002 0.0735519 0
-0.187326 0.0681762 0
-0.201626 0.0602659 0
-0.214496 0.0498184 0
-0.225543 0.0369561 0
-0.23194 0.0219208 0
-0.235785 0.00508547 0
-0.239182 -0.0119603 0
-0.239366 -0.0297203 0
-0.236096 -0.0472771 0
-0.229222 -0.0637765 0
-0.218695 -0.0783237 0
-0.204605 -0.0900394 0
-0.18723 -0.0981248 0
-0.167081 -0.101947 0
-0.144916 -0.101133 0
-0.121732 -0.0956561 0
-0.108993 -0.0858766 0
-0.0976407 -0.0726117 0
-0.0779002 -0.0612667 0
-0.060252 -0.0496233 0
-0.0451214 -0.0378464 0
-0.0326497 -0.0265414 0
-0.0227449 -0.0162835 0
-0.0151659 -0.00750524 0
-0.00959174 -0.000485074 0
-0.00567304 0.0046319 0
-0.00306638 0.00780571 0
-0.00145531 0.009075 0
-0.000561022 0.00853532 0
-0.000146377 0.00632265 0
-1.59872e-05 0.00260094 0
-0.000384349 0.00367033 0
-0.00188512 0.0109154 0
-0.0048384 0.0181106 0
-0.00920566 0.0251339 0
-0.0149236 0.0319241 0
-0.0219168 0.03848 0
-0.0301103 0.0448467 0
-0.0394402 0.0510892 0
-0.0498583 0.0572567 0
-0.0613295 0.063346 0
-0.0738215 0.0692727 0
-0.0799085 0.0748558 0
-0.086909 0.0798037 0
-0.102164 0.084611 0
-0.118226 0.08863 0
-0.134932 0.0913378 0
-0.15204 0.0922897 0
-0.169243 0.0911011 0
-0.186192 0.0874561 0
-0.202508 0.0811286 0
-0.2178 0.0720037 0
-0.231684 0.0600912 0
-0.243797 0.0455284 0
-0.250638 0.028571 0
-0.255083 0.00961348 0
-0.259879 -0.00990379 0
-0.261463 -0.0303426 0
-0.259616 -0.0507694 0
-0.254139 -0.0703155 0
-0.244886 -0.0880414 0
-0.231806 -0.10298 0
-0.215004 -0.114189 0
-0.194809 -0.120832 0
-0.171823 -0.122286 0
-0.146947 -0.118254 0
-0.133496 -0.108849 0
-0.12068 -0.0947168 0
-0.0972618 -0.082368 0
-0.0760168 -0.0689098 0
-0.0575801 -0.0548053 0
-0.0421932 -0.0409358 0
-0.0298138 -0.0280885 0
-0.0202098 -0.0168492 0
-0.0130377 -0.00759799 0
-0.00790444 -0.000538301 0
-0.00441243 0.00426334 0
-0.00218866 0.00684088 0
-0.000900397 0.00729898 0
-0.00026206 0.00579103 0
-3.63628e-05 0.00250345 0
-0.000429494 0.00522955 0
-0.00209936 0.0151696 0
-0.0053705 0.0246979 0
-0.0101852 0.0336876 0
-0.0164589 0.0420977 0
-0.0240948 0.0499681 0
-0.0329989 0.057399 0
-0.043091 0.0645137 0
-0.0543109 0.0714127 0
-0.0666146 0.0781286 0
-0.0799656 0.0845933 0
-0.0864662 0.0906243 0
-0.0939099 0.0959201 0
-0.110093 0.101041 0
-0.127067 0.105248 0
-0.144652 0.107955 0
-0.162595 0.108676 0
-0.180588 0.107002 0
-0.198281 0.102605 0
-0.215304 0.0952612 0
-0.231282 0.0848672 0
-0.245861 0.0714549 0
-0.258723 0.0551893 0
-0.265818 0.0363555 0
-0.270725 0.0153849 0
-0.276766 -0.00667275 0
-0.279723 -0.0297878 0
-0.27943 -0.053098 0
-0.275659 -0.0757562 0
-0.268181 -0.0968268 0
-0.256799 -0.115301 0
-0.24142 -0.130128 0
-0.22213 -0.140286 0
-0.199287 -0.144886 0
-0.173579 -0.143307 0
-0.160021 -0.135325 0
-0.145986 -0.12127 0
-0.118904 -0.108129 0
-0.093963 -0.0927758 0
-0.0719956 -0.0760844 0
-0.0533855 -0.0592499 0
-0.0381939 -0.0433177 0
-0.0262406 -0.0290766 0
-0.0171858 -0.0170511 0
-0.0106048 -0.00753451 0
-0.0060482 -0.000639212 0
-0.00308274 0.00365432 0
-0.00131512 0.00545683 0
-0.000403633 0.00494004 0
-6.13148e-05 0.0023157 0
-0.000467561 0.00700307 0
-0.00228015 0.0199855 0
-0.0058199 0.0321247 0
-0.0110129 0.0432921 0
-0.0177564 0.0534734 0
-0.0259346 0.0627597 0
-0.0354358 0.0713167 0
-0.0461645 0.0793372 0
-0.0580481 0.0869825 0
-0.0710337 0.0943287 0
-0.0850792 0.10133 0
-0.0919175 0.107807 0
-0.0997108 0.113453 0
-0.116603 0.118849 0
-0.134245 0.123181 0
-0.152438 0.12581 0
-0.170918 0.126215 0
-0.189367 0.123964 0
-0.207438 0.118724 0
-0.224764 0.110278 0
-0.240996 0.0985464 0
-0.255816 0.083598 0
-0.268968 0.0656436 0
-0.276072 0.0450172 0
-0.281223 0.0221995 0
-0.288175 -0.0023563 0
-0.292318 -0.028007 0
-0.293557 -0.0540531 0
-0.291666 -0.0797064 0
-0.286358 -0.104093 0
-0.277309 -0.126224 0
-0.264221 -0.145003 0
-0.24691 -0.159269 0
-0.225416 -0.167892 0
-0.200103 -0.169909 0
-0.187239 -0.164695 0
-0.17249 -0.152115 0
-0.142256 -0.138558 0
-0.11388 -0.121471 0
-0.0883767 -0.102132 0
-0.0663498 -0.0820482 0
-0.048051 -0.0625727 0
-0.0334222 -0.0447653 0
-0.0221748 -0.0293589 0
-0.0138796 -0.0167868 0
-0.00804632 -0.00724034 0
-0.00418214 -0.00073295 0
-0.00182845 0.00284398 0
-0.000580131 0.00367886 0
-9.26947e-05 0.00201047 0
-0.000495375 0.00896233 0
-0.002413 0.0252906 0
-0.00615199 0.0402856 0
-0.0116278 0.0538183 0
-0.0187246 0.0659061 0
-0.0273119 0.0766975 0
-0.0372627 0.0864331 0
-0.0484674 0.0953838 0
-0.0608405 0.10378 0
-0.0743191 0.11175 0
-0.088853 0.119273 0
-0.0959356 0.12618 0
-0.103961 0.13216 0
-0.121283 0.137769 0
-0.139285 0.14214 0
-0.157745 0.144589 0
-0.176384 0.144563 0
-0.194875 0.141613 0
-0.212867 0.135407 0
-0.230006 0.125748 0
-0.245968 0.112594 0
-0.260488 0.096071 0
-0.273383 0.0764544 0
-0.280226 0.0541448 0
-0.28535 0.0296765 0
-0.292741 0.0028069 0
-0.297738 -0.0250982 0
-0.300323 -0.0535629 0
-0.300301 -0.0818957 0
-0.297368 -0.109341 0
-0.291108 -0.135 0
-0.281052 -0.157811 0
-0.266753 -0.176556 0
-0.247908 -0.189925 0
-0.224483 -0.196652 0
-0.213194 -0.195693 0