# vtk DataFile Version 2.0
Velocidades
ASCII

DATASET STRUCTURED_GRID
DIMENSIONS   50   50   20

POINTS   50000   double
0.00568455   0.00568455   0.025
0.0174023   0.00568455   0.025
0.0298294   0.00568455   0.025
0.0429888   0.00568455   0.025
0.0569012   0.00568455   0.025
0.0715849   0.00568455   0.025
0.0870549   0.00568455   0.025
0.103323   0.00568455   0.025
0.120395   0.00568455   0.025
0.138275   0.00568455   0.025
0.156961   0.00568455   0.025
0.176443   0.00568455   0.025
0.196707   0.00568455   0.025
0.217734   0.00568455   0.025
0.239496   0.00568455   0.025
0.261959   0.00568455   0.025
0.285082   0.00568455   0.025
0.308818   0.00568455   0.025
0.333113   0.00568455   0.025
0.357906   0.00568455   0.025
0.383132   0.00568455   0.025
0.408719   0.00568455   0.025
0.434592   0.00568455   0.025
0.460672   0.00568455   0.025
0.486877   0.00568455   0.025
0.513123   0.00568455   0.025
0.539328   0.00568455   0.025
0.565408   0.00568455   0.025
0.591281   0.00568455   0.025
0.616868   0.00568455   0.025
0.642094   0.00568455   0.025
0.666887   0.00568455   0.025
0.691182   0.00568455   0.025
0.714918   0.00568455   0.025
0.738041   0.00568455   0.025
0.760504   0.00568455   0.025
0.782266   0.00568455   0.025
0.803293   0.00568455   0.025
0.823557   0.00568455   0.025
0.843039   0.00568455   0.025
0.861725   0.00568455   0.025
0.879605   0.00568455   0.025
0.896677   0.00568455   0.025
0.912945   0.00568455   0.025
0.928415   0.00568455   0.025
0.943099   0.00568455   0.025
0.957011   0.00568455   0.025
0.970171   0.00568455   0.025
0.982598   0.00568455   0.025
0.994315   0.00568455   0.025
0.00568455   0.0174023   0.025
0.0174023   0.0174023   0.025
0.0298294   0.0174023   0.025
0.0429888   0.0174023   0.025
0.0569012   0.0174023   0.025
0.0715849   0.0174023   0.025
0.0870549   0.0174023   0.025
0.103323   0.0174023   0.025
0.120395   0.0174023   0.025
0.138275   0.0174023   0.025
0.156961   0.0174023   0.025
0.176443   0.0174023   0.025
0.196707   0.0174023   0.025
0.217734   0.0174023   0.025
0.239496   0.0174023   0.025
0.261959   0.0174023   0.025
0.285082   0.0174023   0.025
0.308818   0.0174023   0.025
0.333113   0.0174023   0.025
0.357906   0.0174023   0.025
0.383132   0.0174023   0.025
0.408719   0.0174023   0.025
0.434592   0.0174023   0.025
0.460672   0.0174023   0.025
0.486877   0.0174023   0.025
0.513123   0.0174023   0.025
0.539328   0.0174023   0.025
0.565408   0.0174023   0.025
0.591281   0.0174023   0.025
0.616868   0.0174023   0.025
0.642094   0.0174023   0.025
0.666887   0.0174023   0.025
0.691182   0.0174023   0.025
0.714918   0.0174023   0.025
0.738041   0.0174023   0.025
0.760504   0.0174023   0.025
0.782266   0.0174023   0.025
0.803293   0.0174023   0.025
0.823557   0.0174023   0.025
0.843039   0.0174023   0.025
0.861725   0.0174023   0.025
0.879605   0.0174023   0.025
0.896677   0.0174023   0.025
0.912945   0.0174023   0.025
0.928415   0.0174023   0.025
0.943099   0.0174023   0.025
0.957011   0.0174023   0.025
0.970171   0.0174023   0.025
0.982598   0.0174023   0.025
0.994315   0.0174023   0.025
0.00568455   0.0298294   0.025
0.0174023   0.0298294   0.025
0.0298294   0.0298294   0.025
0.0429888   0.0298294   0.025
0.0569012   0.0298294   0.025
0.0715849   0.0298294   0.025
0.0870549   0.0298294   0.025
0.103323   0.0298294   0.025
0.120395   0.0298294   0.025
0.138275   0.0298294   0.025
0.156961   0.0298294   0.025
0.176443   0.0298294   0.025
0.196707   0.0298294   0.025
0.217734   0.0298294   0.025
0.239496   0.0298294   0.025
0.261959   0.0298294   0.025
0.285082   0.0298294   0.025
0.308818   0.0298294   0.025
0.333113   0.0298294   0.025
0.357906   0.0298294   0.025
0.383132   0.0298294   0.025
0.408719   0.0298294   0.025
0.434592   0.0298294   0.025
0.460672   0.0298294   0.025
0.486877   0.0298294   0.025
0.513123   0.0298294   0.025
0.539328   0.0298294   0.025
0.565408   0.0298294   0.025
0.591281   0.0298294   0.025
0.616868   0.0298294   0.025
0.642094   0.0298294   0.025
0.666887   0.0298294   0.025
0.691182   0.0298294   0.025
0.714918   0.0298294   0.025
0.738041   0.0298294   0.025
0.760504   0.0298294   0.025
0.782266   0.0298294   0.025
0.803293   0.0298294   0.025
0.823557   0.0298294   0.025
0.843039   0.0298294   0.025
0.861725   0.0298294   0.025
0.879605   0.0298294   0.025
0.896677   0.0298294   0.025
0.912945   0.0298294   0.025
0.928415   0.0298294   0.025
0.943099   0.0298294   0.025
0.957011   0.0298294   0.025
0.970171   0.0298294   0.025
0.982598   0.0298294   0.025
0.994315   0.0298294   0.025
0.00568455   0.0429888   0.025
0.0174023   0.0429888   0.025
0.0298294   0.0429888   0.025
0.0429888   0.0429888   0.025
0.0569012   0.0429888   0.025
0.0715849   0.0429888   0.025
0.0870549   0.0429888   0.025
0.103323   0.0429888   0.025
0.120395   0.0429888   0.025
0.138275   0.0429888   0.025
0.156961   0.0429888   0.025
0.176443   0.0429888   0.025
0.196707   0.0429888   0.025
0.217734   0.0429888   0.025
0.239496   0.0429888   0.025
0.261959   0.0429888   0.025
0.285082   0.0429888   0.025
0.308818   0.0429888   0.025
0.333113   0.0429888   0.025
0.357906   0.0429888   0.025
0.383132   0.0429888   0.025
0.408719   0.0429888   0.025
0.434592   0.0429888   0.025
0.460672   0.0429888   0.025
0.486877   0.0429888   0.025
0.513123   0.0429888   0.025
0.539328   0.0429888   0.025
0.565408   0.0429888   0.025
0.591281   0.0429888   0.025
0.616868   0.0429888   0.025
0.642094   0.0429888   0.025
0.666887   0.0429888   0.025
0.691182   0.0429888   0.025
0.714918   0.0429888   0.025
0.738041   0.0429888   0.025
0.760504   0.0429888   0.025
0.782266   0.0429888   0.025
0.803293   0.0429888   0.025
0.823557   0.0429888   0.025
0.843039   0.0429888   0.025
0.861725   0.0429888   0.025
0.879605   0.0429888   0.025
0.896677   0.0429888   0.025
0.912945   0.0429888   0.025
0.928415   0.0429888   0.025
0.943099   0.0429888   0.025
0.957011   0.0429888   0.025
0.970171   0.0429888   0.025
0.982598   0.0429888   0.025
0.994315   0.0429888   0.025
0.00568455   0.0569012   0.025
0.0174023   0.0569012   0.025
0.0298294   0.0569012   0.025
0.0429888   0.0569012   0.025
0.0569012   0.0569012   0.025
0.0715849   0.0569012   0.025
0.0870549   0.0569012   0.025
0.103323   0.0569012   0.025
0.120395   0.0569012   0.025
0.138275   0.0569012   0.025
0.156961   0.0569012   0.025
0.176443   0.0569012   0.025
0.196707   0.0569012   0.025
0.217734   0.0569012   0.025
0.239496   0.0569012   0.025
0.261959   0.0569012   0.025
0.285082   0.0569012   0.025
0.308818   0.0569012   0.025
0.333113   0.0569012   0.025
0.357906   0.0569012   0.025
0.383132   0.0569012   0.025
0.408719   0.0569012   0.025
0.434592   0.0569012   0.025
0.460672   0.0569012   0.025
0.486877   0.0569012   0.025
0.513123   0.0569012   0.025
0.539328   0.0569012   0.025
0.565408   0.0569012   0.025
0.591281   0.0569012   0.025
0.616868   0.0569012   0.025
0.642094   0.0569012   0.025
0.666887   0.0569012   0.025
0.691182   0.0569012   0.025
0.714918   0.0569012   0.025
0.738041   0.0569012   0.025
0.760504   0.0569012   0.025
0.782266   0.0569012   0.025
0.803293   0.0569012   0.025
0.823557   0.0569012   0.025
0.843039   0.0569012   0.025
0.861725   0.0569012   0.025
0.879605   0.0569012   0.025
0.896677   0.0569012   0.025
0.912945   0.0569012   0.025
0.928415   0.0569012   0.025
0.943099   0.0569012   0.025
0.957011   0.0569012   0.025
0.970171   0.0569012   0.025
0.982598   0.0569012   0.025
0.994315   0.0569012   0.025
0.00568455   0.0715849   0.025
0.0174023   0.0715849   0.025
0.0298294   0.0715849   0.025
0.0429888   0.0715849   0.025
0.0569012   0.0715849   0.025
0.0715849   0.0715849   0.025
0.0870549   0.0715849   0.025
0.103323   0.0715849   0.025
0.120395   0.0715849   0.025
0.138275   0.0715849   0.025
0.156961   0.0715849   0.025
0.176443   0.0715849   0.025
0.196707   0.0715849   0.025
0.217734   0.0715849   0.025
0.239496   0.0715849   0.025
0.261959   0.0715849   0.025
0.285082   0.0715849   0.025
0.308818   0.0715849   0.025
0.333113   0.0715849   0.025
0.357906   0.0715849   0.025
0.383132   0.0715849   0.025
0.408719   0.0715849   0.025
0.434592   0.0715849   0.025
0.460672   0.0715849   0.025
0.486877   0.0715849   0.025
0.513123   0.0715849   0.025
0.539328   0.0715849   0.025
0.565408   0.0715849   0.025
0.591281   0.0715849   0.025
0.616868   0.0715849   0.025
0.642094   0.0715849   0.025
0.666887   0.0715849   0.025
0.691182   0.0715849   0.025
0.714918   0.0715849   0.025
0.738041   0.0715849   0.025
0.760504   0.0715849   0.025
0.782266   0.0715849   0.025
0.803293   0.0715849   0.025
0.823557   0.0715849   0.025
0.843039   0.0715849   0.025
0.861725   0.0715849   0.025
0.879605   0.0715849   0.025
0.896677   0.0715849   0.025
0.912945   0.0715849   0.025
0.928415   0.0715849   0.025
0.943099   0.0715849   0.025
0.957011   0.0715849   0.025
0.970171   0.0715849   0.025
0.982598   0.0715849   0.025
0.994315   0.0715849   0.025
0.00568455   0.0870549   0.025
0.0174023   0.0870549   0.025
0.0298294   0.0870549   0.025
0.0429888   0.0870549   0.025
0.0569012   0.0870549   0.025
0.0715849   0.0870549   0.025
0.0870549   0.0870549   0.025
0.103323   0.0870549   0.025
0.120395   0.0870549   0.025
0.138275   0.0870549   0.025
0.156961   0.0870549   0.025
0.176443   0.0870549   0.025
0.196707   0.0870549   0.025
0.217734   0.0870549   0.025
0.239496   0.0870549   0.025
0.261959   0.0870549   0.025
0.285082   0.0870549   0.025
0.308818   0.0870549   0.025
0.333113   0.0870549   0.025
0.357906   0.0870549   0.025
0.383132   0.0870549   0.025
0.408719   0.0870549   0.025
0.434592   0.0870549   0.025
0.460672   0.0870549   0.025
0.486877   0.0870549   0.025
0.513123   0.0870549   0.025
0.539328   0.0870549   0.025
0.565408   0.0870549   0.025
0.591281   0.0870549   0.025
0.616868   0.0870549   0.025
0.642094   0.0870549   0.025
0.666887   0.0870549   0.025
0.691182   0.0870549   0.025
0.714918   0.0870549   0.025
0.738041   0.0870549   0.025
0.760504   0.0870549   0.025
0.782266   0.0870549   0.025
[...]
POINT_DATA   50000
VECTORS Velocidades double

-7.68409e-05 -0.00168878 0
-0.000207901 -0.00331704 0
-0.000285472 -0.00423385 0
-0.000313912 -0.00474902 0
-0.000320986 -0.00498807 0
-0.000333943 -0.00501442 0
-0.000373524 -0.00486706 0
-0.000454308 -0.00457368 0
-0.000586128 -0.00415538 0
-0.000775598 -0.00362746 0
-0.00102815 -0.00299636 0
-0.00115395 -0.00224604 0
-0.00133379 -0.0012779 0
-0.00177598 -0.000549581 0
-0.00229349 5.78406e-05 0
-0.00285887 0.000571147 0
-0.00346273 0.000987223 0
-0.00409599 0.00128912 0
-0.00474552 0.00145434 0
-0.00539238 0.00146144 0
-0.00601118 0.00129586 0
-0.00657064 0.000954945 0
-0.00703638 0.00045146 0
-0.00736255 -0.000183976 0
-0.00750731 -0.000891017 0
-0.00744262 -0.0016026 0
-0.007151 -0.00223929 0
-0.00663616 -0.00272662 0
-0.00592208 -0.00300075 0
-0.0050535 -0.00301718 0
-0.00409181 -0.002758 0
-0.00310693 -0.00223545 0
-0.00216722 -0.00149112 0
-0.00132947 -0.000591631 0
-0.000630387 0.000376346 0
-0.000238572 0.00130425 0
2.15622e-06 0.00203257 0
0.000272576 0.00287542 0
0.000437788 0.00367506 0
0.000503984 0.00437253 0
0.000490937 0.00494201 0
0.000418452 0.00537164 0
0.000304776 0.00565535 0
0.000167081 0.00578838 0
2.25258e-05 0.00576396 0
-0.000110292 0.00556945 0
-0.000209547 0.00517927 0
-0.000249239 0.00453896 0
-0.000204927 0.00352187 0
-7.95848e-05 0.0017915 0
-0.000257089 -0.0031047 0
-0.000677252 -0.006471 0
-0.000894502 -0.00841657 0
-0.000950599 -0.00949633 0
-0.000950581 -0.00997777 0
-0.000977535 -0.0100057 0
-0.00109057 -0.00967014 0
-0.00133114 -0.00903413 0
-0.00172797 -0.00814477 0
-0.00230137 -0.00703517 0
-0.00306926 -0.00571777 0
-0.00340545 -0.00415595 0
-0.00396906 -0.0021688 0
-0.00539735 -0.000667319 0
-0.00700943 0.000577213 0
-0.00876902 0.00162563 0
-0.0106509 0.00247294 0
-0.0126247 0.00308302 0
-0.0146446 0.00340722 0
-0.0166457 0.00339847 0
-0.0185427 0.00302386 0
-0.0202333 0.00227545 0
-0.021607 0.00117844 0
-0.0225344 -0.000203585 0
-0.0228965 -0.00176901 0
-0.0226145 -0.00334787 0
-0.0216553 -0.00477786 0
-0.0200441 -0.00589992 0
-0.0178596 -0.00657421 0
-0.0152349 -0.00670002 0
-0.0123457 -0.00623272 0
-0.00939014 -0.00519265 0
-0.00656262 -0.0036644 0
-0.00402849 -0.0017884 0
-0.0019005 0.000248776 0
-0.000743325 0.00220967 0
-2.01573e-06 0.00376268 0
0.000881336 0.00554817 0
0.00140375 0.00724356 0
0.00161399 0.00872313 0
0.00157385 0.00993341 0
0.00134378 0.0108505 0
0.000980266 0.0114615 0
0.000537162 0.0117553 0
6.84586e-05 0.0117152 0
-0.000367848 0.0113098 0
-0.000703991 0.0104778 0
-0.000854876 0.00909411 0
-0.000720619 0.00689233 0
-0.000284604 0.00328095 0
-0.00018541 -0.0026233 0
-0.000589004 -0.0060767 0
-0.000961274 -0.00821137 0
-0.00122052 -0.00939523 0
-0.00142804 -0.00988784 0
-0.00167595 -0.00985911 0
-0.00204799 -0.00942361 0
-0.00261081 -0.00866288 0
-0.00341491 -0.0076365 0
-0.00449874 -0.00638456 0
-0.00589458 -0.00492037 0
-0.0065268 -0.00320334 0
-0.00749944 -0.00108818 0
-0.00990009 0.0005296 0
-0.0125982 0.00185824 0
-0.015549 0.00296873 0
-0.0187059 0.00385716 0
-0.0220086 0.00448129 0
-0.0253719 0.00478271 0
-0.0286796 0.00470357 0
-0.0317846 0.00420121 0
-0.0345152 0.00326125 0
-0.0366872 0.00190802 0
-0.0381299 0.000209521 0
-0.0386467 -0.00175736 0
-0.0381013 -0.0037549 0
-0.036481 -0.00560391 0
-0.0338332 -0.00711894 0
-0.0302852 -0.00812915 0
-0.0260433 -0.00850443 0
-0.0213751 -0.00817783 0
-0.0165812 -0.00715877 0
-0.0119584 -0.00553479 0
-0.00776335 -0.00346392 0
-0.00417836 -0.00116513 0
-0.00220588 0.00107772 0
-0.000921347 0.00290166 0
0.000637678 0.00495898 0
0.00161243 0.00691149 0
0.00208682 0.00861821 0
0.00215632 0.0100208 0
0.00191671 0.0110932 0
0.00146125 0.0118195 0
0.000881905 0.0121831 0
0.000271805 0.0121577 0
-0.000271982 0.0116979 0
-0.000648019 0.0107229 0
-0.000760713 0.00908981 0
-0.000565301 0.00655554 0
-0.000195187 0.00275934 0
-0.0001171 -0.00227539 0
-0.000450242 -0.00560321 0
-0.000900652 -0.00780929 0
-0.00137291 -0.00905795 0
-0.00187727 -0.00954402 0
-0.00247849 -0.00943513 0
-0.0032567 -0.00886289 0
-0.00428767 -0.00792794 0
-0.00563586 -0.00670527 0
-0.00735388 -0.00524521 0
-0.00948384 -0.00356662 0
-0.0104773 -0.00163609 0
-0.0118935 0.00065068 0
-0.0152924 0.00243499 0
-0.0190898 0.00389722 0
-0.0232384 0.00510713 0
-0.0276701 0.00605702 0
-0.0322902 0.00669435 0
-0.0369691 0.00694634 0
-0.0415364 0.00673977 0
-0.0457831 0.0060187 0
-0.0494707 0.00476054 0
-0.0523482 0.00298911 0
-0.0542404 0.000779187 0
-0.0548713 -0.00178791 0
-0.0540428 -0.00441718 0
-0.0517924 -0.00689532 0
-0.0481861 -0.00899881 0
-0.0433896 -0.0105137 0
-0.0376653 -0.0112694 0
-0.0313518 -0.0111676 0
-0.0248302 -0.0102013 0
-0.0184813 -0.00846021 0
-0.0126415 -0.00612433 0
-0.00756325 -0.00345385 0
-0.00474343 -0.000786899 0
-0.00287054 0.00147273 0
-0.00053959 0.00394721 0
0.00100343 0.00628522 0
0.00187647 0.00833369 0
0.00220319 0.0100274 0
0.0021089 0.0113346 0
0.00171906 0.0122323 0
0.00115883 0.0126941 0
0.000552293 0.0126818 0
1.92968e-05 0.0121363 0
-0.000334255 0.0109688 0
-0.000439807 0.00905404 0
-0.000310695 0.00624157 0
-9.80128e-05 0.00242315 0
-8.39341e-05 -0.00203049 0
-0.000381426 -0.00510797 0
-0.000898914 -0.00722158 0
-0.00158066 -0.00842094 0
-0.0024203 -0.00882997 0
-0.00345539 -0.008591 0
-0.00474806 -0.00783662 0
-0.00636798 -0.00667882 0
-0.00838181 -0.00520575 0
-0.0108478 -0.00347926 0
-0.0138112 -0.00152899 0
-0.0152202 0.000660655 0
-0.0171164 0.00314808 0
-0.0215603 0.00514199 0
-0.0264872 0.00678453 0
-0.0318505 0.00812959 0
-0.0375612 0.0091569 0
-0.0434891 0.00979801 0
-0.0494578 0.0099612 0
-0.0552422 0.00955427 0
-0.060574 0.00850587 0
-0.0651543 0.00678509 0
-0.0686752 0.00441748 0
-0.070975 0.00149163 0
-0.0717048 -0.00187844 0
-0.0706132 -0.00534828 0
-0.067799 -0.00866256 0
-0.0633382 -0.01155 0
-0.0574207 -0.0137434 0
-0.0503472 -0.0150217 0
-0.0425075 -0.0152466 0
-0.034345 -0.0143883 0
-0.0263114 -0.0125346 0
-0.0188178 -0.00988776 0
-0.0121909 -0.00675217 0
-0.00849153 -0.00352273 0
-0.00597848 -0.000650721 0
-0.00275175 0.00238721 0
-0.000500456 0.00523672 0
0.000923889 0.00774002 0
0.00166699 0.00982443 0
0.00187675 0.0114484 0
0.00170357 0.0125779 0
0.00129717 0.0131749 0
0.000800955 0.0131907 0
0.000342718 0.0125623 0
1.99653e-05 0.0112132 0
-0.00012086 0.00906453 0
-0.000105435 0.0060674 0
-3.34772e-05 0.00226441 0
-7.80802e-05 -0.00182144 0
-0.00039166 -0.0045608 0
-0.00101289 -0.00642716 0
-0.00192876 -0.00743125 0
-0.00313891 -0.00765105 0
-0.00466645 -0.00719985 0
-0.00655508 -0.00619945 0
-0.00886064 -0.00476317 0
-0.0116425 -0.00298641 0
-0.0149558 -0.000941248 0
-0.0188424 0.00132849 0
-0.0207127 0.00381325 0
-0.0231244 0.00652135 0
-0.0286688 0.0087599 0
-0.0347663 0.0106226 0
-0.0413688 0.0121324 0
-0.0483676 0.0132454 0
-0.0555969 0.0138704 0
-0.0628342 0.0138923 0
-0.0698029 0.0131974 0
-0.0761809 0.0116986 0
-0.0816183 0.00935825 0
-0.0857631 0.00620801 0
-0.0884561 0.00235909 0
-0.0892987 -0.00202276 0
-0.0880151 -0.00653564 0
-0.0847482 -0.010891 0
-0.0795701 -0.0147625 0
-0.0726774 -0.01782 0
-0.0643902 -0.019783 0
-0.0551314 -0.0204638 0
-0.0453921 -0.0198 0
-0.0356863 -0.0178705 0
-0.0264995 -0.0148945 0
-0.0182401 -0.0112186 0
-0.013617 -0.00729424 0
-0.0103993 -0.00362772 0
-0.00612365 0.000118206 0
-0.00299599 0.00360344 0
-0.000845417 0.00667591 0
0.000487051 0.00925581 0
0.00116371 0.0112881 0
0.00135187 0.0127243 0
0.00121762 0.0135148 0
0.000915618 0.0136056 0
0.000576678 0.0129405 0
0.000294369 0.0114691 0
0.000113842 0.00916394 0
2.99888e-05 0.00604852 0
4.30507e-06 0.00222803 0
-9.04204e-05 -0.00159174 0
-0.000467004 -0.00389032 0
-0.00124622 -0.00536073 0
-0.00244402 -0.00601428 0
-0.00407136 -0.00590986 0
-0.00614605 -0.00513961 0
-0.00869769 -0.00381084 0
-0.0117668 -0.00203052 0
-0.0154002 0.000105278 0
-0.0196436 0.00251744 0
-0.0245303 0.00514696 0
-0.0268999 0.00795523 0
-0.029859 0.0108984 0
-0.0365607 0.0134097 0
-0.0438733 0.0155237 0
-0.0517439 0.0172184 0
-0.0600432 0.0184153 0
-0.0685716 0.0189929 0
-0.0770642 0.0188088 0
-0.0851988 0.017727 0
-0.092609 0.0156456 0
-0.098906 0.0125241 0
-0.103706 0.00840511 0
-0.106806 0.0034295 0
-0.107806 -0.00217858 0
-0.106462 -0.00792949 0
-0.102905 -0.0135321 0
-0.0971851 -0.018598 0
-0.0894872 -0.022726 0
-0.0801313 -0.0255662 0
-0.0695558 -0.0268698 0
-0.0582875 -0.0265294 0
-0.046897 -0.0246019 0
-0.0359466 -0.0213133 0
-0.0259362 -0.0170447 0
-0.0203267 -0.0123023 0
-0.0163217 -0.00765628 0
-0.010808 -0.00306384 0
-0.00660127 0.0011798 0
-0.00352166 0.00494152 0
-0.00140866 0.00813419 0
-9.43485e-05 0.0106847 0
0.000598968 0.0125269 0
0.00084896 0.0135997 0
0.000819755 0.0138489 0
0.000648867 0.0132311 0
0.000437424 0.0117246 0
0.000246845 0.00934287 0
0.000105219 0.00614988 0
2.42232e-05 0.00226755 0
-0.000115224 -0.00129661 0
-0.000593223 -0.00301289 0
-0.00158569 -0.00392816 0
-0.00312295 -0.00406985 0
-0.00522307 -0.00349507 0
-0.00790082 -0.00228451 0
-0.0111749 -0.00053194 0
-0.0150714 0.00166631 0
-0.0196228 0.00421904 0
-0.0248619 0.00704407 0
-0.0308106 0.0100682 0
-0.0337085 0.0132227 0
-0.0372416 0.0164123 0
-0.0451523 0.0192187 0
-0.0537223 0.021606 0
-0.0628893 0.023495 0
-0.0725026 0.0247625 0
-0.0823318 0.0252503 0
-0.092076 0.0247864 0
-0.101376 0.0232126 0
-0.109835 0.0204155 0
-0.117035 0.0163557 0
-0.122574 0.0110911 0
-0.12612 0.00479455 0
-0.127353 -0.00225623 0
-0.126143 -0.00943317 0
-0.122511 -0.0164947 0
-0.116467 -0.0229828 0
-0.108164 -0.0284171 0
-0.097904 -0.0323677 0
-0.0861234 -0.0345111 0
-0.0733716 -0.0346773 0
-0.0602705 -0.0328831 0
-0.0474619 -0.0293439 0
-0.0355481 -0.0244628 0
-0.0288705 -0.0187952 0
-0.0239738 -0.0129839 0
-0.0169875 -0.00741778 0
-0.0114557 -0.00229341 0
-0.00720907 0.00228988 0
-0.00410003 0.00623417 0
-0.00196306 0.00944107 0
-0.000613752 0.0118215 0
0.000136913 0.0133021 0
0.000466076 0.0138289 0
0.000525807 0.0133722 0
0.000435934 0.0119342 0
0.000284142 0.00955543 0
0.00013312 0.00631947 0
3.22002e-05 0.00234856 0
-0.000149114 -0.000898461 0
-0.00075929 -0.00184396 0
-0.0020145 -0.00202202 0
-0.003948 -0.00148026 0
-0.00657774 -0.000282133 0
-0.00991312 0.00149696 0
-0.0139623 0.00377525 0
-0.0187376 0.00646963 0
-0.0242572 0.00949827 0
-0.0305402 0.0127799 0
-0.0375959 0.0162293 0
-0.0410415 0.0197492 0
-0.0451682 0.0231956 0
-0.0543291 0.0263151 0
-0.0641904 0.0289886 0
-0.0746762 0.0310701 0
-0.0856146 0.0323839 0
-0.0967487 0.0327311 0
-0.10775 0.0319089 0
-0.118235 0.0297391 0
-0.127784 0.0261006 0
-0.135969 0.0209589 0
-0.142375 0.0143894 0
-0.146424 0.00659314 0
-0.147989 -0.00211135 0
-0.147162 -0.0108976 0
-0.143718 -0.0196401 0
-0.137609 -0.0278001 0
-0.12894 -0.0348119 0
-0.117975 -0.0401552 0
-0.10513 -0.0434157 0
-0.0909621 -0.0443398 0
-0.0761346 -0.0428791 0
-0.0613678 -0.0392138 0
-0.0473754 -0.0337485 0
-0.0395362 -0.027077 0
-0.0336209 -0.01992 0
-0.0248729 -0.0132715 0
-0.0177172 -0.0071418 0
-0.0120228 -0.00158355 0
-0.00767122 0.00328379 0
-0.00450548 0.00732381 0
-0.00233467 0.0104161 0
-0.00095468 0.01247 0
-0.000168612 0.0134294 0
0.000198915 0.0132745 0
0.00029496 0.0120241 0
0.000238307 0.00973559 0
0.000124366 0.0065022 0
3.18737e-05 0.00244477 0
-0.000189875 -0.000363887 0
-0.000956429 -0.000302358 0
-0.00251535 0.000467735 0
-0.00489446 0.00187884 0
-0.00810449 0.00385941 0
-0.012145 0.00633782 0
-0.017012 0.00924484 0
-0.022704 0.0125135 0
-0.029225 0.0160756 0
-0.0365812 0.0198547 0
-0.0447699 0.023757 0
-0.0487726 0.0276591 0
-0.0535034 0.0313737 0
-0.06394 0.0348203 0
-0.0751123 0.0377848 0
-0.0869278 0.0400468 0
-0.0991946 0.0413739 0
-0.111635 0.0415246 0
-0.123903 0.0402665 0
-0.135601 0.0374048 0
-0.146302 0.0328147 0
-0.155575 0.0264689 0
-0.162998 0.0184589 0
-0.16761 0.00900623 0
-0.169621 -0.00154561 0
-0.169464 -0.0121233 0
-0.166503 -0.02278 0
-0.160623 -0.0328832 0
-0.15187 -0.0417788 0
-0.140452 -0.0488482 0
-0.126742 -0.0535701 0
-0.111282 -0.0555832 0
-0.0947598 -0.0547432 0
-0.0779636 -0.0511614 0
-0.0617203 -0.0452135 0
-0.0526326 -0.0375104 0
-0.045554 -0.0288487 0
-0.0346934 -0.021037 0
-0.0255562 -0.0137699 0
-0.0180858 -0.00705106 0
-0.0122093 -0.00104461 0
-0.00778205 0.00405462 0
-0.00460366 0.00808134 0
-0.00244865 0.0109195 0
-0.00109225 0.0125048 0
-0.000327483 0.0128219 0
2.64415e-05 0.0118999 0
0.000122327 0.0098073 0
8.71704e-05 0.0066445 0
2.55999e-05 0.00253494 0
-0.000235711 0.000337182 0
-0.00117664 0.00168696 0
-0.00307009 0.00364566 0
-0.00593236 0.00612772 0
-0.00976092 0.0090556 0
-0.014541 0.0123641 0
-0.0202537 0.0160002 0
-0.0268831 0.0199177 0
-0.0344196 0.0240668 0
-0.0428573 0.0283805 0
-0.0521833 0.0327601 0
-0.0567413 0.0370604 0
-0.062076 0.0410571 0
-0.0737922 0.0448411 0
-0.0862741 0.0480934 0
-0.099411 0.0505155 0
-0.112994 0.0518167 0
-0.126731 0.0517143 0
-0.140267 0.0499491 0
-0.153202 0.0463134 0
-0.165111 0.0406815 0
-0.175566 0.0330346 0
-0.184146 0.0234765 0
-0.189366 0.0122398 0
-0.191928 -0.000319642 0
-0.192734 -0.0128725 0
-0.190561 -0.0256822 0
-0.185231 -0.0380114 0
-0.176725 -0.049122 0
-0.165174 -0.0582936 0
-0.150888 -0.0648855 0
-0.134362 -0.068405 0
-0.116274 -0.068577 0
-0.0974575 -0.0654013 0
-0.0788401 -0.0591808 0
-0.068454 -0.0505071 0
-0.0600621 -0.0402361 0
-0.0466796 -0.0312196 0
-0.0351474 -0.0226686 0
-0.0255276 -0.0145596 0
-0.0178076 -0.0071418 0
-0.0118563 -0.000697852 0
-0.00745967 0.00454345 0
-0.0043638 0.00842883 0
-0.00230794 0.010878 0
-0.00104594 0.011874 0
-0.000357623 0.0114521 0
-5.29864e-05 0.0096894 0
2.75883e-05 0.00669527 0
1.49766e-05 0.00260125 0
-0.000284818 0.00123086 0
-0.00141148 0.00418927 0
-0.00365842 0.0076033 0
-0.00702598 0.011372 0
-0.0114938 0.0154165 0
-0.0170289 0.019684 0
-0.0235952 0.0241444 0
-0.0311612 0.0287789 0
-0.0397043 0.0335627 0
-0.0492074 0.0384434 0
-0.05965 0.0433218 0
-0.0647495 0.0480356 0
-0.0706748 0.0523309 0
-0.0836461 0.0564585 0
-0.0974069 0.0599882 0
-0.111828 0.0625427 0
-0.126688 0.0637755 0
-0.141685 0.0633654 0
-0.156465 0.0610304 0
-0.170629 0.0565535 0
-0.183763 0.0498104 0
-0.195448 0.04079 0
-0.205271 0.0296056 0
-0.211104 0.0164941 0
-0.214296 0.00181811 0
-0.216317 -0.0128937 0
-0.215214 -0.0280841 0
-0.210761 -0.0429119 0
-0.202873 -0.0565693 0
-0.191595 -0.0682395 0
-0.177139 -0.0771581 0
-0.159916 -0.0826824 0
-0.140549 -0.084372 0
-0.119869 -0.0820658 0
-0.0988708 -0.0759359 0
-0.0872204 -0.0664978 0
-0.0773842 -0.0546254 0
-0.0610346 -0.0444125 0
-0.0466601 -0.0344095 0
-0.034487 -0.0246295 0
-0.0245745 -0.0154652 0
-0.0168067 -0.0073244 0
-0.0109536 -0.000523048 0
-0.00672759 0.00473305 0
-0.00382531 0.00833779 0
-0.00195469 0.0102664 0
-0.000850405 0.0105572 0
-0.000280917 0.00929637 0
-5.05845e-05 0.0066049 0
9.9969e-07 0.00262814 0
-0.000335147 0.00233762 0
-0.0016513 0.00725506 0
-0.00425675 0.0124108 0
-0.008133 0.0176918 0
-0.0132389 0.0230241 0
-0.0195207 0.0283757 0
-0.0269232 0.0337486 0
-0.0353991 0.0391606 0
-0.0449126 0.0446195 0
-0.0554372 0.0500939 0
-0.0669459 0.0554892 0
-0.0725598 0.060631 0
-0.0790464 0.0652435 0
-0.0932119 0.0697149 0
-0.108182 0.0735035 0
-0.123811 0.0761563 0
-0.139865 0.0772749 0
-0.156041 0.0765042 0
-0.171984 0.0735433 0
-0.187308 0.0681691 0
-0.201607 0.0602603 0
-0.214478 0.0498145 0
-0.225526 0.0369538 0
-0.231923 0.0219202 0
-0.235768 0.00508649 0
-0.239166 -0.0119577 0
-0.23935 -0.0297161 0
-0.23608 -0.0472715 0
-0.229207 -0.0637696 0
-0.21868 -0.0783155 0
-0.20459 -0.0900301 0
-0.187216 -0.0981146 0
-0.167067 -0.101936 0
-0.144904 -0.101122 0
-0.121721 -0.0956451 0
-0.108982 -0.0858662 0
-0.0976309 -0.0726023 0
-0.077892 -0.0612582 0
-0.0602455 -0.049616 0
-0.0451163 -0.0378403 0
-0.0326458 -0.0265365 0
-0.022742 -0.0162798 0
-0.0151638 -0.00750253 0
-0.00959034 -0.000483243 0
-0.00567213 0.00463302 0
-0.00306583 0.00780629 0
-0.00145501 0.0090752 0
-0.000560882 0.0085353 0
-0.000146329 0.00632253 0
-1.59786e-05 0.00260087 0
-0.000384281 0.0036698 0
-0.00188479 0.0109139 0
-0.00483757 0.018108 0
-0.0092041 0.0251303 0
-0.0149212 0.0319195 0
-0.0219132 0.0384744 0
-0.0301055 0.0448401 0
-0.0394341 0.0510815 0
-0.0498509 0.0572479 0
-0.0613205 0.0633363 0
-0.0738111 0.0692621 0
-0.0798972 0.0748445 0
-0.086897 0.079792 0
-0.10215 0.0845989 0
-0.118211 0.0886178 0
-0.134917 0.091326 0
-0.152023 0.0922786 0
-0.169226 0.0910911 0
-0.186175 0.0874475 0
-0.202491 0.0811216 0
-0.217784 0.0719984 0
-0.231669 0.0600877 0
-0.243782 0.0455268 0
-0.250623 0.028571 0
-0.255069 0.00961496 0
-0.259866 -0.00990074 0
-0.26145 -0.0303381 0
-0.259604 -0.0507636 0
-0.254127 -0.0703084 0
-0.244874 -0.0880331 0
-0.231793 -0.102971 0
-0.214992 -0.114178 0
-0.194797 -0.120821 0
-0.171811 -0.122274 0
-0.146936 -0.118242 0
-0.133486 -0.108837 0
-0.12067 -0.0947058 0
-0.0972533 -0.0823578 0
-0.0760099 -0.0689009 0
-0.0575746 -0.0547977 0
-0.042189 -0.0409296 0
-0.0298106 -0.0280836 0
-0.0202076 -0.0168456 0
-0.0130362 -0.00759538 0
-0.00790341 -0.000536564 0
-0.00441181 0.00426439 0
-0.00218832 0.00684141 0
-0.000900234 0.00729917 0
-0.000262004 0.00579104 0
-3.63527e-05 0.00250341 0
-0.000429422 0.00522875 0
-0.00209901 0.0151673 0
-0.00536963 0.0246942 0
-0.0101836 0.0336826 0
-0.0164563 0.0420915 0
-0.0240911 0.0499608 0
-0.0329939 0.0573906 0
-0.0430848 0.0645043 0
-0.0543032 0.0714022 0
-0.0666055 0.0781172 0
-0.0799551 0.084581 0
-0.086455 0.0906114 0
-0.093898 0.0959069 0
-0.11008 0.101028 0
-0.127053 0.105235 0
-0.144637 0.107942 0
-0.16258 0.108664 0
-0.180573 0.106992 0
-0.198267 0.102597 0
-0.21529 0.0952547 0
-0.231269 0.0848627 0
-0.245849 0.0714523 0
-0.258712 0.0551884 0
-0.265807 0.0363562 0
-0.270715 0.015387 0
-0.276757 -0.00666922 0
-0.279714 -0.029783 0
-0.279421 -0.0530921 0
-0.27565 -0.0757492 0
-0.268172 -0.0968188 0
-0.25679 -0.115292 0
-0.24141 -0.130118 0
-0.22212 -0.140274 0
-0.199277 -0.144874 0
-0.173569 -0.143294 0
-0.160011 -0.135312 0
-0.145976 -0.121257 0
-0.118895 -0.108117 0
-0.093956 -0.0927653 0
-0.0719898 -0.0760753 0
-0.053381 -0.0592424 0
-0.0381904 -0.0433116 0
-0.0262381 -0.0290719 0
-0.017184 -0.0170476 0
-0.0106036 -0.00753207 0
-0.00604749 -0.000637625 0
-0.00308235 0.00365525 0
-0.00131493 0.00545728 0
-0.000403568 0.00494019 0
-6.13029e-05 0.0023157 0
-0.000467487 0.00700198 0
-0.0022798 0.0199825 0
-0.00581901 0.0321199 0
-0.0110113 0.0432857 0
-0.0177538 0.0534656 0
-0.0259309 0.0627506 0
-0.0354309 0.0713065 0
-0.0461584 0.0793259 0
-0.0580406 0.0869702 0
-0.0710249 0.0943155 0
-0.0850691 0.101316 0
-0.0919068 0.107793 0
-0.0996994 0.113438 0
-0.11659 0.118835 0
-0.134232 0.123167 0
-0.152425 0.125797 0
-0.170904 0.126204 0
-0.189354 0.123955 0
-0.207425 0.118716 0
-0.224753 0.110272 0
-0.240986 0.0985429 0
-0.255807 0.0835965 0
-0.268961 0.0656439 0
-0.276066 0.045019 0
-0.281218 0.0222024 0
-0.288171 -0.00235218 0
-0.292314 -0.028002 0
-0.293553 -0.0540471 0
-0.291662 -0.0796997 0
-0.286354 -0.104085 0
-0.277304 -0.126215 0
-0.264215 -0.144993 0
-0.246903 -0.159258 0
-0.225408 -0.16788 0
-0.200095 -0.169896 0
-0.18723 -0.164681 0
-0.172482 -0.152102 0
-0.142248 -0.138545 0
-0.113873 -0.121459 0
-0.0883709 -0.102121 0
-0.0663452 -0.0820392 0
-0.0480473 -0.0625653 0
-0.0334195 -0.0447594 0
-0.0221729 -0.0293545 0
-0.0138783 -0.0167836 0
-0.00804553 -0.00723813 0
-0.00418169 -0.000731573 0
-0.00182823 0.00284473 0
-0.000580055 0.00367918 0
-9.26808e-05 0.00201053 0
-0.000495303 0.00896095 0
-0.00241266 0.0252868 0
-0.00615113 0.0402796 0
-0.0116263 0.0538105 0
-0.0187221 0.0658967 0
-0.0273083 0.0766868 0
-0.037258 0.0864211 0
-0.0484616 0.0953708 0
-0.0608335 0.103766 0
-0.0743108 0.111735 0
-0.0888436 0.119258 0
-0.0959257 0.126165 0
-0.10395 0.132145 0
-0.121272 0.137754 0
-0.139273 0.142126 0
-0.157734 0.144576 0
-0.176373 0.144552 0
-0.194865 0.141604 0
-0.212858 0.135401 0
-0.229999 0.125743 0
-0.245963 0.112592 0
-0.260484 0.0960711 0
-0.273381 0.0764561 0
-0.280225 0.0541478 0
-0.28535 0.0296805 0
-0.292742 0.00281172 0
-0.29774 -0.0250928 0
-0.300324 -0.053557 0
-0.300303 -0.0818893 0
-0.297368 -0.109334 0
-0.291108 -0.134993 0
-0.28105 -0.157803 0
-0.26675 -0.176546 0
-0.247904 -0.189915 0
-0.224477 -0.19664 0
-0.213187 -0.19568 0