# vtk DataFile Version 2.0
Velocidades
ASCII

DATASET STRUCTURED_GRID
DIMENSIONS   50   50   20

POINTS   50000   double
0.00568455   0.00568455   0.025
0.0174023   0.00568455   0.025
0.0298294   0.00568455   0.025
0.0429888   0.00568455   0.025
0.0569012   0.00568455   0.025
0.0715849   0.00568455   0.025
0.0870549   0.00568455   0.025
0.103323   0.00568455   0.025
0.120395   0.00568455   0.025
0.138275   0.00568455   0.025
0.156961   0.00568455   0.025
0.176443   0.00568455   0.025
0.196707   0.00568455   0.025
0.217734   0.00568455   0.025
0.239496   0.00568455   0.025
0.261959   0.00568455   0.025
0.285082   0.00568455   0.025
0.308818   0.00568455   0.025
0.333113   0.00568455   0.025
0.357906   0.00568455   0.025
0.383132   0.00568455   0.025
0.408719   0.00568455   0.025
0.434592   0.00568455   0.025
0.460672   0.00568455   0.025
0.486877   0.00568455   0.025
0.513123   0.00568455   0.025
0.539328   0.00568455   0.025
0.565408   0.00568455   0.025
0.591281   0.00568455   0.025
0.616868   0.00568455   0.025
0.642094   0.00568455   0.025
0.666887   0.00568455   0.025
0.691182   0.00568455   0.025
0.714918   0.00568455   0.025
0.738041   0.00568455   0.025
0.760504   0.00568455   0.025
0.782266   0.00568455   0.025
0.803293   0.00568455   0.025
0.823557   0.00568455   0.025
0.843039   0.00568455   0.025
0.861725   0.00568455   0.025
0.879605   0.00568455   0.025
0.896677   0.00568455   0.025
0.912945   0.00568455   0.025
0.928415   0.00568455   0.025
0.943099   0.00568455   0.025
0.957011   0.00568455   0.025
0.970171   0.00568455   0.025
0.982598   0.00568455   0.025
0.994315   0.00568455   0.025
0.00568455   0.0174023   0.025
0.0174023   0.0174023   0.025
0.0298294   0.0174023   0.025
0.0429888   0.0174023   0.025
0.0569012   0.0174023   0.025
0.0715849   0.0174023   0.025
0.0870549   0.0174023   0.025
0.103323   0.0174023   0.025
0.120395   0.0174023   0.025
0.138275   0.0174023   0.025
0.156961   0.0174023   0.025
0.176443   0.0174023   0.025
0.196707   0.0174023   0.025
0.217734   0.0174023   0.025
0.239496   0.0174023   0.025
0.261959   0.0174023   0.025
0.285082   0.0174023   0.025
0.308818   0.0174023   0.025
0.333113   0.0174023   0.025
0.357906   0.0174023   0.025
0.383132   0.0174023   0.025
0.408719   0.0174023   0.025
0.434592   0.0174023   0.025
0.460672   0.0174023   0.025
0.486877   0.0174023   0.025
0.513123   0.0174023   0.025
0.539328   0.0174023   0.025
0.565408   0.0174023   0.025
0.591281   0.0174023   0.025
0.616868   0.0174023   0.025
0.642094   0.0174023   0.025
0.666887   0.0174023   0.025
0.691182   0.0174023   0.025
0.714918   0.0174023   0.025
0.738041   0.0174023   0.025
0.760504   0.0174023   0.025
0.782266   0.0174023   0.025
0.803293   0.0174023   0.025
0.823557   0.0174023   0.025
0.843039   0.0174023   0.025
0.861725   0.0174023   0.025
0.879605   0.0174023   0.025
0.896677   0.0174023   0.025
0.912945   0.0174023   0.025
0.928415   0.0174023   0.025
0.943099   0.0174023   0.025
0.957011   0.0174023   0.025
0.970171   0.0174023   0.025
0.982598   0.0174023   0.025
0.994315   0.0174023   0.025
0.00568455   0.0298294   0.025
0.0174023   0.0298294   0.025
0.0298294   0.0298294   0.025
0.0429888   0.0298294   0.025
0.0569012   0.0298294   0.025
0.0715849   0.0298294   0.025
0.0870549   0.0298294   0.025
0.103323   0.0298294   0.025
0.120395   0.0298294   0.025
0.138275   0.0298294   0.025
0.156961   0.0298294   0.025
0.176443   0.0298294   0.025
0.196707   0.0298294   0.025
0.217734   0.0298294   0.025
0.239496   0.0298294   0.025
0.261959   0.0298294   0.025
0.285082   0.0298294   0.025
0.308818   0.0298294   0.025
0.333113   0.0298294   0.025
0.357906   0.0298294   0.025
0.383132   0.0298294   0.025
0.408719   0.0298294   0.025
0.434592   0.0298294   0.025
0.460672   0.0298294   0.025
0.486877   0.0298294   0.025
0.513123   0.0298294   0.025
0.539328   0.0298294   0.025
0.565408   0.0298294   0.025
0.591281   0.0298294   0.025
0.616868   0.0298294   0.025
0.642094   0.0298294   0.025
0.666887   0.0298294   0.025
0.691182   0.0298294   0.025
0.714918   0.0298294   0.025
0.738041   0.0298294   0.025
0.760504   0.0298294   0.025
0.782266   0.0298294   0.025
0.803293   0.0298294   0.025
0.823557   0.0298294   0.025
0.843039   0.0298294   0.025
0.861725   0.0298294   0.025
0.879605   0.0298294   0.025
0.896677   0.0298294   0.025
0.912945   0.0298294   0.025
0.928415   0.0298294   0.025
0.943099   0.0298294   0.025
0.957011   0.0298294   0.025
0.970171   0.0298294   0.025
0.982598   0.0298294   0.025
0.994315   0.0298294   0.025
0.00568455   0.0429888   0.025
0.0174023   0.0429888   0.025
0.0298294   0.0429888   0.025
0.0429888   0.0429888   0.025
0.0569012   0.0429888   0.025
0.0715849   0.0429888   0.025
0.0870549   0.0429888   0.025
0.103323   0.0429888   0.025
0.120395   0.0429888   0.025
0.138275   0.0429888   0.025
0.156961   0.0429888   0.025
0.176443   0.0429888   0.025
0.196707   0.0429888   0.025
0.217734   0.0429888   0.025
0.239496   0.0429888   0.025
0.261959   0.0429888   0.025
0.285082   0.0429888   0.025
0.308818   0.0429888   0.025
0.333113   0.0429888   0.025
0.357906   0.0429888   0.025
0.383132   0.0429888   0.025
0.408719   0.0429888   0.025
0.434592   0.0429888   0.025
0.460672   0.0429888   0.025
0.486877   0.0429888   0.025
0.513123   0.0429888   0.025
0.539328   0.0429888   0.025
0.565408   0.0429888   0.025
0.591281   0.0429888   0.025
0.616868   0.0429888   0.025
0.642094   0.0429888   0.025
0.666887   0.0429888   0.025
0.691182   0.0429888   0.025
0.714918   0.0429888   0.025
0.738041   0.0429888   0.025
0.760504   0.0429888   0.025
0.782266   0.0429888   0.025
0.803293   0.0429888   0.025
0.823557   0.0429888   0.025
0.843039   0.0429888   0.025
0.861725   0.0429888   0.025
0.879605   0.0429888   0.025
0.896677   0.0429888   0.025
0.912945   0.0429888   0.025
0.928415   0.0429888   0.025
0.943099   0.0429888   0.025
0.957011   0.0429888   0.025
0.970171   0.0429888   0.025
0.982598   0.0429888   0.025
0.994315   0.0429888   0.025
0.00568455   0.0569012   0.025
0.0174023   0.0569012   0.025
0.0298294   0.0569012   0.025
0.0429888   0.0569012   0.025
0.0569012   0.0569012   0.025
0.0715849   0.0569012   0.025
0.0870549   0.0569012   0.025
0.103323   0.0569012   0.025
0.120395   0.0569012   0.025
0.138275   0.0569012   0.025
0.156961   0.0569012   0.025
0.176443   0.0569012   0.025
0.196707   0.0569012   0.025
0.217734   0.0569012   0.025
0.239496   0.0569012   0.025
0.261959   0.0569012   0.025
0.285082   0.0569012   0.025
0.308818   0.0569012   0.025
0.333113   0.0569012   0.025
0.357906   0.0569012   0.025
0.383132   0.0569012   0.025
0.408719   0.0569012   0.025
0.434592   0.0569012   0.025
0.460672   0.0569012   0.025
0.486877   0.0569012   0.025
0.513123   0.0569012   0.025
0.539328   0.0569012   0.025
0.565408   0.0569012   0.025
0.591281   0.0569012   0.025
0.616868   0.0569012   0.025
0.642094   0.0569012   0.025
0.666887   0.0569012   0.025
0.691182   0.0569012   0.025
0.714918   0.0569012   0.025
0.738041   0.0569012   0.025
0.760504   0.0569012   0.025
0.782266   0.0569012   0.025
0.803293   0.0569012   0.025
0.823557   0.0569012   0.025
0.843039   0.0569012   0.025
0.861725   0.0569012   0.025
0.879605   0.0569012   0.025
0.896677   0.0569012   0.025
0.912945   0.0569012   0.025
0.928415   0.0569012   0.025
0.943099   0.0569012   0.025
0.957011   0.0569012   0.025
0.970171   0.0569012   0.025
0.982598   0.0569012   0.025
0.994315   0.0569012   0.025
0.00568455   0.0715849   0.025
0.0174023   0.0715849   0.025
0.0298294   0.0715849   0.025
0.0429888   0.0715849   0.025
0.0569012   0.0715849   0.025
0.0715849   0.0715849   0.025
0.0870549   0.0715849   0.025
0.103323   0.0715849   0.025
0.120395   0.0715849   0.025
0.138275   0.0715849   0.025
0.156961   0.0715849   0.025
0.176443   0.0715849   0.025
0.196707   0.0715849   0.025
0.217734   0.0715849   0.025
0.239496   0.0715849   0.025
0.261959   0.0715849   0.025
0.285082   0.0715849   0.025
0.308818   0.0715849   0.025
0.333113   0.0715849   0.025
0.357906   0.0715849   0.025
0.383132   0.0715849   0.025
0.408719   0.0715849   0.025
0.434592   0.0715849   0.025
0.460672   0.0715849   0.025
0.486877   0.0715849   0.025
0.513123   0.0715849   0.025
0.539328   0.0715849   0.025
0.565408   0.0715849   0.025
0.591281   0.0715849   0.025
0.616868   0.0715849   0.025
0.642094   0.0715849   0.025
0.666887   0.0715849   0.025
0.691182   0.0715849   0.025
0.714918   0.0715849   0.025
0.738041   0.0715849   0.025
0.760504   0.0715849   0.025
0.782266   0.0715849   0.025
0.803293   0.0715849   0.025
0.823557   0.0715849   0.025
0.843039   0.0715849   0.025
0.861725   0.0715849   0.025
0.879605   0.0715849   0.025
0.896677   0.0715849   0.025
0.912945   0.0715849   0.025
0.928415   0.0715849   0.025
0.943099   0.0715849   0.025
0.957011   0.0715849   0.025
0.970171   0.0715849   0.025
0.982598   0.0715849   0.025
0.994315   0.0715849   0.025
0.00568455   0.0870549   0.025
0.0174023   0.0870549   0.025
0.0298294   0.0870549   0.025
0.0429888   0.0870549   0.025
0.0569012   0.0870549   0.025
0.0715849   0.0870549   0.025
0.0870549   0.0870549   0.025
0.103323   0.0870549   0.025
0.120395   0.0870549   0.025
0.138275   0.0870549   0.025
0.156961   0.0870549   0.025
0.176443   0.0870549   0.025
0.196707   0.0870549   0.025
0.217734   0.0870549   0.025
0.239496   0.0870549   0.025
0.261959   0.0870549   0.025
0.285082   0.0870549   0.025
0.308818   0.0870549   0.025
0.333113   0.0870549   0.025
0.357906   0.0870549   0.025
0.383132   0.0870549   0.025
0.408719   0.0870549   0.025
0.434592   0.0870549   0.025
0.460672   0.0870549   0.025
0.486877   0.0870549   0.025
0.513123   0.0870549   0.025
0.539328   0.0870549   0.025
0.565408   0.0870549   0.025
0.591281   0.0870549   0.025
0.616868   0.0870549   0.025
0.642094   0.0870549   0.025
0.666887   0.0870549   0.025
0.691182   0.0870549   0.025
0.714918   0.0870549   0.025
0.738041   0.0870549   0.025
0.760504   0.0870549   0.025
0.782266   0.0870549   0.025
[...]
POINT_DATA   50000
VECTORS Velocidades double

-7.6833e-05 -0.0016886 0
-0.00020788 -0.00331668 0
-0.000285446 -0.00423338 0
-0.000313887 -0.00474849 0
-0.000320968 -0.00498751 0
-0.000333932 -0.00501386 0
-0.000373518 -0.00486653 0
-0.000454303 -0.00457319 0
-0.000586118 -0.00415495 0
-0.000775576 -0.00362711 0
-0.00102811 -0.00299611 0
-0.00115389 -0.00224589 0
-0.00133373 -0.00127786 0
-0.00177588 -0.000549639 0
-0.00229335 5.7696e-05 0
-0.00285868 0.000570926 0
-0.00346249 0.000986937 0
-0.00409569 0.00128878 0
-0.00474517 0.00145398 0
-0.00539197 0.00146107 0
-0.00601071 0.0012955 0
-0.00657012 0.000954623 0
-0.00703582 0.000451195 0
-0.00736194 -0.000184166 0
-0.00750668 -0.000891128 0
-0.00744199 -0.00160263 0
-0.00715038 -0.00223923 0
-0.00663556 -0.00272649 0
-0.00592153 -0.00300057 0
-0.00505302 -0.00301696 0
-0.0040914 -0.00275777 0
-0.0031066 -0.00223523 0
-0.00216697 -0.00149094 0
-0.00132929 -0.000591498 0
-0.000630273 0.000376422 0
-0.000238493 0.00130427 0
2.21408e-06 0.00203254 0
0.00027261 0.00287534 0
0.000437805 0.00367493 0
0.000503991 0.00437237 0
0.000490938 0.00494181 0
0.000418452 0.00537142 0
0.000304776 0.00565512 0
0.000167083 0.00578813 0
2.25313e-05 0.00576371 0
-0.000110283 0.00556921 0
-0.000209535 0.00517904 0
-0.000249226 0.00453876 0
-0.000204917 0.00352171 0
-7.9581e-05 0.00179142 0
-0.000257062 -0.00310437 0
-0.000677184 -0.00647029 0
-0.000894421 -0.00841564 0
-0.000950527 -0.00949526 0
-0.000950531 -0.00997664 0
-0.000977507 -0.0100046 0
-0.00109056 -0.00966906 0
-0.00133113 -0.00903315 0
-0.00172795 -0.00814393 0
-0.00230131 -0.00703449 0
-0.00306914 -0.00571728 0
-0.0034053 -0.00415567 0
-0.00396887 -0.00216876 0
-0.00539704 -0.000667472 0
-0.00700899 0.000576885 0
-0.00876843 0.00162515 0
-0.0106502 0.00247232 0
-0.0126237 0.00308231 0
-0.0146435 0.00340644 0
-0.0166445 0.00339768 0
-0.0185412 0.0030231 0
-0.0202317 0.00227477 0
-0.0216053 0.00117788 0
-0.0225326 -0.000203988 0
-0.0228946 -0.00176924 0
-0.0226126 -0.00334792 0
-0.0216534 -0.00477773 0
-0.0200423 -0.00589964 0
-0.017858 -0.0065738 0
-0.0152334 -0.00669953 0
-0.0123445 -0.00623221 0
-0.00938917 -0.00519216 0
-0.00656188 -0.00366398 0
-0.00402796 -0.00178808 0
-0.00190016 0.00024897 0
-0.000743081 0.00220974 0
-1.83646e-06 0.00376265 0
0.000881439 0.00554803 0
0.00140381 0.00724332 0
0.00161401 0.00872281 0
0.00157385 0.00993302 0
0.00134378 0.01085 0
0.000980263 0.011461 0
0.000537167 0.0117548 0
6.84754e-05 0.0117147 0
-0.000367819 0.0113093 0
-0.000703952 0.0104773 0
-0.000854833 0.0090937 0
-0.000720584 0.00689202 0
-0.000284591 0.0032808 0
-0.000185392 -0.00262301 0
-0.000588951 -0.00607602 0
-0.000961198 -0.00821044 0
-0.00122044 -0.00939415 0
-0.00142798 -0.00988669 0
-0.00167589 -0.00985797 0
-0.00204794 -0.00942252 0
-0.00261074 -0.00866191 0
-0.0034148 -0.00763569 0
-0.00449856 -0.00638393 0
-0.00589429 -0.00491995 0
-0.00652646 -0.00320314 0
-0.00749902 -0.00108822 0
-0.00989947 0.000529348 0
-0.0125974 0.0018578 0
-0.0155479 0.00296813 0
-0.0187046 0.00385643 0
-0.022007 0.00448046 0
-0.0253699 0.00478181 0
-0.0286773 0.00470266 0
-0.0317821 0.00420034 0
-0.0345124 0.00326048 0
-0.0366842 0.00190738 0
-0.0381268 0.000209064 0
-0.0386436 -0.00175761 0
-0.0380981 -0.00375493 0
-0.0364779 -0.00560373 0
-0.0338302 -0.00711856 0
-0.0302826 -0.00812863 0
-0.0260409 -0.00850381 0
-0.0213731 -0.00817716 0
-0.0165795 -0.00715812 0
-0.0119571 -0.00553422 0
-0.00776242 -0.00346347 0
-0.00417772 -0.00116482 0
-0.00220541 0.00107788 0
-0.000920985 0.00290171 0
0.000637907 0.00495889 0
0.00161257 0.00691129 0
0.00208689 0.00861792 0
0.00215636 0.0100204 0
0.00191672 0.0110928 0
0.00146126 0.0118191 0
0.00088192 0.0121826 0
0.000271832 0.0121572 0
-0.000271945 0.0116974 0
-0.000647975 0.0107224 0
-0.00076067 0.0090894 0
-0.000565272 0.00655525 0
-0.000195178 0.00275922 0
-0.000117091 -0.00227513 0
-0.000450209 -0.00560257 0
-0.000900594 -0.00780838 0
-0.00137283 -0.00905687 0
-0.00187718 -0.00954287 0
-0.00247839 -0.00943399 0
-0.00325658 -0.00886183 0
-0.00428749 -0.00792701 0
-0.0056356 -0.00670452 0
-0.0073535 -0.00524467 0
-0.00948328 -0.00356631 0
-0.0104767 -0.00163603 0
-0.0118928 0.000650494 0
-0.0152914 0.00243458 0
-0.0190884 0.00389661 0
-0.0232367 0.00510635 0
-0.027668 0.00605609 0
-0.0322877 0.00669332 0
-0.0369662 0.00694525 0
-0.0415331 0.00673868 0
-0.0457794 0.00601767 0
-0.0494667 0.00475963 0
-0.052344 0.00298837 0
-0.054236 0.000778667 0
-0.0548668 -0.00178818 0
-0.0540384 -0.00441718 0
-0.0517882 -0.00689506 0
-0.0481821 -0.0089983 0
-0.0433859 -0.010513 0
-0.037662 -0.0112686 0
-0.031349 -0.0111667 0
-0.0248279 -0.0102004 0
-0.0184795 -0.00845941 0
-0.0126401 -0.00612366 0
-0.00756226 -0.00345335 0
-0.00474267 -0.000786576 0
-0.00286994 0.00147289 0
-0.000539175 0.00394721 0
0.00100371 0.00628508 0
0.00187664 0.00833343 0
0.00220329 0.0100271 0
0.00210896 0.0113342 0
0.0017191 0.0122318 0
0.00115886 0.0126936 0
0.000552329 0.0126813 0
1.93362e-05 0.0121358 0
-0.000334215 0.0109683 0
-0.000439774 0.00905364 0
-0.000310676 0.0062413 0
-9.80074e-05 0.00242304 0
-8.39291e-05 -0.00203026 0
-0.000381404 -0.00510735 0
-0.000898865 -0.00722069 0
-0.00158058 -0.00841989 0
-0.00242018 -0.00882884 0
-0.00345521 -0.0085899 0
-0.00474782 -0.00783561 0
-0.00636764 -0.00667797 0
-0.00838132 -0.0052051 0
-0.0108471 -0.00347885 0
-0.0138103 -0.00152884 0
-0.0152192 0.000660533 0
-0.0171152 0.00314768 0
-0.0215587 0.00514136 0
-0.0264853 0.00678369 0
-0.0318481 0.00812855 0
-0.0375583 0.00915571 0
-0.0434857 0.00979672 0
-0.0494539 0.00995986 0
-0.0552379 0.00955295 0
-0.0605692 0.00850464 0
-0.0651491 0.00678401 0
-0.0686698 0.00441663 0
-0.0709695 0.00149104 0
-0.0716992 -0.00187871 0
-0.0706076 -0.00534822 0
-0.0677937 -0.00866218 0
-0.0633332 -0.0115494 0
-0.0574161 -0.0137425 0
-0.050343 -0.0150206 0
-0.0425039 -0.0152455 0
-0.034342 -0.0143871 0
-0.0263089 -0.0125335 0
-0.0188159 -0.00988681 0
-0.0121895 -0.00675141 0
-0.00849042 -0.00352219 0
-0.00597756 -0.000650393 0
-0.00275108 0.00238734 0
-0.000499991 0.00523669 0
0.000924206 0.00773985 0
0.0016672 0.00982413 0
0.00187689 0.011448 0
0.00170366 0.0125775 0
0.00129723 0.0131744 0
0.000801005 0.0131902 0
0.00034276 0.0125618 0
1.9999e-05 0.0112127 0
-0.000120837 0.00906415 0
-0.000105423 0.00606714 0
-3.34743e-05 0.00226431 0
-7.80764e-05 -0.00182122 0
-0.00039164 -0.00456022 0
-0.00101284 -0.00642632 0
-0.00192866 -0.00743025 0
-0.00313873 -0.00764999 0
-0.00466618 -0.00719882 0
-0.00655468 -0.00619855 0
-0.00886009 -0.00476245 0
-0.0116417 -0.00298593 0
-0.0149547 -0.000941042 0
-0.018841 0.0013284 0
-0.0207112 0.00381287 0
-0.0231227 0.00652069 0
-0.0286667 0.00875897 0
-0.0347636 0.0106214 0
-0.0413656 0.012131 0
-0.0483638 0.0132439 0
-0.0555925 0.0138688 0
-0.0628293 0.0138907 0
-0.0697975 0.0131958 0
-0.076175 0.0116971 0
-0.0816121 0.00935699 0
-0.0857566 0.00620704 0
-0.0884494 0.00235845 0
-0.0892919 -0.00202301 0
-0.0880085 -0.00653549 0
-0.0847418 -0.0108905 0
-0.079564 -0.0147616 0
-0.0726718 -0.0178188 0
-0.0643852 -0.0197816 0
-0.0551269 -0.0204623 0
-0.0453883 -0.0197985 0
-0.0356832 -0.017869 0
-0.026497 -0.0148932 0
-0.0182382 -0.0112175 0
-0.0136155 -0.00729341 0
-0.010398 -0.00362717 0
-0.00612268 0.00011852 0
-0.00299528 0.00360355 0
-0.00084491 0.00667585 0
0.000487403 0.00925561 0
0.00116394 0.0112878 0
0.00135203 0.0127239 0
0.00121773 0.0135143 0
0.000915691 0.0136051 0
0.000576728 0.01294 0
0.000294401 0.0114687 0
0.000113861 0.00916357 0
2.99963e-05 0.00604828 0
4.30665e-06 0.00222794 0
-9.04156e-05 -0.00159152 0
-0.000466977 -0.00388978 0
-0.00124614 -0.00535995 0
-0.00244387 -0.00601337 0
-0.0040711 -0.00590892 0
-0.00614564 -0.00513873 0
-0.0086971 -0.00381011 0
-0.011766 -0.00203 0
-0.0153991 0.000105518 0
-0.0196422 0.00251737 0
-0.0245285 0.00514656 0
-0.0268979 0.00795451 0
-0.0298567 0.0108974 0
-0.0365579 0.0134084 0
-0.0438699 0.0155221 0
-0.0517399 0.0172166 0
-0.0600385 0.0184134 0
-0.0685663 0.0189909 0
-0.0770583 0.0188068 0
-0.0851923 0.0177251 0
-0.0926021 0.0156439 0
-0.0988987 0.0125227 0
-0.103698 0.00840402 0
-0.106798 0.00342882 0
-0.107798 -0.00217879 0
-0.106454 -0.00792923 0
-0.102898 -0.0135314 0
-0.0971782 -0.0185968 0
-0.0894808 -0.0227245 0
-0.0801254 -0.0255644 0
-0.0695506 -0.0268679 0
-0.058283 -0.0265274 0
-0.0468933 -0.0245999 0
-0.0359435 -0.0213115 0
-0.0259338 -0.0170432 0
-0.0203247 -0.0123012 0
-0.01632 -0.00765544 0
-0.0108067 -0.00306328 0
-0.00660026 0.00118012 0
-0.00352092 0.00494163 0
-0.00140814 0.00813412 0
-9.39836e-05 0.0106845 0
0.000599215 0.0125266 0
0.000849124 0.0135993 0
0.00081986 0.0138484 0
0.000648932 0.0132306 0
0.000437461 0.0117242 0
0.000246863 0.00934252 0
0.000105225 0.00614965 0
2.42243e-05 0.00226746 0
-0.000115216 -0.00129642 0
-0.000593183 -0.00301241 0
-0.00158558 -0.00392748 0
-0.00312273 -0.00406907 0
-0.0052227 -0.0034943 0
-0.00790025 -0.00228384 0
-0.0111741 -0.000531451 0
-0.0150703 0.00166654 0
-0.0196213 0.00421896 0
-0.02486 0.00704363 0
-0.0308083 0.0100674 0
-0.0337059 0.0132216 0
-0.0372387 0.0164108 0
-0.0451488 0.019217 0
-0.0537181 0.021604 0
-0.0628844 0.0234928 0
-0.072497 0.0247601 0
-0.0823255 0.0252479 0
-0.0920691 0.024784 0
-0.101369 0.0232104 0
-0.109827 0.0204135 0
-0.117027 0.016354 0
-0.122565 0.0110899 0
-0.126111 0.00479387 0
-0.127345 -0.00225638 0
-0.126134 -0.00943277 0
-0.122503 -0.0164938 0
-0.116459 -0.0229814 0
-0.108157 -0.0284153 0
-0.0978974 -0.0323655 0
-0.0861174 -0.0345087 0
-0.0733663 -0.0346749 0
-0.060266 -0.0328806 0
-0.0474582 -0.0293416 0
-0.0355452 -0.0244608 0
-0.028868 -0.0187936 0
-0.0239715 -0.0129827 0
-0.0169858 -0.0074169 0
-0.0114544 -0.00229281 0
-0.00720807 0.00229022 0
-0.0040993 0.00623429 0
-0.00196254 0.009441 0
-0.000613401 0.0118213 0
0.000137145 0.0133018 0
0.000466222 0.0138285 0
0.000525894 0.0133718 0
0.000435981 0.0119338 0
0.000284163 0.0095551 0
0.000133127 0.00631924 0
3.22014e-05 0.00234848 0
-0.000149103 -0.000898295 0
-0.000759233 -0.00184357 0
-0.00201435 -0.00202148 0
-0.00394769 -0.00147968 0
-0.00657724 -0.000281605 0
-0.00991235 0.00149735 0
-0.0139612 0.0037754 0
-0.0187362 0.00646948 0
-0.0242553 0.00949777 0
-0.0305378 0.012779 0
-0.0375929 0.016228 0
-0.0410383 0.0197476 0
-0.0451646 0.0231936 0
-0.0543248 0.0263128 0
-0.0641854 0.0289861 0
-0.0746706 0.0310673 0
-0.0856082 0.032381 0
-0.0967417 0.0327282 0
-0.107742 0.0319061 0
-0.118226 0.0297365 0
-0.127775 0.0260983 0
-0.13596 0.0209571 0
-0.142366 0.0143881 0
-0.146414 0.00659246 0
-0.14798 -0.00211142 0
-0.147153 -0.0108971 0
-0.14371 -0.0196389 0
-0.1376 -0.0277984 0
-0.128932 -0.0348097 0
-0.117967 -0.0401526 0
-0.105123 -0.0434128 0
-0.0909561 -0.0443368 0
-0.0761294 -0.0428761 0
-0.0613634 -0.0392109 0
-0.0473718 -0.0337459 0
-0.0395331 -0.0270749 0
-0.0336181 -0.0199184 0
-0.0248707 -0.0132703 0
-0.0177155 -0.00714085 0
-0.0120215 -0.00158289 0
-0.00767028 0.00328417 0
-0.0045048 0.00732395 0
-0.0023342 0.010416 0
-0.000954371 0.0124698 0
-0.000168417 0.0134291 0
0.00019903 0.0132741 0
0.000295021 0.0120237 0
0.000238335 0.00973529 0
0.000124375 0.00650199 0
3.18752e-05 0.00244469 0
-0.00018986 -0.000363762 0
-0.000956352 -0.00030208 0
-0.00251515 0.000468076 0
-0.00489407 0.00187915 0
-0.00810384 0.00385961 0
-0.0121441 0.00633782 0
-0.0170106 0.00924457 0
-0.0227022 0.0125129 0
-0.0292227 0.0160746 0
-0.0365783 0.0198533 0
-0.0447664 0.0237551 0
-0.0487687 0.0276568 0
-0.0534992 0.0313711 0
-0.0639351 0.0348174 0
-0.0751066 0.0377816 0
-0.0869214 0.0400434 0
-0.0991875 0.0413704 0
-0.111628 0.0415212 0
-0.123895 0.0402633 0
-0.135592 0.0374019 0
-0.146293 0.0328122 0
-0.155565 0.026467 0
-0.162988 0.0184576 0
-0.1676 0.00900558 0
-0.169611 -0.00154557 0
-0.169454 -0.0121226 0
-0.166494 -0.0227786 0
-0.160614 -0.0328812 0
-0.151862 -0.0417762 0
-0.140444 -0.0488452 0
-0.126735 -0.0535667 0
-0.111276 -0.0555797 0
-0.094754 -0.0547396 0
-0.0779586 -0.051158 0
-0.0617162 -0.0452103 0
-0.0526288 -0.0375076 0
-0.0455507 -0.0288465 0
-0.0346907 -0.0210352 0
-0.0255541 -0.0137685 0
-0.0180842 -0.00705001 0
-0.0122081 -0.0010439 0
-0.0077812 0.00405503 0
-0.00460307 0.0080815 0
-0.00244826 0.0109195 0
-0.001092 0.0125046 0
-0.000327335 0.0128216 0
2.65205e-05 0.0118996 0
0.000122363 0.00980704 0
8.71824e-05 0.00664431 0
2.5602e-05 0.00253486 0
-0.000235691 0.000337248 0
-0.00117654 0.00168708 0
-0.00306983 0.00364574 0
-0.00593187 0.00612769 0
-0.00976011 0.00905539 0
-0.0145398 0.0123636 0
-0.020252 0.0159994 0
-0.0268809 0.0199165 0
-0.0344169 0.0240651 0
-0.0428539 0.0283784 0
-0.0521793 0.0327576 0
-0.0567369 0.0370574 0
-0.0620713 0.0410538 0
-0.0737867 0.0448375 0
-0.0862678 0.0480896 0
-0.099404 0.0505115 0
-0.112986 0.0518127 0
-0.126723 0.0517104 0
-0.140258 0.0499455 0
-0.153193 0.0463102 0
-0.165101 0.0406789 0
-0.175556 0.0330326 0
-0.184137 0.0234752 0
-0.189356 0.0122392 0
-0.191919 -0.000319497 0
-0.192724 -0.0128716 0
-0.190552 -0.0256806 0
-0.185222 -0.0380091 0
-0.176716 -0.0491191 0
-0.165166 -0.0582902 0
-0.150881 -0.0648818 0
-0.134355 -0.068401 0
-0.116268 -0.0685729 0
-0.0974519 -0.0653972 0
-0.0788353 -0.059177 0
-0.0684497 -0.0505037 0
-0.0600582 -0.0402333 0
-0.0466764 -0.0312172 0
-0.0351449 -0.0226666 0
-0.0255257 -0.014558 0
-0.0178062 -0.00714067 0
-0.0118553 -0.000697098 0
-0.00745896 0.00454388 0
-0.00436332 0.00842901 0
-0.00230763 0.010878 0
-0.00104576 0.0118739 0
-0.000357525 0.0114519 0
-5.29417e-05 0.0096892 0
2.76033e-05 0.0066951 0
1.49792e-05 0.00260118 0
-0.000284794 0.00123085 0
-0.00141136 0.00418917 0
-0.00365811 0.00760305 0
-0.00702539 0.0113715 0
-0.0114928 0.0154158 0
-0.0170275 0.019683 0
-0.0235933 0.024143 0
-0.0311588 0.0287771 0
-0.0397012 0.0335603 0
-0.0492037 0.0384406 0
-0.0596455 0.0433186 0
-0.0647446 0.0480319 0
-0.0706695 0.052327 0
-0.0836401 0.0564542 0
-0.0974001 0.0599837 0
-0.111821 0.0625381 0
-0.12668 0.063771 0
-0.141677 0.0633611 0
-0.156455 0.0610265 0
-0.17062 0.0565501 0
-0.183754 0.0498076 0
-0.195438 0.040788 0
-0.205261 0.0296043 0
-0.211095 0.0164936 0
-0.214287 0.00181838 0
-0.216308 -0.0128927 0
-0.215205 -0.0280823 0
-0.210753 -0.0429094 0
-0.202865 -0.0565662 0
-0.191587 -0.0682358 0
-0.177132 -0.0771539 0
-0.159909 -0.0826778 0
-0.140542 -0.0843673 0
-0.119863 -0.0820611 0
-0.0988655 -0.0759314 0
-0.0872155 -0.0664936 0
-0.0773797 -0.0546219 0
-0.061031 -0.0444094 0
-0.0466573 -0.0344069 0
-0.0344848 -0.0246274 0
-0.0245728 -0.0154636 0
-0.0168055 -0.00732323 0
-0.0109528 -0.000522275 0
-0.00672703 0.0047335 0
-0.00382494 0.00833798 0
-0.00195448 0.0102664 0
-0.000850287 0.0105571 0
-0.000280863 0.00929623 0
-5.05662e-05 0.00660478 0
1.00288e-06 0.00262809 0
-0.000335118 0.00233751 0
-0.00165116 0.00725471 0
-0.00425639 0.0124102 0
-0.00813233 0.0176908 0
-0.0132378 0.0230227 0
-0.0195191 0.0283739 0
-0.0269211 0.0337464 0
-0.0353964 0.039158 0
-0.0449092 0.0446164 0
-0.0554331 0.0500903 0
-0.0669411 0.0554851 0
-0.0725546 0.0606266 0
-0.0790408 0.0652388 0
-0.0932055 0.0697099 0
-0.108175 0.0734984 0
-0.123803 0.0761512 0
-0.139857 0.07727 0
-0.156032 0.0764996 0
-0.171975 0.0735392 0
-0.187299 0.0681656 0
-0.201598 0.0602576 0
-0.214469 0.0498125 0
-0.225517 0.0369527 0
-0.231915 0.0219199 0
-0.235759 0.00508692 0
-0.239158 -0.0119565 0
-0.239342 -0.0297142 0
-0.236072 -0.0472688 0
-0.229199 -0.0637663 0
-0.218672 -0.0783116 0
-0.204583 -0.0900257 0
-0.187209 -0.0981098 0
-0.167061 -0.101931 0
-0.144898 -0.101117 0
-0.121715 -0.0956399 0
-0.108977 -0.0858613 0
-0.097626 -0.0725979 0
-0.0778881 -0.0612543 0
-0.0602423 -0.0496126 0
-0.0451139 -0.0378375 0
-0.032644 -0.0265343 0
-0.0227407 -0.0162781 0
-0.0151629 -0.00750136 0
-0.00958969 -0.000482476 0
-0.00567171 0.00463346 0
-0.00306558 0.00780649 0
-0.00145487 0.00907523 0
-0.000560818 0.00853524 0
-0.000146307 0.00632245 0
-1.59748e-05 0.00260082 0
-0.000384248 0.00366958 0
-0.00188463 0.0109132 0
-0.00483717 0.0181068 0
-0.00920336 0.0251287 0
-0.01492 0.0319175 0
-0.0219115 0.0384719 0
-0.0301032 0.0448371 0
-0.0394312 0.0510781 0
-0.0498473 0.057244 0
-0.0613162 0.0633318 0
-0.073806 0.0692572 0
-0.0798918 0.0748392 0
-0.0868912 0.0797865 0
-0.102144 0.0845932 0
-0.118204 0.088612 0
-0.134909 0.0913203 0
-0.152015 0.0922733 0
-0.169218 0.0910862 0
-0.186167 0.0874433 0
-0.202483 0.0811181 0
-0.217775 0.0719958 0
-0.231661 0.0600859 0
-0.243774 0.0455258 0
-0.250616 0.0285709 0
-0.255061 0.00961559 0
-0.259859 -0.00989934 0
-0.261444 -0.030336 0
-0.259597 -0.0507608 0
-0.25412 -0.070305 0
-0.244867 -0.0880291 0
-0.231787 -0.102966 0
-0.214985 -0.114173 0
-0.19479 -0.120815 0
-0.171805 -0.122268 0
-0.146931 -0.118236 0
-0.13348 -0.108831 0
-0.120665 -0.0947006 0
-0.0972491 -0.0823531 0
-0.0760065 -0.0688967 0
-0.0575719 -0.0547942 0
-0.0421869 -0.0409267 0
-0.0298091 -0.0280814 0
-0.0202065 -0.0168439 0
-0.0130354 -0.00759423 0
-0.00790292 -0.00053583 0
-0.00441151 0.0042648 0
-0.00218816 0.0068416 0
-0.00090016 0.00729921 0
-0.000261978 0.00579101 0
-3.63483e-05 0.00250338 0
-0.000429387 0.0052284 0
-0.00209884 0.0151663 0
-0.0053692 0.0246925 0
-0.0101828 0.0336804 0
-0.0164551 0.0420888 0
-0.0240894 0.0499576 0
-0.0329916 0.0573869 0
-0.0430818 0.0645 0
-0.0542995 0.0713974 0
-0.0666012 0.0781119 0
-0.07995 0.0845753 0
-0.0864495 0.0906054 0
-0.0938923 0.0959007 0
-0.110073 0.101022 0
-0.127046 0.105229 0
-0.14463 0.107936 0
-0.162573 0.108659 0
-0.180565 0.106987 0
-0.198259 0.102593 0
-0.215282 0.0952514 0
-0.231262 0.0848603 0
-0.245843 0.0714508 0
-0.258706 0.0551879 0
-0.265802 0.0363565 0
-0.27071 0.0153879 0
-0.276752 -0.00666759 0
-0.279709 -0.0297808 0
-0.279416 -0.0530893 0
-0.275645 -0.0757459 0
-0.268167 -0.0968148 0
-0.256785 -0.115287 0
-0.241405 -0.130113 0
-0.222115 -0.140269 0
-0.199272 -0.144868 0
-0.173564 -0.143288 0
-0.160006 -0.135306 0
-0.145971 -0.121251 0
-0.118891 -0.108112 0
-0.0939525 -0.0927603 0
-0.071987 -0.076071 0
-0.0533787 -0.0592388 0
-0.0381888 -0.0433087 0
-0.0262369 -0.0290697 0
-0.0171832 -0.017046 0
-0.010603 -0.00753099 0
-0.00604715 -0.000636949 0
-0.00308216 0.00365562 0
-0.00131485 0.00545744 0
-0.000403538 0.00494023 0
-6.12976e-05 0.00231569 0
-0.000467451 0.00700149 0
-0.00227962 0.0199811 0
-0.00581858 0.0321177 0
-0.0110105 0.0432828 0
-0.0177525 0.0534621 0
-0.0259291 0.0627465 0
-0.0354285 0.0713019 0
-0.0461554 0.0793207 0
-0.0580369 0.0869645 0
-0.0710206 0.0943094 0
-0.0850641 0.101309 0
-0.0919015 0.107786 0
-0.0996938 0.113431 0
-0.116584 0.118828 0
-0.134226 0.12316 0
-0.152418 0.125791 0
-0.170897 0.126198 0
-0.189348 0.12395 0
-0.207419 0.118712 0
-0.224747 0.110269 0
-0.240981 0.098541 0
-0.255803 0.0835956 0
-0.268957 0.0656438 0
-0.276062 0.0450197 0
-0.281215 0.0222037 0
-0.288168 -0.00235028 0
-0.292311 -0.0279996 0
-0.29355 -0.0540443 0
-0.291659 -0.0796964 0
-0.286351 -0.104082 0
-0.277301 -0.126211 0
-0.264211 -0.144988 0
-0.246899 -0.159253 0
-0.225404 -0.167874 0
-0.20009 -0.16989 0
-0.187225 -0.164675 0
-0.172477 -0.152095 0
-0.142244 -0.138539 0
-0.11387 -0.121454 0
-0.088368 -0.102116 0
-0.0663428 -0.082035 0
-0.0480455 -0.0625619 0
-0.0334181 -0.0447567 0
-0.0221719 -0.0293524 0
-0.0138777 -0.0167821 0
-0.00804514 -0.00723716 0
-0.00418148 -0.000730985 0
-0.00182813 0.00284503 0
-0.00058002 0.00367929 0
-9.26744e-05 0.00201054 0
-0.000495268 0.00896031 0
-0.00241249 0.025285 0
-0.00615071 0.0402768 0
-0.0116255 0.0538069 0
-0.0187209 0.0658923 0
-0.0273066 0.0766818 0
-0.0372558 0.0864156 0
-0.0484587 0.0953647 0
-0.06083 0.10376 0
-0.0743067 0.111728 0
-0.088839 0.119251 0
-0.0959207 0.126157 0
-0.103945 0.132137 0
-0.121266 0.137747 0
-0.139268 0.142119 0
-0.157728 0.14457 0
-0.176367 0.144546 0
-0.19486 0.1416 0
-0.212853 0.135397 0
-0.229994 0.125741 0
-0.245959 0.112591 0
-0.260482 0.0960708 0
-0.273379 0.0764566 0
-0.280223 0.054149 0
-0.285349 0.0296822 0
-0.292741 0.00281394 0
-0.297739 -0.0250902 0
-0.300324 -0.0535542 0
-0.300302 -0.0818862 0
-0.297368 -0.109331 0
-0.291107 -0.134989 0
-0.281049 -0.157798 0
-0.266748 -0.176541 0
-0.247901 -0.189909 0
-0.224474 -0.196634 0
-0.213184 -0.195673 0