# vtk DataFile Version 2.0
Velocidades
ASCII

DATASET STRUCTURED_GRID
DIMENSIONS   50   50   20

POINTS   50000   double
0.00568455   0.00568455   0.025
0.0174023   0.00568455   0.025
0.0298294   0.00568455   0.025
0.0429888   0.00568455   0.025
0.0569012   0.00568455   0.025
0.0715849   0.00568455   0.025
0.0870549   0.00568455   0.025
0.103323   0.00568455   0.025
0.120395   0.00568455   0.025
0.138275   0.00568455   0.025
0.156961   0.00568455   0.025
0.176443   0.00568455   0.025
0.196707   0.00568455   0.025
0.217734   0.00568455   0.025
0.239496   0.00568455   0.025
0.261959   0.00568455   0.025
0.285082   0.00568455   0.025
0.308818   0.00568455   0.025
0.333113   0.00568455   0.025
0.357906   0.00568455   0.025
0.383132   0.00568455   0.025
0.408719   0.00568455   0.025
0.434592   0.00568455   0.025
0.460672   0.00568455   0.025
0.486877   0.00568455   0.025
0.513123   0.00568455   0.025
0.539328   0.00568455   0.025
0.565408   0.00568455   0.025
0.591281   0.00568455   0.025
0.616868   0.00568455   0.025
0.642094   0.00568455   0.025
0.666887   0.00568455   0.025
0.691182   0.00568455   0.025
0.714918   0.00568455   0.025
0.738041   0.00568455   0.025
0.760504   0.00568455   0.025
0.782266   0.00568455   0.025
0.803293   0.00568455   0.025
0.823557   0.00568455   0.025
0.843039   0.00568455   0.025
0.861725   0.00568455   0.025
0.879605   0.00568455   0.025
0.896677   0.00568455   0.025
0.912945   0.00568455   0.025
0.928415   0.00568455   0.025
0.943099   0.00568455   0.025
0.957011   0.00568455   0.025
0.970171   0.00568455   0.025
0.982598   0.00568455   0.025
0.994315   0.00568455   0.025
0.00568455   0.0174023   0.025
0.0174023   0.0174023   0.025
0.0298294   0.0174023   0.025
0.0429888   0.0174023   0.025
0.0569012   0.0174023   0.025
0.0715849   0.0174023   0.025
0.0870549   0.0174023   0.025
0.103323   0.0174023   0.025
0.120395   0.0174023   0.025
0.138275   0.0174023   0.025
0.156961   0.0174023   0.025
0.176443   0.0174023   0.025
0.196707   0.0174023   0.025
0.217734   0.0174023   0.025
0.239496   0.0174023   0.025
0.261959   0.0174023   0.025
0.285082   0.0174023   0.025
0.308818   0.0174023   0.025
0.333113   0.0174023   0.025
0.357906   0.0174023   0.025
0.383132   0.0174023   0.025
0.408719   0.0174023   0.025
0.434592   0.0174023   0.025
0.460672   0.0174023   0.025
0.486877   0.0174023   0.025
0.513123   0.0174023   0.025
0.539328   0.0174023   0.025
0.565408   0.0174023   0.025
0.591281   0.0174023   0.025
0.616868   0.0174023   0.025
0.642094   0.0174023   0.025
0.666887   0.0174023   0.025
0.691182   0.0174023   0.025
0.714918   0.0174023   0.025
0.738041   0.0174023   0.025
0.760504   0.0174023   0.025
0.782266   0.0174023   0.025
0.803293   0.0174023   0.025
0.823557   0.0174023   0.025
0.843039   0.0174023   0.025
0.861725   0.0174023   0.025
0.879605   0.0174023   0.025
0.896677   0.0174023   0.025
0.912945   0.0174023   0.025
0.928415   0.0174023   0.025
0.943099   0.0174023   0.025
0.957011   0.0174023   0.025
0.970171   0.0174023   0.025
0.982598   0.0174023   0.025
0.994315   0.0174023   0.025
0.00568455   0.0298294   0.025
0.0174023   0.0298294   0.025
0.0298294   0.0298294   0.025
0.0429888   0.0298294   0.025
0.0569012   0.0298294   0.025
0.0715849   0.0298294   0.025
0.0870549   0.0298294   0.025
0.103323   0.0298294   0.025
0.120395   0.0298294   0.025
0.138275   0.0298294   0.025
0.156961   0.0298294   0.025
0.176443   0.0298294   0.025
0.196707   0.0298294   0.025
0.217734   0.0298294   0.025
0.239496   0.0298294   0.025
0.261959   0.0298294   0.025
0.285082   0.0298294   0.025
0.308818   0.0298294   0.025
0.333113   0.0298294   0.025
0.357906   0.0298294   0.025
0.383132   0.0298294   0.025
0.408719   0.0298294   0.025
0.434592   0.0298294   0.025
0.460672   0.0298294   0.025
0.486877   0.0298294   0.025
0.513123   0.0298294   0.025
0.539328   0.0298294   0.025
0.565408   0.0298294   0.025
0.591281   0.0298294   0.025
0.616868   0.0298294   0.025
0.642094   0.0298294   0.025
0.666887   0.0298294   0.025
0.691182   0.0298294   0.025
0.714918   0.0298294   0.025
0.738041   0.0298294   0.025
0.760504   0.0298294   0.025
0.782266   0.0298294   0.025
0.803293   0.0298294   0.025
0.823557   0.0298294   0.025
0.843039   0.0298294   0.025
0.861725   0.0298294   0.025
0.879605   0.0298294   0.025
0.896677   0.0298294   0.025
0.912945   0.0298294   0.025
0.928415   0.0298294   0.025
0.943099   0.0298294   0.025
0.957011   0.0298294   0.025
0.970171   0.0298294   0.025
0.982598   0.0298294   0.025
0.994315   0.0298294   0.025
0.00568455   0.0429888   0.025
0.0174023   0.0429888   0.025
0.0298294   0.0429888   0.025
0.0429888   0.0429888   0.025
0.0569012   0.0429888   0.025
0.0715849   0.0429888   0.025
0.0870549   0.0429888   0.025
0.103323   0.0429888   0.025
0.120395   0.0429888   0.025
0.138275   0.0429888   0.025
0.156961   0.0429888   0.025
0.176443   0.0429888   0.025
0.196707   0.0429888   0.025
0.217734   0.0429888   0.025
0.239496   0.0429888   0.025
0.261959   0.0429888   0.025
0.285082   0.0429888   0.025
0.308818   0.0429888   0.025
0.333113   0.0429888   0.025
0.357906   0.0429888   0.025
0.383132   0.0429888   0.025
0.408719   0.0429888   0.025
0.434592   0.0429888   0.025
0.460672   0.0429888   0.025
0.486877   0.0429888   0.025
0.513123   0.0429888   0.025
0.539328   0.0429888   0.025
0.565408   0.0429888   0.025
0.591281   0.0429888   0.025
0.616868   0.0429888   0.025
0.642094   0.0429888   0.025
0.666887   0.0429888   0.025
0.691182   0.0429888   0.025
0.714918   0.0429888   0.025
0.738041   0.0429888   0.025
0.760504   0.0429888   0.025
0.782266   0.0429888   0.025
0.803293   0.0429888   0.025
0.823557   0.0429888   0.025
0.843039   0.0429888   0.025
0.861725   0.0429888   0.025
0.879605   0.0429888   0.025
0.896677   0.0429888   0.025
0.912945   0.0429888   0.025
0.928415   0.0429888   0.025
0.943099   0.0429888   0.025
0.957011   0.0429888   0.025
0.970171   0.0429888   0.025
0.982598   0.0429888   0.025
0.994315   0.0429888   0.025
0.00568455   0.0569012   0.025
0.0174023   0.0569012   0.025
0.0298294   0.0569012   0.025
0.0429888   0.0569012   0.025
0.0569012   0.0569012   0.025
0.0715849   0.0569012   0.025
0.0870549   0.0569012   0.025
0.103323   0.0569012   0.025
0.120395   0.0569012   0.025
0.138275   0.0569012   0.025
0.156961   0.0569012   0.025
0.176443   0.0569012   0.025
0.196707   0.0569012   0.025
0.217734   0.0569012   0.025
0.239496   0.0569012   0.025
0.261959   0.0569012   0.025
0.285082   0.0569012   0.025
0.308818   0.0569012   0.025
0.333113   0.0569012   0.025
0.357906   0.0569012   0.025
0.383132   0.0569012   0.025
0.408719   0.0569012   0.025
0.434592   0.0569012   0.025
0.460672   0.0569012   0.025
0.486877   0.0569012   0.025
0.513123   0.0569012   0.025
0.539328   0.0569012   0.025
0.565408   0.0569012   0.025
0.591281   0.0569012   0.025
0.616868   0.0569012   0.025
0.642094   0.0569012   0.025
0.666887   0.0569012   0.025
0.691182   0.0569012   0.025
0.714918   0.0569012   0.025
0.738041   0.0569012   0.025
0.760504   0.0569012   0.025
0.782266   0.0569012   0.025
0.803293   0.0569012   0.025
0.823557   0.0569012   0.025
0.843039   0.0569012   0.025
0.861725   0.0569012   0.025
0.879605   0.0569012   0.025
0.896677   0.0569012   0.025
0.912945   0.0569012   0.025
0.928415   0.0569012   0.025
0.943099   0.0569012   0.025
0.957011   0.0569012   0.025
0.970171   0.0569012   0.025
0.982598   0.0569012   0.025
0.994315   0.0569012   0.025
0.00568455   0.0715849   0.025
0.0174023   0.0715849   0.025
0.0298294   0.0715849   0.025
0.0429888   0.0715849   0.025
0.0569012   0.0715849   0.025
0.0715849   0.0715849   0.025
0.0870549   0.0715849   0.025
0.103323   0.0715849   0.025
0.120395   0.0715849   0.025
0.138275   0.0715849   0.025
0.156961   0.0715849   0.025
0.176443   0.0715849   0.025
0.196707   0.0715849   0.025
0.217734   0.0715849   0.025
0.239496   0.0715849   0.025
0.261959   0.0715849   0.025
0.285082   0.0715849   0.025
0.308818   0.0715849   0.025
0.333113   0.0715849   0.025
0.357906   0.0715849   0.025
0.383132   0.0715849   0.025
0.408719   0.0715849   0.025
0.434592   0.0715849   0.025
0.460672   0.0715849   0.025
0.486877   0.0715849   0.025
0.513123   0.0715849   0.025
0.539328   0.0715849   0.025
0.565408   0.0715849   0.025
0.591281   0.0715849   0.025
0.616868   0.0715849   0.025
0.642094   0.0715849   0.025
0.666887   0.0715849   0.025
0.691182   0.0715849   0.025
0.714918   0.0715849   0.025
0.738041   0.0715849   0.025
0.760504   0.0715849   0.025
0.782266   0.0715849   0.025
0.803293   0.0715849   0.025
0.823557   0.0715849   0.025
0.843039   0.0715849   0.025
0.861725   0.0715849   0.025
0.879605   0.0715849   0.025
0.896677   0.0715849   0.025
0.912945   0.0715849   0.025
0.928415   0.0715849   0.025
0.943099   0.0715849   0.025
0.957011   0.0715849   0.025
0.970171   0.0715849   0.025
0.982598   0.0715849   0.025
0.994315   0.0715849   0.025
0.00568455   0.0870549   0.025
0.0174023   0.0870549   0.025
0.0298294   0.0870549   0.025
0.0429888   0.0870549   0.025
0.0569012   0.0870549   0.025
0.0715849   0.0870549   0.025
0.0870549   0.0870549   0.025
0.103323   0.0870549   0.025
0.120395   0.0870549   0.025
0.138275   0.0870549   0.025
0.156961   0.0870549   0.025
0.176443   0.0870549   0.025
0.196707   0.0870549   0.025
0.217734   0.0870549   0.025
0.239496   0.0870549   0.025
0.261959   0.0870549   0.025
0.285082   0.0870549   0.025
0.308818   0.0870549   0.025
0.333113   0.0870549   0.025
0.357906   0.0870549   0.025
0.383132   0.0870549   0.025
0.408719   0.0870549   0.025
0.434592   0.0870549   0.025
0.460672   0.0870549   0.025
0.486877   0.0870549   0.025
0.513123   0.0870549   0.025
0.539328   0.0870549   0.025
0.565408   0.0870549   0.025
0.591281   0.0870549   0.025
0.616868   0.0870549   0.025
0.642094   0.0870549   0.025
0.666887   0.0870549   0.025
0.691182   0.0870549   0.025
0.714918   0.0870549   0.025
0.738041   0.0870549   0.025
0.760504   0.0870549   0.025
0.782266   0.0870549   0.025
[...]
POINT_DATA   50000
VECTORS Velocidades double

-7.57463e-05 -0.00166439 0
-0.000205014 -0.00326814 0
-0.000281772 -0.00417033 0
-0.000310409 -0.00467671 0
-0.000318313 -0.00491131 0
-0.000332302 -0.00493686 0
-0.000372743 -0.00479189 0
-0.000453916 -0.00450371 0
-0.000585437 -0.00409302 0
-0.000773786 -0.00357469 0
-0.00102435 -0.00295473 0
-0.00114913 -0.00221685 0
-0.00132739 -0.00126287 0
-0.00176551 -0.000546572 0
-0.00227819 4.99264e-05 0
-0.00283818 0.000553367 0
-0.0034362 0.000960924 0
-0.00406324 0.00125605 0
-0.00470629 0.00141667 0
-0.00534657 0.00142163 0
-0.00595888 0.00125656 0
-0.0065122 0.000918796 0
-0.00697237 0.000420876 0
-0.00729451 -0.000207064 0
-0.00743689 -0.000906002 0
-0.00737131 -0.00160873 0
-0.00708098 -0.00223687 0
-0.00656972 -0.00271682 0
-0.00586134 -0.00298547 0
-0.00500021 -0.00299881 0
-0.00404711 -0.00273914 0
-0.00307129 -0.00221867 0
-0.00214038 -0.00147861 0
-0.00131058 -0.00058503 0
-0.000618185 0.000376148 0
-0.0002302 0.00129731 0
8.225e-06 0.00202048 0
0.00027614 0.00285751 0
0.000439664 0.00365193 0
0.00050485 0.00434509 0
0.000491297 0.00491117 0
0.000418683 0.00533828 0
0.000305151 0.00562032 0
0.000167788 0.00575251 0
2.3665e-05 0.00572815 0
-0.00010872 0.00553468 0
-0.000207669 0.00514671 0
-0.000247347 0.00451018 0
-0.000203477 0.00349933 0
-7.90369e-05 0.00177991 0
-0.000253429 -0.00305982 0
-0.000667882 -0.00637526 0
-0.000883008 -0.00828961 0
-0.000940189 -0.00935069 0
-0.000943007 -0.00982285 0
-0.00097326 -0.0098493 0
-0.00108901 -0.00951897 0
-0.00133086 -0.00889405 0
-0.0017269 -0.00802073 0
-0.00229701 -0.00693115 0
-0.0030589 -0.00563685 0
-0.00339235 -0.00410063 0
-0.00395084 -0.00214229 0
-0.00536587 -0.000665352 0
-0.00696262 0.000556935 0
-0.00870501 0.00158529 0
-0.0105681 0.00241532 0
-0.0125218 0.00301173 0
-0.014521 0.00332671 0
-0.0165012 0.00331385 0
-0.018378 0.00294061 0
-0.0200501 0.00219905 0
-0.0214077 0.00111389 0
-0.0223243 -0.000252269 0
-0.0226809 -0.00179992 0
-0.022398 -0.00335958 0
-0.0214444 -0.00477094 0
-0.0198453 -0.0058768 0
-0.0176786 -0.00653884 0
-0.0150764 -0.00665748 0
-0.0122127 -0.00618863 0
-0.00928369 -0.00515253 0
-0.00648205 -0.00363308 0
-0.00397148 -0.00176953 0
-0.00186354 0.000253155 0
-0.000717544 0.00219957 0
1.67721e-05 0.00374122 0
0.000892047 0.00551423 0
0.00140918 0.00719855 0
0.00161625 0.00866896 0
0.00157454 0.00987202 0
0.00134411 0.0107837 0
0.000981138 0.0113911 0
0.000539208 0.0116831 0
7.20224e-05 0.0116429 0
-0.000362746 0.0112396 0
-0.000697739 0.0104123 0
-0.000848411 0.00903675 0
-0.000715547 0.00684844 0
-0.000282662 0.00325983 0
-0.000182934 -0.00258509 0
-0.000581589 -0.00598563 0
-0.000950459 -0.00808542 0
-0.00120922 -0.00924814 0
-0.00141835 -0.00973047 0
-0.00166854 -0.00970045 0
-0.00204211 -0.00927129 0
-0.00260443 -0.00852336 0
-0.00340502 -0.00751507 0
-0.00448158 -0.00628532 0
-0.005866 -0.00484632 0
-0.00649285 -0.00315677 0
-0.00745656 -0.00107161 0
-0.00983481 0.000520304 0
-0.0125071 0.00182557 0
-0.015429 0.00291509 0
-0.0185544 0.00378559 0
-0.0218236 0.00439575 0
-0.0251525 0.00468805 0
-0.0284262 0.0046054 0
-0.0314991 0.00410554 0
-0.0342008 0.00317409 0
-0.0363488 0.0018349 0
-0.0377759 0.000154915 0
-0.0382856 -0.0017902 0
-0.0377412 -0.00376459 0
-0.0361319 -0.00559102 0
-0.0335047 -0.00708607 0
-0.0299859 -0.00808077 0
-0.0257798 -0.00844636 0
-0.021152 -0.00811665 0
-0.0164001 -0.00710108 0
-0.0118186 -0.00548649 0
-0.00766147 -0.00342961 0
-0.00410939 -0.00114756 0
-0.00215546 0.00107817 0
-0.000882818 0.00288791 0
0.000662049 0.00493054 0
0.00162708 0.00687023 0
0.00209515 0.00856639 0
0.00216097 0.0099606 0
0.00191971 0.0110266 0
0.00146414 0.0117486 0
0.000885704 0.0121097 0
0.000277019 0.0120841 0
-0.000265419 0.0116266 0
-0.000640797 0.010657 0
-0.000754134 0.00903337 0
-0.000560955 0.00651444 0
-0.000193771 0.00274188 0
-0.000115779 -0.00224155 0
-0.000445585 -0.00551703 0
-0.000892503 -0.00768585 0
-0.0013626 -0.00891114 0
-0.001866 -0.00938588 0
-0.00246646 -0.00927598 0
-0.00324271 -0.0087115 0
-0.00426914 -0.00779161 0
-0.00560902 -0.00658983 0
-0.00731403 -0.00515497 0
-0.00942576 -0.00350452 0
-0.0104105 -0.00160404 0
-0.0118135 0.000651163 0
-0.0151806 0.00240771 0
-0.0189416 0.00384482 0
-0.0230498 0.00503237 0
-0.0274375 0.00596344 0
-0.0320116 0.00658653 0
-0.0366438 0.00682988 0
-0.0411657 0.00662107 0
-0.0453702 0.00590462 0
-0.0490212 0.00465795 0
-0.0518696 0.00290434 0
-0.0537431 0.00071746 0
-0.0543667 -0.00182227 0
-0.0535425 -0.00442265 0
-0.0513091 -0.00687253 0
-0.0477316 -0.00895075 0
-0.0429743 -0.0104456 0
-0.0372975 -0.011188 0
-0.0310371 -0.0110808 0
-0.0245709 -0.0101172 0
-0.0182768 -0.00838613 0
-0.0124882 -0.00606619 0
-0.00745507 -0.00341551 0
-0.00466088 -0.000769456 0
-0.00280485 0.00147159 0
-0.000494716 0.00392812 0
0.00103329 0.00625072 0
0.00189582 0.0082865 0
0.00221564 0.00997006 0
0.00211731 0.0112694 0
0.0017256 0.0121616 0
0.00116496 0.0126202 0
0.000558753 0.0126073 0
2.61053e-05 0.0120644 0
-0.000327727 0.0109031 0
-0.000434602 0.00899933 0
-0.000307734 0.00620353 0
-9.71774e-05 0.00240828 0
-8.32438e-05 -0.00199911 0
-0.000378467 -0.00502592 0
-0.000892498 -0.00710181 0
-0.00157043 -0.00827687 0
-0.00240597 -0.00867425 0
-0.00343603 -0.00843503 0
-0.00472165 -0.00769025 0
-0.00633122 -0.00655027 0
-0.00833022 -0.00510146 0
-0.0107759 -0.00340385 0
-0.0137131 -0.0014853 0
-0.0151091 0.000671288 0
-0.0169877 0.00312539 0
-0.02139 0.00508917 0
-0.0262701 0.00670434 0
-0.0315815 0.0080253 0
-0.0372367 0.00903285 0
-0.0431071 0.00965975 0
-0.0490183 0.0098154 0
-0.054748 0.00940851 0
-0.0600302 0.00836816 0
-0.0645687 0.00666342 0
-0.0680582 0.00431917 0
-0.0703379 0.00142273 0
-0.0710612 -0.00191295 0
-0.0699781 -0.00534667 0
-0.0671868 -0.00862564 0
-0.0627622 -0.0114813 0
-0.0568924 -0.013649 0
-0.049876 -0.0149095 0
-0.0420998 -0.0151262 0
-0.034004 -0.0142692 0
-0.026037 -0.0124259 0
-0.0186064 -0.00979713 0
-0.0120362 -0.00668491 0
-0.0083691 -0.00348113 0
-0.00587788 -0.00063355 0
-0.00267926 0.00238224 0
-0.000449197 0.00521305 0
0.000959367 0.00770084 0
0.00169121 0.00977262 0
0.00189343 0.0113867 0
0.00171557 0.0125091 0
0.00130653 0.0131018 0
0.000808826 0.0131166 0
0.000349502 0.0124909 0
2.5474e-05 0.0111487 0
-0.000117063 0.00901192 0
-0.000103555 0.00603193 0
-3.3012e-05 0.00225112 0
-7.76037e-05 -0.00179158 0
-0.000389172 -0.00448255 0
-0.00100638 -0.00631245 0
-0.00191637 -0.00729299 0
-0.00311875 -0.00750214 0
-0.00463617 -0.00705233 0
-0.00651152 -0.00606404 0
-0.00879963 -0.00464887 0
-0.0115588 -0.00290025 0
-0.0148433 -0.000888111 0
-0.0186946 0.00134592 0
-0.0205474 0.00379436 0
-0.0229366 0.00646741 0
-0.0284295 0.00867314 0
-0.0344695 0.0105059 0
-0.0410096 0.0119897 0
-0.0479423 0.0130823 0
-0.0551041 0.0136938 0
-0.0622755 0.0137102 0
-0.0691825 0.0130189 0
-0.0755062 0.0115331 0
-0.0808996 0.00921505 0
-0.0850129 0.00609546 0
-0.0876857 0.00228398 0
-0.0885232 -0.00205528 0
-0.0872528 -0.00652375 0
-0.0840141 -0.0108358 0
-0.0788779 -0.014668 0
-0.0720395 -0.0176933 0
-0.0638166 -0.0196333 0
-0.0546294 -0.020302 0
-0.0449659 -0.0196376 0
-0.0353366 -0.0177185 0
-0.0262235 -0.0147625 0
-0.0180314 -0.0111138 0
-0.0134468 -0.0072206 0
-0.0102559 -0.00358565 0
-0.00601629 0.000133236 0
-0.00291708 0.00359584 0
-0.000788708 0.00664933 0
0.000527007 0.00921347 0
0.00119154 0.0112332 0
0.0013713 0.01266 0
0.0012314 0.0134446 0
0.000925582 0.0135335 0
0.000583862 0.0128709 0
0.000299266 0.0114066 0
0.00011672 0.00911354 0
3.12183e-05 0.00601506 0
4.57067e-06 0.00221568 0
-8.98743e-05 -0.00156328 0
-0.000463967 -0.00381657 0
-0.00123772 -0.00525332 0
-0.00242685 -0.00588586 0
-0.00404208 -0.00577331 0
-0.00610083 -0.00500728 0
-0.00863215 -0.00369396 0
-0.0116758 -0.00193863 0
-0.0152778 0.000164695 0
-0.0194831 0.00253936 0
-0.0243248 0.00512897 0
-0.026672 0.00789761 0
-0.0296036 0.0108041 0
-0.0362438 0.0132798 0
-0.043489 0.0153613 0
-0.0512874 0.0170285 0
-0.0595115 0.0182049 0
-0.0679647 0.0187705 0
-0.0763852 0.0185844 0
-0.084454 0.0175112 0
-0.0918081 0.0154496 0
-0.0980612 0.0123583 0
-0.102832 0.00827871 0
-0.105913 0.00334983 0
-0.10691 -0.00220653 0
-0.105583 -0.00790419 0
-0.102058 -0.0134548 0
-0.0963836 -0.0184734 0
-0.088744 -0.022562 0
-0.079457 -0.0253731 0
-0.0689587 -0.02666 0
-0.0577729 -0.0263161 0
-0.046467 -0.0243981 0
-0.0355993 -0.0211309 0
-0.0256663 -0.0168932 0
-0.0201008 -0.0121881 0
-0.0161275 -0.00758173 0
-0.0106586 -0.00302166 0
-0.00648866 0.00119496 0
-0.00343883 0.00493355 0
-0.00134919 0.00810652 0
-5.25565e-05 0.0106409 0
0.000627817 0.0124708 0
0.00086856 0.0135356 0
0.000832805 0.0137812 0
0.000657238 0.013165 0
0.000442396 0.011665 0
0.000249376 0.00929484 0
0.000106159 0.00611807 0
2.43997e-05 0.00225579 0
-0.000114414 -0.00127012 0
-0.000588848 -0.00294552 0
-0.00157359 -0.00383159 0
-0.00309854 -0.00395655 0
-0.00518145 -0.00337775 0
-0.0078368 -0.0021755 0
-0.0110829 -0.000442632 0
-0.0149454 0.00172611 0
-0.019456 0.00424169 0
-0.0246475 0.00702457 0
-0.0305414 0.0100046 0
-0.0334119 0.0131163 0
-0.0369127 0.0162679 0
-0.0447522 0.0190362 0
-0.0532457 0.0213887 0
-0.0623321 0.0232493 0
-0.0718633 0.0244971 0
-0.081612 0.024976 0
-0.0912808 0.024515 0
-0.100515 0.0229568 0
-0.108917 0.0201877 0
-0.116076 0.0161674 0
-0.121589 0.0109522 0
-0.125118 0.00471238 0
-0.12635 -0.00227703 0
-0.12516 -0.00939182 0
-0.121562 -0.0163925 0
-0.115565 -0.0228249 0
-0.107322 -0.0282121 0
-0.0971326 -0.0321269 0
-0.0854318 -0.0342478 0
-0.0727665 -0.0344064 0
-0.0597558 -0.0326197 0
-0.0470375 -0.0291023 0
-0.03521 -0.0242553 0
-0.0285812 -0.0186309 0
-0.0237211 -0.0128681 0
-0.0167894 -0.0073398 0
-0.0113039 -0.00224724 0
-0.00709576 0.00230801 0
-0.0040177 0.00622776 0
-0.00190479 0.00941402 0
-0.000573625 0.0117783 0
0.000163714 0.0132477 0
0.000483281 0.0137685 0
0.000536227 0.0133115 0
0.000441677 0.0118786 0
0.000286826 0.00951019 0
0.000134031 0.00628926 0
3.2356e-05 0.00233729 0
-0.000147904 -0.000875034 0
-0.000752988 -0.00178604 0
-0.00199751 -0.00194125 0
-0.00391429 -0.00138881 0
-0.00652107 -0.000192299 0
-0.00982705 0.00157317 0
-0.0138402 0.00382665 0
-0.0185727 0.00648651 0
-0.0240422 0.00947307 0
-0.030268 0.0127079 0
-0.0372594 0.0161092 0
-0.0406729 0.0195835 0
-0.0447627 0.0229909 0
-0.0538438 0.0260702 0
-0.0636209 0.0287075 0
-0.0740199 0.0307608 0
-0.0848716 0.0320574 0
-0.0959229 0.0324003 0
-0.106849 0.0315879 0
-0.117268 0.0294422 0
-0.126766 0.0258415 0
-0.134914 0.0207497 0
-0.141299 0.01424 0
-0.145333 0.00651066 0
-0.146899 -0.00212285 0
-0.146094 -0.0108384 0
-0.142684 -0.0195113 0
-0.13662 -0.0276074 0
-0.12801 -0.0345641 0
-0.117114 -0.039864 0
-0.104348 -0.0430952 0
-0.0902675 -0.0440062 0
-0.0755333 -0.0425493 0
-0.0608622 -0.0389047 0
-0.0469634 -0.0334755 0
-0.039177 -0.0268527 0
-0.0333032 -0.0197531 0
-0.0246203 -0.0131474 0
-0.0175216 -0.00705465 0
-0.0118755 -0.00153022 0
-0.00756336 0.00330659 0
-0.00442872 0.00732028 0
-0.00228172 0.0103913 0
-0.000919485 0.0124298 0
-0.000146308 0.0133797 0
0.000212136 0.0132216 0
0.000302041 0.0119739 0
0.000241513 0.00969386 0
0.000125422 0.00647385 0
3.20498e-05 0.002434 0
-0.00018817 -0.000345081 0
-0.000947787 -0.000258 0
-0.00249254 0.000526386 0
-0.00484999 0.00194031 0
-0.00803083 0.00391217 0
-0.0120347 0.00637058 0
-0.0168575 0.00924701 0
-0.022498 0.0124758 0
-0.0289602 0.0159908 0
-0.0362502 0.0197187 0
-0.0443659 0.0235693 0
-0.0483321 0.0274236 0
-0.0530222 0.0310988 0
-0.0633719 0.0345039 0
-0.0744542 0.0374319 0
-0.086179 0.0396676 0
-0.0983577 0.0409818 0
-0.110716 0.041135 0
-0.122912 0.0398955 0
-0.13455 0.0370681 0
-0.145206 0.0325266 0
-0.154448 0.0262417 0
-0.161855 0.0183019 0
-0.166456 0.00892573 0
-0.168469 -0.00154626 0
-0.168334 -0.0120454 0
-0.165406 -0.0226245 0
-0.159569 -0.0326559 0
-0.15087 -0.0414885 0
-0.139515 -0.0485064 0
-0.12588 -0.0531912 0
-0.110505 -0.055184 0
-0.0940745 -0.0543422 0
-0.077376 -0.0507779 0
-0.0612316 -0.044866 0
-0.0521989 -0.0372154 0
-0.0451664 -0.0286193 0
-0.0343824 -0.0208546 0
-0.0253138 -0.0136301 0
-0.0179022 -0.00695201 0
-0.0120741 -0.000983437 0
-0.00768537 0.00408238 0
-0.00453678 0.00808144 0
-0.00240417 0.0108985 0
-0.00106413 0.0124697 0
-0.000310903 0.0127795 0
3.526e-05 0.0118571 0
0.000126294 0.00977012 0
8.84746e-05 0.00661849 0
2.58186e-05 0.00252479 0
-0.000233456 0.000349439 0
-0.00116542 0.00171275 0
-0.00304094 0.00367477 0
-0.00587635 0.00614992 0
-0.00966935 0.00906069 0
-0.0144055 0.012342 0
-0.0200663 0.0159413 0
-0.0266361 0.0198134 0
-0.0341057 0.0239107 0
-0.0424693 0.0281693 0
-0.0517151 0.0324943 0
-0.056233 0.0367452 0
-0.0615239 0.0407028 0
-0.0731483 0.0444452 0
-0.085537 0.0476627 0
-0.0985824 0.0500625 0
-0.112079 0.0513575 0
-0.125739 0.0512664 0
-0.139209 0.0495303 0
-0.152092 0.0459404 0
-0.163965 0.0403688 0
-0.174397 0.0327937 0
-0.182969 0.0233157 0
-0.188183 0.012164 0
-0.190749 -0.000308382 0
-0.191577 -0.0127758 0
-0.189434 -0.0255011 0
-0.184142 -0.0377517 0
-0.175681 -0.0487921 0
-0.164186 -0.0579043 0
-0.149966 -0.0644506 0
-0.133516 -0.067941 0
-0.115514 -0.0681032 0
-0.0967932 -0.0649388 0
-0.0782762 -0.0587512 0
-0.0679451 -0.0501312 0
-0.059603 -0.0399316 0
-0.0463089 -0.0309654 0
-0.034857 -0.0224632 0
-0.0253066 -0.0144032 0
-0.0176441 -0.00703212 0
-0.0117388 -0.00063021 0
-0.0073781 0.0045755 0
-0.0043094 0.00843277 0
-0.00227349 0.0108618 0
-0.00102562 0.0118454 0
-0.000346811 0.0114186 0
-4.81153e-05 0.00965809 0
2.91958e-05 0.00667226 0
1.52483e-05 0.00259192 0
-0.000281999 0.00123438 0
-0.00139763 0.00419089 0
-0.00362287 0.00759467 0
-0.00695844 0.0113449 0
-0.0113846 0.0153628 0
-0.016869 0.0195953 0
-0.0233763 0.0240124 0
-0.0308757 0.0285964 0
-0.039345 0.0333242 0
-0.048768 0.0381466 0
-0.0591248 0.0429685 0
-0.0641814 0.0476324 0
-0.070061 0.0518896 0
-0.0829382 0.0559772 0
-0.0966058 0.0594759 0
-0.110938 0.0620148 0
-0.125717 0.0632505 0
-0.140645 0.0628629 0
-0.155369 0.0605693 0
-0.169493 0.0561508 0
-0.182602 0.0494799 0
-0.194276 0.0405419 0
-0.2041 0.0294463 0
-0.209934 0.0164266 0
-0.213133 0.0018426 0
-0.215175 -0.0127784 0
-0.214099 -0.0278794 0
-0.209678 -0.0426239 0
-0.201827 -0.0562054 0
-0.190592 -0.0678092 0
-0.176188 -0.0766735 0
-0.159027 -0.0821588 0
-0.139735 -0.0838283 0
-0.119142 -0.0815239 0
-0.09824 -0.0754197 0
-0.0866409 -0.066032 0
-0.0768566 -0.0542329 0
-0.0606063 -0.0440723 0
-0.046323 -0.0341251 0
-0.034229 -0.0244036 0
-0.0243824 -0.0152964 0
-0.016668 -0.0072077 0
-0.0108568 -0.000451363 0
-0.00666277 0.00476813 0
-0.00378412 0.00834519 0
-0.00193033 0.010255 0
-0.000837404 0.0105356 0
-0.000275044 0.00927246 0
-4.8639e-05 0.00658571 0
1.33015e-06 0.00261985 0
-0.000331794 0.00233009 0
-0.00163498 0.00722668 0
-0.00421523 0.0123561 0
-0.00805481 0.0176053 0
-0.0131135 0.0229004 0
-0.0193388 0.0282088 0
-0.0266765 0.0335324 0
-0.0350801 0.0388893 0
-0.0445148 0.0442887 0
-0.054955 0.0497027 0
-0.0663749 0.0550408 0
-0.0719442 0.0601336 0
-0.0783845 0.06471 0
-0.0924568 0.0691452 0
-0.107337 0.0729093 0
-0.122884 0.0755559 0
-0.138866 0.0766891 0
-0.154985 0.0759542 0
-0.170887 0.0730487 0
-0.186185 0.0677463 0
-0.200475 0.0599219 0
-0.213349 0.0495684 0
-0.224409 0.0368039 0
-0.230815 0.0218667 0
-0.234671 0.00512684 0
-0.238093 -0.0118229 0
-0.238302 -0.0294903 0
-0.235058 -0.0469606 0
-0.22821 -0.0633799 0
-0.217711 -0.0778545 0
-0.203655 -0.0895074 0
-0.186325 -0.0975429 0
-0.166232 -0.101332 0
-0.144138 -0.100507 0
-0.12104 -0.0950431 0
-0.108345 -0.0853051 0
-0.0970448 -0.0721098 0
-0.0774128 -0.0608192 0
-0.0598652 -0.0492403 0
-0.0448226 -0.0375334 0
-0.0324254 -0.0262979 0
-0.0225816 -0.0161045 0
-0.0150511 -0.0073831 0
-0.00951445 -0.000410334 0
-0.00562369 0.0046694 0
-0.00303704 0.0078162 0
-0.00143959 0.0090683 0
-0.000553886 0.00852056 0
-0.000144002 0.00630809 0
-1.55816e-05 0.00259387 0
-0.000380469 0.00364898 0
-0.00186636 0.0108499 0
-0.00479101 0.017999 0
-0.00911703 0.0249749 0
-0.0147826 0.0317158 0
-0.0217136 0.0382193 0
-0.0298367 0.0445299 0
-0.0390893 0.0507124 0
-0.0494243 0.0568172 0
-0.0608078 0.0628444 0
-0.073209 0.0687138 0
-0.07925 0.0742494 0
-0.0862045 0.0791643 0
-0.101369 0.0839412 0
-0.117348 0.0879452 0
-0.133981 0.0906595 0
-0.15103 0.0916412 0
-0.168191 0.090505 0
-0.185116 0.0869322 0
-0.201425 0.0806923 0
-0.216726 0.0716654 0
-0.230631 0.0598562 0
-0.242774 0.0453971 0
-0.249633 0.0285399 0
-0.254095 0.0096763 0
-0.258921 -0.0097444 0
-0.260531 -0.0300931 0
-0.258704 -0.0504359 0
-0.253241 -0.0699031 0
-0.244 -0.0875552 0
-0.230932 -0.102426 0
-0.21415 -0.113576 0
-0.193985 -0.120173 0
-0.171046 -0.121599 0
-0.146236 -0.117563 0
-0.132814 -0.108182 0
-0.120044 -0.094106 0
-0.096735 -0.0818116 0
-0.0755927 -0.0684249 0
-0.0572479 -0.0544 0
-0.0419407 -0.0406112 0
-0.029628 -0.0278404 0
-0.0200781 -0.01667 0
-0.0129483 -0.00747745 0
-0.00784696 -0.000465398 0
-0.00437805 0.0043 0
-0.00217012 0.00685238 0
-0.000891928 0.00729571 0
-0.000259222 0.00578247 0
-3.58742e-05 0.00249804 0
-0.000425276 0.00519266 0
-0.00207906 0.0150627 0
-0.00531948 0.0245241 0
-0.0100902 0.0334503 0
-0.0163085 0.0417992 0
-0.0238795 0.0496093 0
-0.0327108 0.0569791 0
-0.0427241 0.0640311 0
-0.0538603 0.0708666 0
-0.0660772 0.0775213 0
-0.0793397 0.0839312 0
-0.0857953 0.0899189 0
-0.0931956 0.0951869 0
-0.109297 0.100287 0
-0.126199 0.104492 0
-0.143725 0.107221 0
-0.161627 0.107989 0
-0.179597 0.106385 0
-0.197287 0.102078 0
-0.214325 0.0948361 0
-0.230334 0.0845522 0
-0.244956 0.0712512 0
-0.257866 0.0550931 0
-0.26499 0.036359 0
-0.269921 0.0154776 0
-0.276 -0.00648735 0
-0.278985 -0.0295198 0
-0.278707 -0.0527537 0
-0.27494 -0.0753394 0
-0.267457 -0.0963396 0
-0.256066 -0.114745 0
-0.240679 -0.129507 0
-0.221389 -0.139607 0
-0.198561 -0.144162 0
-0.172888 -0.142558 0
-0.159339 -0.134576 0
-0.14534 -0.120552 0
-0.118356 -0.107464 0
-0.0935122 -0.0921858 0
-0.0716352 -0.0755805 0
-0.0531067 -0.0588362 0
-0.0379858 -0.0429917 0
-0.0260913 -0.0288316 0
-0.0170833 -0.0168771 0
-0.0105383 -0.00741977 0
-0.00600807 -0.000571279 0
-0.00306091 0.00368779 0
-0.00130505 0.00546756 0
-0.000400222 0.00493887 0
-6.07194e-05 0.00231237 0
-0.000463174 0.00694915 0
-0.0022591 0.0198337 0
-0.00576713 0.0318836 0
-0.010915 0.0429706 0
-0.017602 0.0530789 0
-0.0257145 0.0622972 0
-0.0351428 0.070789 0
-0.0457935 0.0787454 0
-0.0575955 0.0863282 0
-0.0704979 0.0936159 0
-0.0844602 0.100567 0
-0.0912556 0.107007 0
-0.0990096 0.112632 0
-0.115831 0.11802 0
-0.133417 0.122366 0
-0.151569 0.125036 0
-0.170027 0.125508 0
-0.188477 0.123347 0
-0.206568 0.118213 0
-0.223934 0.109885 0
-0.240219 0.098275 0
-0.255104 0.0834446 0
-0.268324 0.0655993 0
-0.275468 0.0450694 0
-0.280651 0.0223333 0
-0.28765 -0.00213922 0
-0.291824 -0.0277201 0
-0.293077 -0.0537027 0
-0.291182 -0.0792954 0
-0.285856 -0.103621 0
-0.276778 -0.125688 0
-0.263655 -0.144401 0
-0.246313 -0.158602 0
-0.224798 -0.167164 0
-0.199483 -0.169132 0
-0.186605 -0.163889 0
-0.171875 -0.151308 0
-0.141715 -0.137798 0
-0.113419 -0.120782 0
-0.0879975 -0.101529 0
-0.0660495 -0.0815405 0
-0.0478224 -0.0621618 0
-0.0332554 -0.0444468 0
-0.0220588 -0.0291238 0
-0.0138034 -0.0166235 0
-0.00799979 -0.00713553 0
-0.00415653 -0.000673239 0
-0.00181649 0.00287167 0
-0.00057602 0.00368678 0
-9.19641e-05 0.00200977 0
-0.000491022 0.0088906 0
-0.00239212 0.0250919 0
-0.0060997 0.0399745 0
-0.011531 0.0534097 0
-0.0185721 0.0654128 0
-0.0270952 0.0761294 0
-0.0369754 0.0857967 0
-0.0481052 0.0946835 0
-0.0604014 0.10302 0
-0.0738029 0.110936 0
-0.0882618 0.118416 0
-0.0953048 0.125294 0
-0.103296 0.131263 0
-0.120563 0.136879 0
-0.138526 0.141283 0
-0.156966 0.143794 0
-0.175605 0.143856 0
-0.19412 0.141018 0
-0.212157 0.134937 0
-0.229359 0.12541 0
-0.245399 0.112388 0
-0.260004 0.0959875 0
-0.272985 0.0764791 0
-0.279877 0.05426 0
-0.28504 0.0298637 0
-0.292487 0.00306192 0
-0.297519 -0.0247906 0
-0.300117 -0.0532096 0
-0.300087 -0.0814985 0
-0.297125 -0.108897 0
-0.290822 -0.134503 0
-0.280711 -0.157253 0
-0.266353 -0.17593 0
-0.247453 -0.189229 0
-0.223986 -0.195888 0
-0.212663 -0.19487 0