# vtk DataFile Version 2.0
Presion
ASCII

DATASET STRUCTURED_GRID
DIMENSIONS   50   50   20

POINTS   50000   double
0.00568455   0.00568455   0.025
0.0174023   0.00568455   0.025
0.0298294   0.00568455   0.025
0.0429888   0.00568455   0.025
0.0569012   0.00568455   0.025
0.0715849   0.00568455   0.025
0.0870549   0.00568455   0.025
0.103323   0.00568455   0.025
0.120395   0.00568455   0.025
0.138275   0.00568455   0.025
0.156961   0.00568455   0.025
0.176443   0.00568455   0.025
0.196707   0.00568455   0.025
0.217734   0.00568455   0.025
0.239496   0.00568455   0.025
0.261959   0.00568455   0.025
0.285082   0.00568455   0.025
0.308818   0.00568455   0.025
0.333113   0.00568455   0.025
0.357906   0.00568455   0.025
0.383132   0.00568455   0.025
0.408719   0.00568455   0.025
0.434592   0.00568455   0.025
0.460672   0.00568455   0.025
0.486877   0.00568455   0.025
0.513123   0.00568455   0.025
0.539328   0.00568455   0.025
0.565408   0.00568455   0.025
0.591281   0.00568455   0.025
0.616868   0.00568455   0.025
0.642094   0.00568455   0.025
0.666887   0.00568455   0.025
0.691182   0.00568455   0.025
0.714918   0.00568455   0.025
0.738041   0.00568455   0.025
0.760504   0.00568455   0.025
0.782266   0.00568455   0.025
0.803293   0.00568455   0.025
0.823557   0.00568455   0.025
0.843039   0.00568455   0.025
0.861725   0.00568455   0.025
0.879605   0.00568455   0.025
0.896677   0.00568455   0.025
0.912945   0.00568455   0.025
0.928415   0.00568455   0.025
0.943099   0.00568455   0.025
0.957011   0.00568455   0.025
0.970171   0.00568455   0.025
0.982598   0.00568455   0.025
0.994315   0.00568455   0.025
0.00568455   0.0174023   0.025
0.0174023   0.0174023   0.025
0.0298294   0.0174023   0.025
0.0429888   0.0174023   0.025
0.0569012   0.0174023   0.025
0.0715849   0.0174023   0.025
0.0870549   0.0174023   0.025
0.103323   0.0174023   0.025
0.120395   0.0174023   0.025
0.138275   0.0174023   0.025
0.156961   0.0174023   0.025
0.176443   0.0174023   0.025
0.196707   0.0174023   0.025
0.217734   0.0174023   0.025
0.239496   0.0174023   0.025
0.261959   0.0174023   0.025
0.285082   0.0174023   0.025
0.308818   0.0174023   0.025
0.333113   0.0174023   0.025
0.357906   0.0174023   0.025
0.383132   0.0174023   0.025
0.408719   0.0174023   0.025
0.434592   0.0174023   0.025
0.460672   0.0174023   0.025
0.486877   0.0174023   0.025
0.513123   0.0174023   0.025
0.539328   0.0174023   0.025
0.565408   0.0174023   0.025
0.591281   0.0174023   0.025
0.616868   0.0174023   0.025
0.642094   0.0174023   0.025
0.666887   0.0174023   0.025
0.691182   0.0174023   0.025
0.714918   0.0174023   0.025
0.738041   0.0174023   0.025
0.760504   0.0174023   0.025
0.782266   0.0174023   0.025
0.803293   0.0174023   0.025
0.823557   0.0174023   0.025
0.843039   0.0174023   0.025
0.861725   0.0174023   0.025
0.879605   0.0174023   0.025
0.896677   0.0174023   0.025
0.912945   0.0174023   0.025
0.928415   0.0174023   0.025
0.943099   0.0174023   0.025
0.957011   0.0174023   0.025
0.970171   0.0174023   0.025
0.982598   0.0174023   0.025
0.994315   0.0174023   0.025
0.00568455   0.0298294   0.025
0.0174023   0.0298294   0.025
0.0298294   0.0298294   0.025
0.0429888   0.0298294   0.025
0.0569012   0.0298294   0.025
0.0715849   0.0298294   0.025
0.0870549   0.0298294   0.025
0.103323   0.0298294   0.025
0.120395   0.0298294   0.025
0.138275   0.0298294   0.025
0.156961   0.0298294   0.025
0.176443   0.0298294   0.025
0.196707   0.0298294   0.025
0.217734   0.0298294   0.025
0.239496   0.0298294   0.025
0.261959   0.0298294   0.025
0.285082   0.0298294   0.025
0.308818   0.0298294   0.025
0.333113   0.0298294   0.025
0.357906   0.0298294   0.025
0.383132   0.0298294   0.025
0.408719   0.0298294   0.025
0.434592   0.0298294   0.025
0.460672   0.0298294   0.025
0.486877   0.0298294   0.025
0.513123   0.0298294   0.025
0.539328   0.0298294   0.025
0.565408   0.0298294   0.025
0.591281   0.0298294   0.025
0.616868   0.0298294   0.025
0.642094   0.0298294   0.025
0.666887   0.0298294   0.025
0.691182   0.0298294   0.025
0.714918   0.0298294   0.025
0.738041   0.0298294   0.025
0.760504   0.0298294   0.025
0.782266   0.0298294   0.025
0.803293   0.0298294   0.025
0.823557   0.0298294   0.025
0.843039   0.0298294   0.025
0.861725   0.0298294   0.025
0.879605   0.0298294   0.025
0.896677   0.0298294   0.025
0.912945   0.0298294   0.025
0.928415   0.0298294   0.025
0.943099   0.0298294   0.025
0.957011   0.0298294   0.025
0.970171   0.0298294   0.025
0.982598   0.0298294   0.025
0.994315   0.0298294   0.025
0.00568455   0.0429888   0.025
0.0174023   0.0429888   0.025
0.0298294   0.0429888   0.025
0.0429888   0.0429888   0.025
0.0569012   0.0429888   0.025
0.0715849   0.0429888   0.025
0.0870549   0.0429888   0.025
0.103323   0.0429888   0.025
0.120395   0.0429888   0.025
0.138275   0.0429888   0.025
0.156961   0.0429888   0.025
0.176443   0.0429888   0.025
0.196707   0.0429888   0.025
0.217734   0.0429888   0.025
0.239496   0.0429888   0.025
0.261959   0.0429888   0.025
0.285082   0.0429888   0.025
0.308818   0.0429888   0.025
0.333113   0.0429888   0.025
0.357906   0.0429888   0.025
0.383132   0.0429888   0.025
0.408719   0.0429888   0.025
0.434592   0.0429888   0.025
0.460672   0.0429888   0.025
0.486877   0.0429888   0.025
0.513123   0.0429888   0.025
0.539328   0.0429888   0.025
0.565408   0.0429888   0.025
0.591281   0.0429888   0.025
0.616868   0.0429888   0.025
0.642094   0.0429888   0.025
0.666887   0.0429888   0.025
0.691182   0.0429888   0.025
0.714918   0.0429888   0.025
0.738041   0.0429888   0.025
0.760504   0.0429888   0.025
0.782266   0.0429888   0.025
0.803293   0.0429888   0.025
0.823557   0.0429888   0.025
0.843039   0.0429888   0.025
0.861725   0.0429888   0.025
0.879605   0.0429888   0.025
0.896677   0.0429888   0.025
0.912945   0.0429888   0.025
0.928415   0.0429888   0.025
0.943099   0.0429888   0.025
0.957011   0.0429888   0.025
0.970171   0.0429888   0.025
0.982598   0.0429888   0.025
0.994315   0.0429888   0.025
0.00568455   0.0569012   0.025
0.0174023   0.0569012   0.025
0.0298294   0.0569012   0.025
0.0429888   0.0569012   0.025
0.0569012   0.0569012   0.025
0.0715849   0.0569012   0.025
0.0870549   0.0569012   0.025
0.103323   0.0569012   0.025
0.120395   0.0569012   0.025
0.138275   0.0569012   0.025
0.156961   0.0569012   0.025
0.176443   0.0569012   0.025
0.196707   0.0569012   0.025
0.217734   0.0569012   0.025
0.239496   0.0569012   0.025
0.261959   0.0569012   0.025
0.285082   0.0569012   0.025
0.308818   0.0569012   0.025
0.333113   0.0569012   0.025
0.357906   0.0569012   0.025
0.383132   0.0569012   0.025
0.408719   0.0569012   0.025
0.434592   0.0569012   0.025
0.460672   0.0569012   0.025
0.486877   0.0569012   0.025
0.513123   0.0569012   0.025
0.539328   0.0569012   0.025
0.565408   0.0569012   0.025
0.591281   0.0569012   0.025
0.616868   0.0569012   0.025
0.642094   0.0569012   0.025
0.666887   0.0569012   0.025
0.691182   0.0569012   0.025
0.714918   0.0569012   0.025
0.738041   0.0569012   0.025
0.760504   0.0569012   0.025
0.782266   0.0569012   0.025
0.803293   0.0569012   0.025
0.823557   0.0569012   0.025
0.843039   0.0569012   0.025
0.861725   0.0569012   0.025
0.879605   0.0569012   0.025
0.896677   0.0569012   0.025
0.912945   0.0569012   0.025
0.928415   0.0569012   0.025
0.943099   0.0569012   0.025
0.957011   0.0569012   0.025
0.970171   0.0569012   0.025
0.982598   0.0569012   0.025
0.994315   0.0569012   0.025
0.00568455   0.0715849   0.025
0.0174023   0.0715849   0.025
0.0298294   0.0715849   0.025
0.0429888   0.0715849   0.025
0.0569012   0.0715849   0.025
0.0715849   0.0715849   0.025
0.0870549   0.0715849   0.025
0.103323   0.0715849   0.025
0.120395   0.0715849   0.025
0.138275   0.0715849   0.025
0.156961   0.0715849   0.025
0.176443   0.0715849   0.025
0.196707   0.0715849   0.025
0.217734   0.0715849   0.025
0.239496   0.0715849   0.025
0.261959   0.0715849   0.025
0.285082   0.0715849   0.025
0.308818   0.0715849   0.025
0.333113   0.0715849   0.025
0.357906   0.0715849   0.025
0.383132   0.0715849   0.025
0.408719   0.0715849   0.025
0.434592   0.0715849   0.025
0.460672   0.0715849   0.025
0.486877   0.0715849   0.025
0.513123   0.0715849   0.025
0.539328   0.0715849   0.025
0.565408   0.0715849   0.025
0.591281   0.0715849   0.025
0.616868   0.0715849   0.025
0.642094   0.0715849   0.025
0.666887   0.0715849   0.025
0.691182   0.0715849   0.025
0.714918   0.0715849   0.025
0.738041   0.0715849   0.025
0.760504   0.0715849   0.025
0.782266   0.0715849   0.025
0.803293   0.0715849   0.025
0.823557   0.0715849   0.025
0.843039   0.0715849   0.025
0.861725   0.0715849   0.025
0.879605   0.0715849   0.025
0.896677   0.0715849   0.025
0.912945   0.0715849   0.025
0.928415   0.0715849   0.025
0.943099   0.0715849   0.025
0.957011   0.0715849   0.025
0.970171   0.0715849   0.025
0.982598   0.0715849   0.025
0.994315   0.0715849   0.025
0.00568455   0.0870549   0.025
0.0174023   0.0870549   0.025
0.0298294   0.0870549   0.025
0.0429888   0.0870549   0.025
0.0569012   0.0870549   0.025
0.0715849   0.0870549   0.025
0.0870549   0.0870549   0.025
0.103323   0.0870549   0.025
0.120395   0.0870549   0.025
0.138275   0.0870549   0.025
0.156961   0.0870549   0.025
0.176443   0.0870549   0.025
0.196707   0.0870549   0.025
0.217734   0.0870549   0.025
0.239496   0.0870549   0.025
0.261959   0.0870549   0.025
0.285082   0.0870549   0.025
0.308818   0.0870549   0.025
0.333113   0.0870549   0.025
0.357906   0.0870549   0.025
0.383132   0.0870549   0.025
0.408719   0.0870549   0.025
0.434592   0.0870549   0.025
0.460672   0.0870549   0.025
0.486877   0.0870549   0.025
0.513123   0.0870549   0.025
0.539328   0.0870549   0.025
0.565408   0.0870549   0.025
0.591281   0.0870549   0.025
0.616868   0.0870549   0.025
0.642094   0.0870549   0.025
0.666887   0.0870549   0.025
0.691182   0.0870549   0.025
0.714918   0.0870549   0.025
0.738041   0.0870549   0.025
0.760504   0.0870549   0.025
0.782266   0.0870549   0.025
[...]
POINT_DATA   50000
SCALARS Presion double
LOOKUP_TABLE   Presion

0 0 0 0 0 0 0 0 0 0 0 0 0 0 0 0 0 0 0 0 0 0 0 0 0 0 0 0 0 0 0 0 0 0 0 0 0 0 0 0 0 0 0 0 0 0 0 0 0 0 0.000932493 0.0010108 0.00110163 0.00116222 0.00118621 0.00117592 0.00113536 0.00106837 0.000978077 0.000866523 0.000734496 0.000581002 0.000289993 0.000143372 2.41875e-05 -6.86094e-05 -0.00013435 -0.00017011 -0.000171721 -0.000135203 -5.82927e-05 5.82092e-05 0.000209658 0.000387443 0.00058027 0.000759161 0.000906935 0.00100474 0.00103752 0.000995597 0.000876081 0.000683517 0.000429746 0.000132992 -0.000183696 -0.000493757 -0.000695524 -0.000986295 -0.00125987 -0.00150128 -0.00170097 -0.00185348 -0.00195598 -0.00200716 -0.00200656 -0.00195417 -0.00185055 -0.00169901 -0.00151582 -0.00137245 0.00123901 0.00122842 0.0012486 0.00126723 0.00126909 0.00124874 0.00120534 0.00113992 0.00105414 0.000949704 0.000828522 0.000691636 0.000350834 0.00022175 0.00011087 2.10512e-05 -4.52198e-05 -8.44225e-05 -9.23732e-05 -6.52949e-05 -1.12513e-06 9.92573e-05 0.000231207 0.000385029 0.000559165 0.000715475 0.000841791 0.000920339 0.000937041 0.000883025 0.000755897 0.000560314 0.000307696 1.50525e-05 -0.000297083 -0.000605402 -0.000751845 -0.00104117 -0.00130707 -0.0015391 -0.00173025 -0.00187667 -0.00197683 -0.00203094 -0.00204074 -0.00200983 -0.00194512 -0.0018604 -0.00178384 -0.0017691 0.00145834 0.00142361 0.00140682 0.00139414 0.00137461 0.00134175 0.00129257 0.00122627 0.00114327 0.00104478 0.000933086 0.000808755 0.000411441 0.000297291 0.000194253 0.000106787 3.86287e-05 -6.08565e-06 -2.29443e-05 -8.07507e-06 4.07354e-05 0.000122899 0.000234079 0.00036373 0.000521705 0.000659823 0.000769644 0.000834216 0.000839796 0.000777513 0.000644781 0.000445932 0.000191857 -0.000101376 -0.000414894 -0.000726292 -0.000812575 -0.00110476 -0.00136781 -0.00159461 -0.00178074 -0.00192424 -0.00202512 -0.00208514 -0.00210779 -0.0020988 -0.00206722 -0.00202706 -0.00199854 -0.00200567 0.00164834 0.00160472 0.00156805 0.00153395 0.0014967 0.00145152 0.0013953 0.00132647 0.00124465 0.00115057 0.00104634 0.000931085 0.000472616 0.000369749 0.000272517 0.000185562 0.000113219 6.01057e-05 3.09937e-05 3.01368e-05 6.0288e-05 0.0001216 0.000210532 0.000316221 0.000459257 0.000583633 0.000682113 0.000738395 0.000738454 0.000672646 0.000537456 0.000336353 7.94824e-05 -0.000217841 -0.000537658 -0.000856973 -0.000880656 -0.00117968 -0.00144412 -0.00166956 -0.00185407 -0.00199763 -0.00210175 -0.00216939 -0.00220498 -0.00221466 -0.00220661 -0.00219108 -0.00217924 -0.00217983 0.00183427 0.00178213 0.0017316 0.0016818 0.00163022 0.00157393 0.00151048 0.00143815 0.00135614 0.00126469 0.00116549 0.00105577 0.000533046 0.000437164 0.000342308 0.000252617 0.000172515 0.000106914 6.10256e-05 3.97615e-05 4.68384e-05 8.3683e-05 0.000148199 0.000229891 0.000358503 0.000473141 0.000565421 0.000619563 0.000620664 0.000557504 0.000424811 0.000224493 -3.44685e-05 -0.000337518 -0.000667103 -0.000998554 -0.00095927 -0.0012687 -0.00153806 -0.00176552 -0.00195154 -0.00209784 -0.0022072 -0.00228329 -0.00233074 -0.00235504 -0.00236243 -0.00235944 -0.00235169 -0.00234218 0.00202488 0.00196105 0.00189745 0.00183425 0.00177043 0.00170423 0.00163376 0.00155735 0.00147389 0.00138312 0.00128616 0.00117809 0.000589191 0.000495303 0.000398016 0.000300729 0.000207627 0.000123761 5.48442e-05 6.72329e-06 -1.54642e-05 -8.40298e-06 2.80358e-05 8.45158e-05 0.000199575 0.000307309 0.000398215 0.000456896 0.000466971 0.000414777 0.000292286 9.88881e-05 -0.000158328 -0.000465884 -0.000806458 -0.00115292 -0.00105249 -0.0013749 -0.00165166 -0.00188381 -0.00207403 -0.00222552 -0.00234186 -0.00242704 -0.00248535 -0.00252127 -0.00253926 -0.00254334 -0.00253648 -0.00252005 0.00222025 0.00214118 0.00206329 0.00198703 0.00191184 0.00183644 0.00175913 0.00167812 0.00159191 0.00149963 0.00140168 0.00129087 0.000634766 0.000536949 0.000430899 0.000319245 0.000205764 9.55429e-05 -5.125e-06 -8.91753e-05 -0.000149557 -0.000180378 -0.000178382 -0.000150845 -4.65527e-05 5.48969e-05 0.000148435 0.000218861 0.000247686 0.000217824 0.000117244 -5.85172e-05 -0.000305439 -0.000611903 -0.000961068 -0.0013229 -0.00116607 -0.00150195 -0.00178688 -0.00202536 -0.00222202 -0.00238103 -0.00250627 -0.00260158 -0.00267067 -0.00271706 -0.0027439 -0.00275383 -0.00274879 -0.00272994 0.00241482 0.00231732 0.00222339 0.00213345 0.00204695 0.00196256 0.00187833 0.00179202 0.00170148 0.00160508 0.00150231 0.00138361 0.000659958 0.000551012 0.000428035 0.000292912 0.000148925 1.14808e-06 -0.000143451 -0.000276292 -0.000387884 -0.000468997 -0.000512244 -0.00052175 -0.000421615 -0.000329506 -0.000230964 -0.000141269 -8.16507e-05 -7.37294e-05 -0.000135107 -0.000275931 -0.000497046 -0.000790129 -0.00113965 -0.00151269 -0.00130866 -0.00165466 -0.00194585 -0.0021908 -0.00239562 -0.00256457 -0.00270116 -0.00280856 -0.00288972 -0.00294732 -0.00298366 -0.0030007 -0.00300008 -0.00298315 0.00259826 0.00247968 0.00236796 0.00226342 0.00216527 0.00207167 0.00198005 0.00188735 0.00179046 0.0016867 0.0015744 0.0014416 0.00065044 0.000521459 0.000371112 0.000200513 1.23693e-05 -0.00018829 -0.000393722 -0.000593517 -0.000775184 -0.000925332 -0.00103134 -0.00109282 -0.0009846 -0.00091049 -0.000807489 -0.000691289 -0.000586402 -0.000520174 -0.000517679 -0.000597178 -0.000766971 -0.00102434 -0.00135674 -0.00172914 -0.0014939 -0.00184013 -0.00213147 -0.00238093 -0.00259488 -0.00277639 -0.00292753 -0.00305018 -0.00314624 -0.00321752 -0.00326578 -0.00329263 -0.00329969 -0.0032886 0.00275551 0.00261372 0.00248275 0.00236273 0.00225237 0.00214905 0.00204916 0.00194844 0.00184248 0.00172719 0.0015995 0.00144491 0.000586286 0.000426158 0.000235137 1.34183e-05 -0.00023701 -0.000511234 -0.000800646 -0.00109269 -0.00137129 -0.00161798 -0.00181374 -0.00195186 -0.00181699 -0.00177744 -0.0016753 -0.00152688 -0.00136023 -0.00120954 -0.00110948 -0.00108943 -0.00116865 -0.00135346 -0.00163709 -0.0019845 -0.00174393 -0.00206999 -0.00234899 -0.00259776 -0.00282063 -0.00301738 -0.00318709 -0.0033294 -0.00344463 -0.00353362 -0.00359754 -0.00363782 -0.00365613 -0.00365439 0.00286645 0.0026999 0.0025486 0.00241242 0.00228928 0.00217545 0.00206594 0.00195489 0.0018362 0.00170404 0.00155352 0.00136757 0.000440916 0.00023577 -1.27588e-05 -0.000305726 -0.000642131 -0.00101733 -0.00142179 -0.0018405 -0.00225312 -0.00263517 -0.00295998 -0.0032121 -0.00302769 -0.00304944 -0.00296061 -0.0027778 -0.0025323 -0.00226585 -0.00202478 -0.00185291 -0.00178479 -0.00184046 -0.00202317 -0.00230217 -0.00209519 -0.00236453 -0.00260922 -0.00284701 -0.00307625 -0.00329028 -0.00348302 -0.00365044 -0.00379045 -0.00390247 -0.00398692 -0.00404497 -0.00407833 -0.00408921 0.00290558 0.00271341 0.00254126 0.00238848 0.002252 0.00212664 0.0020056 0.00188108 0.00174486 0.00158896 0.00140624 0.00117696 0.0001803 -8.70325e-05 -0.000414114 -0.000803796 -0.0012565 -0.00176809 -0.00232812 -0.00291875 -0.00351466 -0.00408416 -0.00459167 -0.00500984 -0.0047554 -0.00487683 -0.00482326 -0.0046102 -0.00427098 -0.00385477 -0.00342087 -0.00303065 -0.00273861 -0.00258426 -0.00258679 -0.00272726 -0.00260707 -0.00275973 -0.00293414 -0.00314234 -0.00337075 -0.00360194 -0.0038216 -0.00401997 -0.00419127 -0.00433268 -0.00444347 -0.00452432 -0.00457691 -0.00460366 0.00284212 0.00262434 0.0024314 0.00226194 0.00211159 0.00197333 0.00183822 0.00169607 0.00153616 0.00134786 0.0011213 0.000833888 -0.000237213 -0.000587615 -0.00101903 -0.00153688 -0.0021436 -0.00283588 -0.00360233 -0.0044218 -0.00526302 -0.00608575 -0.00684393 -0.00749439 -0.00716456 -0.00743509 -0.0074496 -0.00721972 -0.00677846 -0.00618091 -0.00549913 -0.00481379 -0.00420338 -0.00373297 -0.0034449 -0.0033438 -0.00337297 -0.00331759 -0.00336544 -0.00351176 -0.00372332 -0.00396636 -0.0042143 -0.00444866 -0.00465793 -0.00483577 -0.00497951 -0.00508892 -0.00516546 -0.00521168 0.00264061 0.00239826 0.00218531 0.00199947 0.0018347 0.00168182 0.00152934 0.00136429 0.00117297 0.00094165 0.000657108 0.000293624 -0.000859978 -0.00131816 -0.00188458 -0.00256815 -0.00337399 -0.00429994 -0.00533345 -0.00644933 -0.00760896 -0.00876179 -0.00984933 -0.0108081 -0.0104299 -0.0109059 -0.0110312 -0.0108093 -0.0102695 -0.00946948 -0.00849145 -0.0074346 -0.00640321 -0.00549278 -0.00477637 -0.00429836 -0.00453058 -0.00413786 -0.00397461 -0.00400526 -0.00416869 -0.00440847 -0.00468035 -0.00495294 -0.00520587 -0.00542723 -0.00561109 -0.00575563 -0.00586166 -0.00593175 0.00226232 0.00199767 0.00176633 0.0015648 0.00138506 0.00121543 0.00104148 0.000847057 0.000615076 0.000328133 -3.09958e-05 -0.000491576 -0.00174048 -0.00233458 -0.003071 -0.00396314 -0.00501936 -0.00623874 -0.00760704 -0.0090937 -0.0106509 -0.0122152 -0.0137132 -0.0150568 -0.0147056 -0.0154423 -0.0157263 -0.0155483 -0.0149298 -0.0139259 -0.0126242 -0.0111376 -0.00959439 -0.00812193 -0.00683017 -0.00582236 -0.0062626 -0.00536537 -0.00487079 -0.00470143 -0.00476224 -0.00496762 -0.0052491 -0.00555655 -0.00585621 -0.00612735 -0.00635877 -0.00654577 -0.00668793 -0.00678753 0.0016677 0.00138441 0.00113721 0.000921126 0.000725885 0.000536955 0.000336685 0.000105371 -0.000177911 -0.000534757 -0.000987078 -0.00156827 -0.00293067 -0.00369114 -0.00463536 -0.00578201 -0.00714302 -0.00871828 -0.0104906 -0.0124222 -0.0144531 -0.0165041 -0.0184838 -0.0202756 -0.0200793 -0.02112 -0.0216076 -0.0215166 -0.0208567 -0.0196752 -0.0180577 -0.0161235 -0.0140174 -0.0118956 -0.00990724 -0.00823248 -0.00877625 -0.00718366 -0.00620093 -0.00571049 -0.00558344 -0.00570051 -0.00596202 -0.00629176 -0.00663634 -0.0069615 -0.00724757 -0.00748507 -0.00767125 -0.00780764 0.000819838 0.000523026 0.000263471 3.44647e-05 -0.000176748 -0.000387773 -0.000619754 -0.000896232 -0.00124233 -0.00168433 -0.00224946 -0.00297595 -0.00447513 -0.00543274 -0.00662265 -0.0080692 -0.00978759 -0.0117774 -0.0140166 -0.0164569 -0.0190231 -0.0216168 -0.024125 -0.0264019 -0.0265235 -0.0278893 -0.0286123 -0.0286506 -0.0279997 -0.0266955 -0.0248144 -0.0224721 -0.0198195 -0.0170325 -0.0142965 -0.0118787 -0.0122557 -0.00978783 -0.00813764 -0.00717104 -0.0067367 -0.00668306 -0.00687419 -0.00720015 -0.00758006 -0.00795972 -0.00830635 -0.00860271 -0.00884204 -0.00902425 -0.000311244 -0.000615036 -0.000882488 -0.00112222 -0.00134965 -0.00158557 -0.00185478 -0.00218483 -0.00260531 -0.00314754 -0.00384452 -0.00474003 -0.00640256 -0.00758562 -0.00905541 -0.0108417 -0.0129619 -0.0154132 -0.0181657 -0.0211575 -0.0242942 -0.0274549 -0.0305027 -0.0332648 -0.0338631 -0.0355473 -0.0365166 -0.0367157 -0.0361276 -0.0347757 -0.0327228 -0.0300724 -0.0269693 -0.023596 -0.0201647 -0.017024 -0.0168007 -0.0133403 -0.0108543 -0.009239 -0.00834807 -0.00801037 -0.00805513 -0.00833298 -0.00872727 -0.00915579 -0.00956632 -0.00992952 -0.010232 -0.0104707 -0.00174388 -0.00204689 -0.00231688 -0.00256454 -0.00280796 -0.00307119 -0.00338265 -0.00377397 -0.00427927 -0.00493504 -0.00578028 -0.00686484 -0.00871703 -0.0101481 -0.0119239 -0.0140786 -0.0166298 -0.0195698 -0.0228574 -0.026413 -0.0301203 -0.0338335 -0.0373918 -0.0406007 -0.0417828 -0.0437531 -0.0449554 -0.0453278 -0.0448466 -0.0435253 -0.0414132 -0.0385967 -0.0352041 -0.0314107 -0.0274394 -0.0236931 -0.0223831 -0.0179238 -0.0144902 -0.0120665 -0.0105548 -0.00979272 -0.00958743 -0.0097505 -0.0101229 -0.0105855 -0.0110588 -0.0114952 -0.011871 -0.012178 -0.00348041 -0.00377399 -0.00404044 -0.00429253 -0.00455102 -0.00484303 -0.00520053 -0.00565904 -0.00625709 -0.00703623 -0.00804126 -0.00932819 -0.011391 -0.0130836 -0.0151792 -0.0177147 -0.0207056 -0.0241359 -0.0279497 -0.0320471 -0.0362877 -0.0405012 -0.0445046 -0.0480908 -0.0498799 -0.0520861 -0.0534871 -0.0540239 -0.0536733 -0.0524456 -0.0503802 -0.0475467 -0.0440518 -0.0400507 -0.0357577 -0.0315837 -0.0288413 -0.0235076 -0.0191108 -0.0157695 -0.0134841 -0.0121438 -0.0115608 -0.0115186 -0.0118141 -0.0122839 -0.0128118 -0.0133247 -0.0137831 -0.0141707 -0.00550396 -0.00577911 -0.00603545 -0.0062878 -0.00655939 -0.00688023 -0.00728548 -0.00781426 -0.00850914 -0.00941627 -0.0105857 -0.012079 -0.0143624 -0.0163181 -0.018732 -0.0216413 -0.0250568 -0.0289514 -0.033252 -0.0378368 -0.0425415 -0.0471736 -0.051533 -0.0554086 -0.0577446 -0.0601285 -0.0616815 -0.0623551 -0.0621352 -0.0610357 -0.0590923 -0.0563621 -0.0529306 -0.048925 -0.0445318 -0.040118 -0.0359062 -0.0299313 -0.0246696 -0.0203871 -0.017221 -0.0151591 -0.014059 -0.0137007 -0.0138449 -0.0142802 -0.0148452 -0.0154327 -0.0159808 -0.0164608 -0.00777737 -0.00802535 -0.00826485 -0.00851261 -0.00879411 -0.00914187 -0.00959384 -0.0101922 -0.010983 -0.0120162 -0.0133461 -0.0150389 -0.0175365 -0.019744 -0.0224579 -0.0257139 -0.0295157 -0.0338236 -0.038546 -0.0435396 -0.0486184 -0.0535723 -0.0581899 -0.062264 -0.0650328 -0.0675375 -0.0691925 -0.0699655 -0.0698565 -0.0688889 -0.0671009 -0.0645438 -0.0612859 -0.057425 -0.053107 -0.0486154 -0.0432364 -0.0369112 -0.0309853 -0.0258438 -0.0217695 -0.0188846 -0.0171382 -0.0163436 -0.0162462 -0.0165902 -0.0171641 -0.0178175 -0.0184587 -0.0190413 -0.0102446 -0.0104576 -0.0106738 -0.0109116 -0.0111985 -0.011569 -0.0120634 -0.0127263 -0.0136063 -0.0147565 -0.0162341 -0.0181081 -0.0207942 -0.0232285 -0.0262082 -0.0297658 -0.0338968 -0.038548 -0.0436105 -0.0489216 -0.0542777 -0.0594559 -0.0642398 -0.0684312 -0.0715054 -0.0740814 -0.0757936 -0.0766272 -0.0765986 -0.075743 -0.074106 -0.0717391 -0.0687002 -0.065062 -0.060927 -0.0564814 -0.0504555 -0.0440694 -0.0377469 -0.0319304 -0.0270202 -0.0232842 -0.0207999 -0.0194585 -0.0190222 -0.0192064 -0.0197499 -0.020453 -0.0211857 -0.0218783 -0.012835 -0.0130066 -0.0131936 -0.0134159 -0.0137023 -0.0140891 -0.0146182 -0.015336 -0.0162929 -0.0175437 -0.0191475 -0.021174 -0.0240028 -0.026627 -0.0298252 -0.0336255 -0.0380154 -0.0429294 -0.0482435 -0.0537797 -0.0593214 -0.0646381 -0.0695126 -0.0737576 -0.0770283 -0.0796369 -0.0813717 -0.0822334 -0.0822527 -0.0814773 -0.079962 -0.0777632 -0.0749355 -0.0715351 -0.0676283 -0.0633158 -0.0571938 -0.0509884 -0.0445534 -0.0383164 -0.0327401 -0.028216 -0.0249665 -0.0229994 -0.0221348 -0.0220861 -0.0225518 -0.0232805 -0.0240978 -0.0249042 -0.0154692 -0.0155953 -0.0157483 -0.0159494 -0.0162286 -0.0166231 -0.0171759 -0.0179345 -0.0189504 -0.020279 -0.0219799 -0.0241216 -0.0270295 -0.0297971 -0.0331566 -0.0371323 -0.0417044 -0.0467979 -0.0522775 -0.0579543 -0.0636035 -0.068991 -0.0739012 -0.0781571 -0.0815485 -0.084163 -0.0858979 -0.0867646 -0.0868045 -0.0860757 -0.0846428 -0.0825694 -0.0799133 -0.0767241 -0.0730452 -0.0689191 -0.0631342 -0.0572764 -0.0509797 -0.0445987 -0.0385935 -0.0334315 -0.0294674 -0.0268479 -0.0254903 -0.0251411 -0.0254783 -0.0262031 -0.0270928 -0.0280124 -0.0180671 -0.0181457 -0.0182614 -0.0184362 -0.0187006 -0.0190925 -0.0196554 -0.020437 -0.0214891 -0.0228672 -0.0246301 -0.0268436 -0.029753 -0.0326108 -0.0360689 -0.0401488 -0.0448261 -0.0500195 -0.0555868 -0.061333 -0.0670291 -0.0724397 -0.0773518 -0.0815955 -0.0850635 -0.087669 -0.0893929 -0.0902515 -0.0902928 -0.0895823 -0.0881932 -0.0861981 -0.0836621 -0.080637 -0.0771584 -0.0732407 -0.0680467 -0.0626227 -0.0566463 -0.0503685 -0.0441921 -0.038602 -0.0340467 -0.0308094 -0.0289322 -0.0282319 -0.0283931 -0.0290819 -0.0300279 -0.0310564 -0.0205549 -0.0205865 -0.0206632 -0.0208074 -0.0210496 -0.0214275 -0.0219844 -0.0227682 -0.0238301 -0.0252249 -0.0270104 -0.0292482 -0.0320731 -0.0349636 -0.0384556 -0.0425692 -0.0472785 -0.0524998 -0.0580886 -0.0638477 -0.0695473 -0.0749521 -0.0798502 -0.084075 -0.0875982 -0.0901899 -0.0919009 -0.0927472 -0.0927789 -0.0920663 -0.0906897 -0.0887307 -0.0862644 -0.0833511 -0.0800309 -0.0763156 -0.0718019 -0.0668254 -0.0612681 -0.055274 -0.0491566 -0.043365 -0.0383901 -0.0346256 -0.0322461 -0.0311688 -0.0311162 -0.0317383 -0.0327223 -0.0338524 -0.0228714 -0.0228588 -0.0228969 -0.0230073 -0.0232201 -0.0235721 -0.024106 -0.0248687 -0.025911 -0.0272866 -0.0290522 -0.0312647 -0.0339155 -0.0367801 -0.040242 -0.0443224 -0.048997 -0.0541837 -0.0597397 -0.0654695 -0.0711443 -0.0765291 -0.081411 -0.0856222 -0.0891911 -0.0917725 -0.0934755 -0.0943119 -0.0943303 -0.0936032 -0.0922164 -0.0902602 -0.0878205 -0.0849697 -0.0817603 -0.0782185 -0.0743612 -0.0697904 -0.0646723 -0.05906 -0.0531685 -0.0473761 -0.0421658 -0.0380003 -0.0351741 -0.033721 -0.0334308 -0.0339599 -0.0349639 -0.0361871 -0.0249721 -0.0249205 -0.0249219 -0.0249969 -0.0251741 -0.0254885 -0.0259814 -0.0266986 -0.0276898 -0.0290082 -0.0307094 -0.0328463 -0.0352345 -0.0380149 -0.0413857 -0.0453716 -0.0499527 -0.0550522 -0.0605327 -0.0662027 -0.0718359 -0.0771973 -0.0820707 -0.086282 -0.0898899 -0.092471 -0.0941759 -0.0950094 -0.0950163 -0.094269 -0.0928575 -0.0908797 -0.088432 -0.0856002 -0.0824523 -0.079038 -0.0757556 -0.0715116 -0.06679 -0.0615774 -0.0559998 -0.0503496 -0.0450646 -0.0406319 -0.0374375 -0.0356323 -0.0350944 -0.0355106 -0.0365187 -0.0378269 -0.0268312 -0.0267475 -0.0267161 -0.0267558 -0.0268922 -0.027158 -0.027592 -0.0282382 -0.0291456 -0.030367 -0.0319582 -0.0339693 -0.0360111 -0.0386511 -0.0418743 -0.045711 -0.0501487 -0.0551185 -0.0604907 -0.0660802 -0.0716639 -0.0770057 -0.081884 -0.0861145 -0.0897519 -0.0923475 -0.0940677 -0.0949091 -0.0949105 -0.0941428 -0.0926986 -0.0906821 -0.0881991 -0.0853481 -0.0822126 -0.0788679 -0.076063 -0.0720448 -0.0676332 -0.0627724 -0.0575182 -0.0520797 -0.0468292 -0.0422417 -0.0387596 -0.0366374 -0.035852 -0.036141 -0.03714 -0.0385273 -0.0284412 -0.0283339 -0.0282753 -0.028281 -0.0283732 -0.0285802 -0.0289374 -0.0294869 -0.0302767 -0.0313604 -0.0327953 -0.0346312 -0.0362498 -0.0386965 -0.0417214 -0.0453624 -0.0496158 -0.054423 -0.0596637 -0.06516 -0.0706922 -0.0760229 -0.0809232 -0.0851953 -0.0888463 -0.091475 -0.0932271 -0.0940901 -0.0940958 -0.0933119 -0.091832 -0.0897652 -0.0872252 -0.0843206 -0.0811487 -0.077808 -0.0753899 -0.071486 -0.0672697 -0.0626634 -0.0576742 -0.0524414 -0.0472681 -0.0425933 -0.0388844 -0.036477 -0.0354465 -0.0355967 -0.0365759 -0.0380394 -0.0298106 -0.0296894 -0.0296105 -0.0295855 -0.0296309 -0.0297698 -0.0300328 -0.0304592 -0.0310968 -0.0320011 -0.0332335 -0.0348461 -0.0359742 -0.0381791 -0.0409619 -0.0443692 -0.0484077 -0.0530295 -0.0581243 -0.0635218 -0.0690058 -0.0743368 -0.0792778 -0.0836161 -0.0872559 -0.0899393 -0.0917428 -0.0926443 -0.0926676 -0.0918758 -0.0903618 -0.0882377 -0.0856227 -0.082633 -0.0793757 -0.0759676 -0.0738607 -0.0699537 -0.065801 -0.0613174 -0.0564805 -0.0513785 -0.0462532 -0.0414992 -0.0375855 -0.0349056 -0.0336252 -0.0336226 -0.0345717 -0.0361115 -0.030961 -0.0308368 -0.030746 -0.0306946 -0.0306918 -0.0307535 -0.0309044 -0.0311806 -0.0316303 -0.0323131 -0.0332972 -0.0346407 -0.0352214 -0.0371417 -0.0396468 -0.0427928 -0.0465964 -0.0510204 -0.055964 -0.0612642 -0.0667078 -0.0720528 -0.0770541 -0.0814838 -0.0850777 -0.0878401 -0.0897174 -0.0906775 -0.0907353 -0.0899479 -0.0884058 -0.0862213 -0.0835167 -0.0804122 -0.0770201 -0.0734688 -0.0716093 -0.0675783 -0.0633456 -0.0588276 -0.0539882 -0.0488829 -0.0437072 -0.0388149 -0.0346659 -0.0316931 -0.03014 -0.0299619 -0.0308679 -0.0324866 -0.0319236 -0.0318086 -0.0317157 -0.031643 -0.0315908 -0.0315656 -0.031585 -0.0316821 -0.0319068 -0.0323255 -0.0330168 -0.0340489 -0.0340375 -0.0356379 -0.0378394 -0.0407074 -0.044268 -0.0484929 -0.0532895 -0.058501 -0.0639164 -0.0692913 -0.0743725 -0.0789188 -0.0824225 -0.0852896 -0.0872655 -0.0883071 -0.0884199 -0.0876535 -0.0860934 -0.0838497 -0.0810439 -0.0777967 -0.0742205 -0.0704464 -0.0687736 -0.0644933 -0.0600267 -0.0552968 -0.0502654 -0.0449723 -0.0395845 -0.0344266 -0.0299502 -0.0266188 -0.0247421 -0.0243498 -0.0251931 -0.0268942 -0.0327363 -0.032645 -0.032561 -0.0324728 -0.0323689 -0.0322448 -0.0321101 -0.0319958 -0.0319563 -0.0320682 -0.0324248 -0.0331082 -0.0324736 -0.033728 -0.0356111 -0.0381967 -0.0415184 -0.0455543 -0.0502178 -0.0553562 -0.0607605 -0.0661834 -0.0713641 -0.0760511 -0.079412 -0.0824097 -0.0845102 -0.0856587 -0.08585 -0.0851243 -0.0835601 -0.0812619 -0.0783469 -0.0749312 -0.0711223 -0.0670437 -0.0654892 -0.0608287 -0.0559633 -0.0508247 -0.0453811 -0.039671 -0.0338509 -0.0282329 -0.0232712 -0.0194609 -0.017172 -0.