# vtk DataFile Version 2.0
Presion
ASCII

DATASET STRUCTURED_GRID
DIMENSIONS   50   50   20

POINTS   50000   double
0.00568455   0.00568455   0.025
0.0174023   0.00568455   0.025
0.0298294   0.00568455   0.025
0.0429888   0.00568455   0.025
0.0569012   0.00568455   0.025
0.0715849   0.00568455   0.025
0.0870549   0.00568455   0.025
0.103323   0.00568455   0.025
0.120395   0.00568455   0.025
0.138275   0.00568455   0.025
0.156961   0.00568455   0.025
0.176443   0.00568455   0.025
0.196707   0.00568455   0.025
0.217734   0.00568455   0.025
0.239496   0.00568455   0.025
0.261959   0.00568455   0.025
0.285082   0.00568455   0.025
0.308818   0.00568455   0.025
0.333113   0.00568455   0.025
0.357906   0.00568455   0.025
0.383132   0.00568455   0.025
0.408719   0.00568455   0.025
0.434592   0.00568455   0.025
0.460672   0.00568455   0.025
0.486877   0.00568455   0.025
0.513123   0.00568455   0.025
0.539328   0.00568455   0.025
0.565408   0.00568455   0.025
0.591281   0.00568455   0.025
0.616868   0.00568455   0.025
0.642094   0.00568455   0.025
0.666887   0.00568455   0.025
0.691182   0.00568455   0.025
0.714918   0.00568455   0.025
0.738041   0.00568455   0.025
0.760504   0.00568455   0.025
0.782266   0.00568455   0.025
0.803293   0.00568455   0.025
0.823557   0.00568455   0.025
0.843039   0.00568455   0.025
0.861725   0.00568455   0.025
0.879605   0.00568455   0.025
0.896677   0.00568455   0.025
0.912945   0.00568455   0.025
0.928415   0.00568455   0.025
0.943099   0.00568455   0.025
0.957011   0.00568455   0.025
0.970171   0.00568455   0.025
0.982598   0.00568455   0.025
0.994315   0.00568455   0.025
0.00568455   0.0174023   0.025
0.0174023   0.0174023   0.025
0.0298294   0.0174023   0.025
0.0429888   0.0174023   0.025
0.0569012   0.0174023   0.025
0.0715849   0.0174023   0.025
0.0870549   0.0174023   0.025
0.103323   0.0174023   0.025
0.120395   0.0174023   0.025
0.138275   0.0174023   0.025
0.156961   0.0174023   0.025
0.176443   0.0174023   0.025
0.196707   0.0174023   0.025
0.217734   0.0174023   0.025
0.239496   0.0174023   0.025
0.261959   0.0174023   0.025
0.285082   0.0174023   0.025
0.308818   0.0174023   0.025
0.333113   0.0174023   0.025
0.357906   0.0174023   0.025
0.383132   0.0174023   0.025
0.408719   0.0174023   0.025
0.434592   0.0174023   0.025
0.460672   0.0174023   0.025
0.486877   0.0174023   0.025
0.513123   0.0174023   0.025
0.539328   0.0174023   0.025
0.565408   0.0174023   0.025
0.591281   0.0174023   0.025
0.616868   0.0174023   0.025
0.642094   0.0174023   0.025
0.666887   0.0174023   0.025
0.691182   0.0174023   0.025
0.714918   0.0174023   0.025
0.738041   0.0174023   0.025
0.760504   0.0174023   0.025
0.782266   0.0174023   0.025
0.803293   0.0174023   0.025
0.823557   0.0174023   0.025
0.843039   0.0174023   0.025
0.861725   0.0174023   0.025
0.879605   0.0174023   0.025
0.896677   0.0174023   0.025
0.912945   0.0174023   0.025
0.928415   0.0174023   0.025
0.943099   0.0174023   0.025
0.957011   0.0174023   0.025
0.970171   0.0174023   0.025
0.982598   0.0174023   0.025
0.994315   0.0174023   0.025
0.00568455   0.0298294   0.025
0.0174023   0.0298294   0.025
0.0298294   0.0298294   0.025
0.0429888   0.0298294   0.025
0.0569012   0.0298294   0.025
0.0715849   0.0298294   0.025
0.0870549   0.0298294   0.025
0.103323   0.0298294   0.025
0.120395   0.0298294   0.025
0.138275   0.0298294   0.025
0.156961   0.0298294   0.025
0.176443   0.0298294   0.025
0.196707   0.0298294   0.025
0.217734   0.0298294   0.025
0.239496   0.0298294   0.025
0.261959   0.0298294   0.025
0.285082   0.0298294   0.025
0.308818   0.0298294   0.025
0.333113   0.0298294   0.025
0.357906   0.0298294   0.025
0.383132   0.0298294   0.025
0.408719   0.0298294   0.025
0.434592   0.0298294   0.025
0.460672   0.0298294   0.025
0.486877   0.0298294   0.025
0.513123   0.0298294   0.025
0.539328   0.0298294   0.025
0.565408   0.0298294   0.025
0.591281   0.0298294   0.025
0.616868   0.0298294   0.025
0.642094   0.0298294   0.025
0.666887   0.0298294   0.025
0.691182   0.0298294   0.025
0.714918   0.0298294   0.025
0.738041   0.0298294   0.025
0.760504   0.0298294   0.025
0.782266   0.0298294   0.025
0.803293   0.0298294   0.025
0.823557   0.0298294   0.025
0.843039   0.0298294   0.025
0.861725   0.0298294   0.025
0.879605   0.0298294   0.025
0.896677   0.0298294   0.025
0.912945   0.0298294   0.025
0.928415   0.0298294   0.025
0.943099   0.0298294   0.025
0.957011   0.0298294   0.025
0.970171   0.0298294   0.025
0.982598   0.0298294   0.025
0.994315   0.0298294   0.025
0.00568455   0.0429888   0.025
0.0174023   0.0429888   0.025
0.0298294   0.0429888   0.025
0.0429888   0.0429888   0.025
0.0569012   0.0429888   0.025
0.0715849   0.0429888   0.025
0.0870549   0.0429888   0.025
0.103323   0.0429888   0.025
0.120395   0.0429888   0.025
0.138275   0.0429888   0.025
0.156961   0.0429888   0.025
0.176443   0.0429888   0.025
0.196707   0.0429888   0.025
0.217734   0.0429888   0.025
0.239496   0.0429888   0.025
0.261959   0.0429888   0.025
0.285082   0.0429888   0.025
0.308818   0.0429888   0.025
0.333113   0.0429888   0.025
0.357906   0.0429888   0.025
0.383132   0.0429888   0.025
0.408719   0.0429888   0.025
0.434592   0.0429888   0.025
0.460672   0.0429888   0.025
0.486877   0.0429888   0.025
0.513123   0.0429888   0.025
0.539328   0.0429888   0.025
0.565408   0.0429888   0.025
0.591281   0.0429888   0.025
0.616868   0.0429888   0.025
0.642094   0.0429888   0.025
0.666887   0.0429888   0.025
0.691182   0.0429888   0.025
0.714918   0.0429888   0.025
0.738041   0.0429888   0.025
0.760504   0.0429888   0.025
0.782266   0.0429888   0.025
0.803293   0.0429888   0.025
0.823557   0.0429888   0.025
0.843039   0.0429888   0.025
0.861725   0.0429888   0.025
0.879605   0.0429888   0.025
0.896677   0.0429888   0.025
0.912945   0.0429888   0.025
0.928415   0.0429888   0.025
0.943099   0.0429888   0.025
0.957011   0.0429888   0.025
0.970171   0.0429888   0.025
0.982598   0.0429888   0.025
0.994315   0.0429888   0.025
0.00568455   0.0569012   0.025
0.0174023   0.0569012   0.025
0.0298294   0.0569012   0.025
0.0429888   0.0569012   0.025
0.0569012   0.0569012   0.025
0.0715849   0.0569012   0.025
0.0870549   0.0569012   0.025
0.103323   0.0569012   0.025
0.120395   0.0569012   0.025
0.138275   0.0569012   0.025
0.156961   0.0569012   0.025
0.176443   0.0569012   0.025
0.196707   0.0569012   0.025
0.217734   0.0569012   0.025
0.239496   0.0569012   0.025
0.261959   0.0569012   0.025
0.285082   0.0569012   0.025
0.308818   0.0569012   0.025
0.333113   0.0569012   0.025
0.357906   0.0569012   0.025
0.383132   0.0569012   0.025
0.408719   0.0569012   0.025
0.434592   0.0569012   0.025
0.460672   0.0569012   0.025
0.486877   0.0569012   0.025
0.513123   0.0569012   0.025
0.539328   0.0569012   0.025
0.565408   0.0569012   0.025
0.591281   0.0569012   0.025
0.616868   0.0569012   0.025
0.642094   0.0569012   0.025
0.666887   0.0569012   0.025
0.691182   0.0569012   0.025
0.714918   0.0569012   0.025
0.738041   0.0569012   0.025
0.760504   0.0569012   0.025
0.782266   0.0569012   0.025
0.803293   0.0569012   0.025
0.823557   0.0569012   0.025
0.843039   0.0569012   0.025
0.861725   0.0569012   0.025
0.879605   0.0569012   0.025
0.896677   0.0569012   0.025
0.912945   0.0569012   0.025
0.928415   0.0569012   0.025
0.943099   0.0569012   0.025
0.957011   0.0569012   0.025
0.970171   0.0569012   0.025
0.982598   0.0569012   0.025
0.994315   0.0569012   0.025
0.00568455   0.0715849   0.025
0.0174023   0.0715849   0.025
0.0298294   0.0715849   0.025
0.0429888   0.0715849   0.025
0.0569012   0.0715849   0.025
0.0715849   0.0715849   0.025
0.0870549   0.0715849   0.025
0.103323   0.0715849   0.025
0.120395   0.0715849   0.025
0.138275   0.0715849   0.025
0.156961   0.0715849   0.025
0.176443   0.0715849   0.025
0.196707   0.0715849   0.025
0.217734   0.0715849   0.025
0.239496   0.0715849   0.025
0.261959   0.0715849   0.025
0.285082   0.0715849   0.025
0.308818   0.0715849   0.025
0.333113   0.0715849   0.025
0.357906   0.0715849   0.025
0.383132   0.0715849   0.025
0.408719   0.0715849   0.025
0.434592   0.0715849   0.025
0.460672   0.0715849   0.025
0.486877   0.0715849   0.025
0.513123   0.0715849   0.025
0.539328   0.0715849   0.025
0.565408   0.0715849   0.025
0.591281   0.0715849   0.025
0.616868   0.0715849   0.025
0.642094   0.0715849   0.025
0.666887   0.0715849   0.025
0.691182   0.0715849   0.025
0.714918   0.0715849   0.025
0.738041   0.0715849   0.025
0.760504   0.0715849   0.025
0.782266   0.0715849   0.025
0.803293   0.0715849   0.025
0.823557   0.0715849   0.025
0.843039   0.0715849   0.025
0.861725   0.0715849   0.025
0.879605   0.0715849   0.025
0.896677   0.0715849   0.025
0.912945   0.0715849   0.025
0.928415   0.0715849   0.025
0.943099   0.0715849   0.025
0.957011   0.0715849   0.025
0.970171   0.0715849   0.025
0.982598   0.0715849   0.025
0.994315   0.0715849   0.025
0.00568455   0.0870549   0.025
0.0174023   0.0870549   0.025
0.0298294   0.0870549   0.025
0.0429888   0.0870549   0.025
0.0569012   0.0870549   0.025
0.0715849   0.0870549   0.025
0.0870549   0.0870549   0.025
0.103323   0.0870549   0.025
0.120395   0.0870549   0.025
0.138275   0.0870549   0.025
0.156961   0.0870549   0.025
0.176443   0.0870549   0.025
0.196707   0.0870549   0.025
0.217734   0.0870549   0.025
0.239496   0.0870549   0.025
0.261959   0.0870549   0.025
0.285082   0.0870549   0.025
0.308818   0.0870549   0.025
0.333113   0.0870549   0.025
0.357906   0.0870549   0.025
0.383132   0.0870549   0.025
0.408719   0.0870549   0.025
0.434592   0.0870549   0.025
0.460672   0.0870549   0.025
0.486877   0.0870549   0.025
0.513123   0.0870549   0.025
0.539328   0.0870549   0.025
0.565408   0.0870549   0.025
0.591281   0.0870549   0.025
0.616868   0.0870549   0.025
0.642094   0.0870549   0.025
0.666887   0.0870549   0.025
0.691182   0.0870549   0.025
0.714918   0.0870549   0.025
0.738041   0.0870549   0.025
0.760504   0.0870549   0.025
0.782266   0.0870549   0.025
[...]
POINT_DATA   50000
SCALARS Presion double
LOOKUP_TABLE   Presion

0 0 0 0 0 0 0 0 0 0 0 0 0 0 0 0 0 0 0 0 0 0 0 0 0 0 0 0 0 0 0 0 0 0 0 0 0 0 0 0 0 0 0 0 0 0 0 0 0 0 0.00126855 0.00137837 0.00150923 0.00160152 0.00164531 0.00164253 0.0015975 0.00151465 0.00139778 0.00124975 0.00107226 0.000865265 0.00050154 0.000297351 0.000121152 -2.69047e-05 -0.000144344 -0.000225921 -0.000264986 -0.000255327 -0.000193107 -7.854e-05 8.31984e-05 0.000281948 0.000495581 0.000701313 0.000874709 0.000993375 0.00103935 0.00100103 0.000874648 0.000664989 0.000385187 5.56895e-05 -0.000297455 -0.000643953 -0.000867494 -0.00119099 -0.0014937 -0.00175941 -0.00197809 -0.00214415 -0.00225467 -0.00230827 -0.00230433 -0.00224258 -0.00212332 -0.00194995 -0.00174077 -0.00157773 0.00167388 0.00166268 0.00169657 0.00173046 0.0017426 0.00172452 0.00167408 0.00159196 0.00147997 0.00134031 0.00117575 0.000988384 0.000569718 0.000386962 0.000221489 7.78623e-05 -3.94265e-05 -0.000124514 -0.00017077 -0.000172221 -0.000125216 -2.99522e-05 0.000108575 0.000279152 0.000469941 0.000649244 0.000797797 0.000894469 0.000922399 0.000870799 0.000736394 0.000524036 0.000246335 -7.76681e-05 -0.000424842 -0.00076876 -0.000929403 -0.0012508 -0.00154442 -0.00179927 -0.00200818 -0.00216733 -0.00227527 -0.00233234 -0.00234044 -0.0023035 -0.00222916 -0.00213299 -0.00204711 -0.00203305 0.00195467 0.00191252 0.00189674 0.00188788 0.00187023 0.00183408 0.00177457 0.00168994 0.00158035 0.00144727 0.0012937 0.00112119 0.000639791 0.000475219 0.000319587 0.000179239 6.00226e-05 -3.15644e-05 -8.86725e-05 -0.000105201 -7.7242e-05 -4.50224e-06 0.000108587 0.000249853 0.000421311 0.000579229 0.00070896 0.000790276 0.000806559 0.000746848 0.000607476 0.000392784 0.000114702 -0.000208845 -0.00055666 -0.000903491 -0.000996602 -0.00132062 -0.00161035 -0.00185875 -0.00206165 -0.00221731 -0.00232606 -0.00238995 -0.00241291 -0.00240133 -0.00236537 -0.00232089 -0.00229095 -0.002303 0.00219177 0.00214034 0.0020992 0.00206197 0.00202027 0.0019669 0.00189696 0.00180775 0.00169843 0.00156976 0.00142449 0.0012625 0.000713212 0.000562153 0.000413444 0.000273592 0.000149045 4.67726e-05 -2.59952e-05 -6.26737e-05 -5.85967e-05 -1.24e-05 7.26591e-05 0.000184052 0.000337874 0.000479506 0.000596654 0.000669739 0.000681611 0.000620165 0.000480411 0.000265484 -1.36859e-05 -0.000340113 -0.000693699 -0.00104861 -0.00107266 -0.00140338 -0.0016936 -0.0019396 -0.00214007 -0.00229548 -0.00240777 -0.00248037 -0.00251825 -0.0025283 -0.00251969 -0.00250398 -0.00249384 -0.0024992 0.00242143 0.00236171 0.00230405 0.00224694 0.00218645 0.00211803 0.00203777 0.0019429 0.00183207 0.00170544 0.00156523 0.00140916 0.000788932 0.000645694 0.000499096 0.000355035 0.000219964 0.000101111 6.19948e-06 -5.73383e-05 -8.35253e-05 -6.92357e-05 -1.57373e-05 6.49647e-05 0.000201733 0.0003316 0.000442368 0.000514915 0.00053083 0.000475876 0.0003427 0.000132336 -0.000145862 -0.000475927 -0.000838312 -0.00120534 -0.00116154 -0.00150223 -0.00179631 -0.0020433 -0.0022446 -0.00240261 -0.0025206 -0.00260278 -0.0026543 -0.00268126 -0.00269065 -0.00268972 -0.00268478 -0.00267915 0.00265745 0.00258532 0.00251264 0.00243929 0.00236337 0.00228198 0.00219205 0.00209097 0.00197705 0.00184987 0.00171096 0.00155559 0.000863145 0.000720908 0.000569677 0.000414471 0.000261375 0.00011771 -8.19412e-06 -0.000107679 -0.00017285 -0.00019803 -0.000181514 -0.000133754 -1.32126e-05 0.000107916 0.000218092 0.000298438 0.000328554 0.000291021 0.000174897 -2.20994e-05 -0.000293143 -0.000623764 -0.00099482 -0.00137592 -0.00126834 -0.00162069 -0.00192056 -0.00217099 -0.00237585 -0.00253903 -0.0026646 -0.00275699 -0.0028209 -0.00286128 -0.00288299 -0.00289043 -0.00288687 -0.0028737 0.00290179 0.00281258 0.00272352 0.00263473 0.00254495 0.00245193 0.0023529 0.00224515 0.0021265 0.00199583 0.00185379 0.00169306 0.000928538 0.000779052 0.000614299 0.000438389 0.000256865 7.7061e-05 -9.19379e-05 -0.000239835 -0.000356161 -0.000431815 -0.00046101 -0.000451492 -0.000344168 -0.000231506 -0.00011715 -2.00561e-05 3.66479e-05 3.12023e-05 -5.24353e-05 -0.000221502 -0.000473196 -0.00079558 -0.0011703 -0.00156383 -0.00140025 -0.00176299 -0.00206834 -0.00232338 -0.00253396 -0.00270476 -0.00283997 -0.00294366 -0.0030198 -0.00307213 -0.00310402 -0.00311829 -0.00311696 -0.00310119 0.00314893 0.00303847 0.00293084 0.00282606 0.00272281 0.00261873 0.00251072 0.00239551 0.00227011 0.00213242 0.0019819 0.00180858 0.000973217 0.000806401 0.000616728 0.000407442 0.000183475 -4.78096e-05 -0.000276367 -0.000489812 -0.000674402 -0.000816665 -0.000905542 -0.000944759 -0.000843219 -0.000743159 -0.000621821 -0.000498707 -0.000400392 -0.000354258 -0.000383288 -0.000501872 -0.000713426 -0.00101035 -0.00137617 -0.00177444 -0.001568 -0.00193483 -0.00224195 -0.00250095 -0.00271877 -0.00289973 -0.00304722 -0.00316433 -0.00325403 -0.00331903 -0.00336168 -0.00338401 -0.00338767 -0.00337406 0.00338715 0.00325198 0.00312362 0.00300183 0.00288486 0.00276964 0.00265219 0.00252815 0.00239328 0.00224408 0.00207853 0.00188385 0.000979437 0.000782917 0.000553941 0.000294867 1.00005e-05 -0.000293198 -0.000603472 -0.000905857 -0.00118259 -0.00141483 -0.00158502 -0.00169129 -0.00158187 -0.00150496 -0.00137723 -0.00121927 -0.00106166 -0.000938744 -0.000882588 -0.000917532 -0.00105626 -0.00129831 -0.00163117 -0.00201667 -0.00178835 -0.0021448 -0.00244495 -0.00270473 -0.0029304 -0.00312419 -0.00328738 -0.00342132 -0.0035276 -0.00360789 -0.00366383 -0.00369706 -0.0037092 -0.00370196 0.00359858 0.00343604 0.00328517 0.00314537 0.00301412 0.00288719 0.00275921 0.00262417 0.00247609 0.00230964 0.00212088 0.00189417 0.000922289 0.000680899 0.000394676 6.49568e-05 -0.000304642 -0.000706477 -0.0011278 -0.00155053 -0.00195211 -0.00230727 -0.00259068 -0.00279294 -0.00265572 -0.00262102 -0.00249284 -0.00229307 -0.00205658 -0.00182579 -0.00164412 -0.00154915 -0.00156679 -0.00170767 -0.00196663 -0.00230668 -0.0020883 -0.00240731 -0.00268429 -0.00293782 -0.00317038 -0.00337952 -0.00356257 -0.003718 -0.00384542 -0.00394526 -0.00401848 -0.00406644 -0.00409083 -0.0040937 0.00375894 0.0035672 0.00339262 0.00323407 0.00308789 0.00294828 0.00280796 0.00265878 0.00249251 0.00230148 0.00207935 0.00180756 0.000768548 0.000463845 9.829e-05 -0.000328117 -0.000812588 -0.00134724 -0.00191753 -0.00250171 -0.00307152 -0.00359415 -0.00403526 -0.00437534 -0.00418771 -0.00422452 -0.00410934 -0.00386493 -0.00353 -0.00315564 -0.00279853 -0.0025129 -0.00234247 -0.00231419 -0.00243514 -0.00267505 -0.00251165 -0.00274758 -0.00297432 -0.00320851 -0.00344397 -0.00366987 -0.00387708 -0.00405952 -0.00421389 -0.00433884 -0.00443444 -0.00450171 -0.00454238 -0.00455877 0.00383725 0.0036155 0.00341673 0.00323903 0.00307726 0.00292362 0.00276839 0.00260081 0.00240987 0.00218506 0.00191707 0.00158437 0.000476033 8.59157e-05 -0.00038568 -0.000940587 -0.0015771 -0.00228705 -0.00305379 -0.00385122 -0.00464438 -0.00539162 -0.00604827 -0.00658146 -0.00632708 -0.00647521 -0.00639587 -0.00611095 -0.00566157 -0.00510693 -0.00451786 -0.0039679 -0.00352319 -0.00323301 -0.0031232 -0.00317934 -0.0031283 -0.00320975 -0.0033434 -0.00353525 -0.00376365 -0.00400458 -0.00423903 -0.00445404 -0.00464183 -0.0047984 -0.00492238 -0.0050142 -0.00507551 -0.00510884 0.00379609 0.00354469 0.00332207 0.00312527 0.00294727 0.0027778 0.00260426 0.00241277 0.00218905 0.0019192 0.00159033 0.00117781 -6.05591e-06 -0.000507487 -0.00111663 -0.0018378 -0.00267067 -0.00360679 -0.00462692 -0.00569975 -0.00678231 -0.00782258 -0.00876403 -0.00955643 -0.00923976 -0.00954734 -0.00953645 -0.00922488 -0.00865352 -0.00788746 -0.00701057 -0.00611654 -0.00529721 -0.00462997 -0.00416698 -0.00392321 -0.00404495 -0.00386748 -0.00384271 -0.00395324 -0.00415385 -0.00440146 -0.00466266 -0.0049143 -0.00514178 -0.0053369 -0.00549595 -0.00561825 -0.00570512 -0.0057592 0.00359264 0.00331332 0.00306813 0.00285273 0.00265785 0.0024703 0.00227416 0.00205197 0.00178567 0.00145743 0.00105014 0.000535807 -0.000735263 -0.0013774 -0.00215998 -0.00309051 -0.00417035 -0.00539052 -0.00672849 -0.00814647 -0.00959183 -0.0110001 -0.0123011 -0.0134228 -0.0130858 -0.0136036 -0.0137014 -0.0133883 -0.0127014 -0.0117074 -0.0104996 -0.00918948 -0.00789486 -0.00672512 -0.00576602 -0.00507943 -0.00541206 -0.00483402 -0.00455531 -0.00452144 -0.00465591 -0.00489015 -0.00517064 -0.00545929 -0.00573117 -0.00597149 -0.0061727 -0.00633213 -0.00645031 -0.00652981 0.00318072 0.00287679 0.00261134 0.00237835 0.00216592 0.00195758 0.00173369 0.00147278 0.00115259 0.000750777 0.000245379 -0.0003954 -0.00177189 -0.00258664 -0.00358167 -0.00476826 -0.00614946 -0.00771523 -0.00943858 -0.0112734 -0.0131551 -0.0150044 -0.0167349 -0.0182493 -0.0179823 -0.0187551 -0.0190036 -0.0187245 -0.0179463 -0.0167322 -0.0151782 -0.0134076 -0.0115602 -0.00977717 -0.00818289 -0.00690529 -0.00741763 -0.00626476 -0.005601 -0.00532746 -0.00533221 -0.00551522 -0.00579608 -0.00611549 -0.00643318 -0.00672415 -0.00697461 -0.00717851 -0.00733483 -0.00744573 0.0025142 0.00219062 0.00190832 0.00165927 0.00142866 0.00119645 0.000938969 0.000630415 0.000243914 -0.000247862 -0.000872346 -0.00166572 -0.00317254 -0.00419261 -0.00543982 -0.00692948 -0.00866595 -0.010637 -0.0128092 -0.0151258 -0.0175072 -0.0198568 -0.0220693 -0.0240199 -0.0239573 -0.0250138 -0.0254492 -0.0252451 -0.0244179 -0.0230214 -0.021147 -0.0189203 -0.0164943 -0.0140366 -0.0117107 -0.00972653 -0.0102577 -0.00834373 -0.00713191 -0.00648807 -0.00626836 -0.00633833 -0.00658415 -0.00691786 -0.00727716 -0.00762167 -0.00792787 -0.00818411 -0.0083866 -0.00853648 0.00155143 0.00121487 0.000920203 0.000657207 0.000407964 0.000148652 -0.000148591 -0.000514104 -0.00097966 -0.00157794 -0.00234231 -0.00331405 -0.00498154 -0.00623776 -0.00777411 -0.00960959 -0.0117488 -0.0141753 -0.0168469 -0.0196928 -0.0226158 -0.0254988 -0.0282161 -0.0306162 -0.0309093 -0.0322555 -0.0328998 -0.0328093 -0.0319872 -0.0304743 -0.0283502 -0.025733 -0.022777 -0.019665 -0.0165948 -0.0138634 -0.0140842 -0.0112509 -0.00931645 -0.00814351 -0.0075726 -0.00743935 -0.00759318 -0.0079103 -0.00829846 -0.00869512 -0.00906199 -0.00937852 -0.00963626 -0.00983438 0.000260672 -8.06825e-05 -0.000382161 -0.000656346 -0.000924339 -0.00121375 -0.00155667 -0.00198803 -0.00254459 -0.00326457 -0.0041875 -0.00536035 -0.00722108 -0.00873922 -0.0105946 -0.0128088 -0.0153848 -0.0182997 -0.021499 -0.0248949 -0.0283697 -0.0317844 -0.0349921 -0.0378196 -0.0385954 -0.0402126 -0.041068 -0.0411187 -0.0403566 -0.0388097 -0.0365419 -0.0336558 -0.0302948 -0.0266433 -0.0229211 -0.0194997 -0.0189509 -0.0151184 -0.0123124 -0.010444 -0.00937067 -0.00891523 -0.0088948 -0.0091457 -0.00953793 -0.00997863 -0.0104081 -0.0107921 -0.0111149 -0.0113719 -0.00137441 -0.00171116 -0.00201299 -0.0022949 -0.00258111 -0.00290288 -0.00329638 -0.00380099 -0.00445836 -0.00531212 -0.00640784 -0.0077985 -0.00988224 -0.0116796 -0.0138724 -0.0164831 -0.0195107 -0.0229225 -0.026649 -0.0305825 -0.0345832 -0.0384904 -0.0421378 -0.0453382 -0.0466599 -0.0485097 -0.0495583 -0.04976 -0.049101 -0.0476002 -0.0453068 -0.0423042 -0.0387158 -0.0347134 -0.0305215 -0.0265521 -0.0247844 -0.0199902 -0.0162325 -0.0135267 -0.011793 -0.0108741 -0.0105715 -0.0106846 -0.0110404 -0.0115074 -0.0119963 -0.0124532 -0.0128505 -0.0131781 -0.00335001 -0.00367205 -0.00396709 -0.00425249 -0.0045554 -0.00491047 -0.0053576 -0.00594027 -0.00670464 -0.00769933 -0.00897539 -0.0105916 -0.0129191 -0.0150016 -0.0175351 -0.0205409 -0.0240113 -0.0279014 -0.0321235 -0.0365492 -0.0410164 -0.0453447 -0.0493531 -0.0528498 -0.0547008 -0.0567332 -0.0579414 -0.0582844 -0.0577508 -0.0563562 -0.0541398 -0.0511671 -0.047538 -0.0434004 -0.0389628 -0.0346289 -0.0313925 -0.0257965 -0.0211076 -0.0174824 -0.0149515 -0.0134215 -0.0127088 -0.0125905 -0.0128513 -0.0133145 -0.0138525 -0.0143839 -0.0148641 -0.0152739 -0.00563926 -0.00593638 -0.00621711 -0.00650101 -0.00681786 -0.00720526 -0.00770639 -0.00836826 -0.00924093 -0.0103772 -0.0118328 -0.0136714 -0.0162482 -0.0186082 -0.0214688 -0.0248478 -0.0287286 -0.0330516 -0.0377107 -0.042556 -0.0474058 -0.0520641 -0.0563407 -0.060048 -0.0623455 -0.0645079 -0.0658336 -0.0662933 -0.0658843 -0.0646257 -0.0625529 -0.0597187 -0.0562011 -0.0521175 -0.0476434 -0.0431247 -0.0384927 -0.032346 -0.0268548 -0.022318 -0.018907 -0.0166369 -0.0153809 -0.0149208 -0.0150102 -0.0154252 -0.0159925 -0.0165948 -0.0171636 -0.0176666 -0.00819195 -0.00845461 -0.0087135 -0.00899021 -0.00931677 -0.00973322 -0.0102854 -0.0110232 -0.0119997 -0.013271 -0.0148959 -0.0169416 -0.0197538 -0.02237 -0.0255274 -0.0292386 -0.0334765 -0.0381665 -0.043184 -0.0483605 -0.0534977 -0.0583893 -0.0628417 -0.0666779 -0.0693074 -0.071551 -0.0729519 -0.0734955 -0.0731924 -0.0720695 -0.0701646 -0.0675243 -0.0642097 -0.0603084 -0.0559525 -0.0513985 -0.0457463 -0.0393379 -0.033263 -0.0279246 -0.0236339 -0.0205439 -0.0186281 -0.0177119 -0.0175402 -0.017849 -0.0184153 -0.0190781 -0.0197376 -0.0203427 -0.0109374 -0.0111574 -0.0113874 -0.0116508 -0.0119813 -0.012421 -0.0130177 -0.0138232 -0.014893 -0.016285 -0.01806 -0.0202866 -0.0232984 -0.0261366 -0.0295462 -0.0335333 -0.0380604 -0.0430386 -0.0483273 -0.0537422 -0.0590737 -0.0641095 -0.0686576 -0.0725546 -0.0754051 -0.0776894 -0.0791286 -0.0797233 -0.0794976 -0.0784888 -0.0767407 -0.0742999 -0.0712178 -0.0675575 -0.0634084 -0.0589315 -0.0527925 -0.0463958 -0.0400067 -0.0340675 -0.0289942 -0.0250805 -0.0224318 -0.0209596 -0.0204344 -0.0205695 -0.0210948 -0.0218003 -0.0225474 -0.0232609 -0.0137904 -0.0139615 -0.0141564 -0.0144 -0.0147274 -0.0151821 -0.0158131 -0.0166737 -0.0178201 -0.0193116 -0.0212093 -0.023581 -0.0267362 -0.029752 -0.0333583 -0.0375553 -0.042296 -0.0474797 -0.0529528 -0.0585201 -0.0639646 -0.0690721 -0.073655 -0.0775635 -0.0805495 -0.0828444 -0.0842946 -0.0849128 -0.0847349 -0.0838082 -0.0821844 -0.0799146 -0.0770473 -0.0736304 -0.0697197 -0.0653972 -0.0592884 -0.053122 -0.0466905 -0.0404074 -0.0347357 -0.030082 -0.0266931 -0.0246008 -0.0236414 -0.0235333 -0.0239708 -0.0246943 -0.0255211 -0.0263453 -0.0166589 -0.0167771 -0.0169321 -0.0171498 -0.0174661 -0.0179254 -0.0185773 -0.0194757 -0.0206773 -0.0222411 -0.0242274 -0.0267015 -0.029927 -0.0330681 -0.0368095 -0.041146 -0.0460237 -0.0513332 -0.0569124 -0.0625592 -0.068053 -0.0731803 -0.0777585 -0.0816488 -0.0847169 -0.0870031 -0.0884473 -0.0890696 -0.0889142 -0.0880367 -0.0864972 -0.0843535 -0.0816571 -0.0784509 -0.0747706 -0.0706478 -0.0649494 -0.0591572 -0.0529129 -0.0465507 -0.0405188 -0.0352869 -0.0312246 -0.028501 -0.0270536 -0.0266409 -0.0269424 -0.0276548 -0.0285482 -0.0294815 -0.0194526 -0.0195169 -0.0196288 -0.0198149 -0.0201117 -0.0205635 -0.0212204 -0.0221361 -0.0233669 -0.0249709 -0.0270071 -0.0295365 -0.0327475 -0.0359573 -0.0397693 -0.0441753 -0.0491172 -0.054481 -0.0601003 -0.0657699 -0.0712683 -0.0763838 -0.0809374 -0.0847975 -0.0879211 -0.0901897 -0.0916201 -0.0922355 -0.0920842 -0.0912282 -0.0897347 -0.0876699 -0.0850922 -0.0820476 -0.0785663 -0.0746581 -0.0695769 -0.0642256 -0.0583272 -0.0521126 -0.045967 -0.0403663 -0.0357626 -0.0324544 -0.0305037 -0.0297431 -0.0298651 -0.0305356 -0.0314794 -0.0325168 -0.0220916 -0.0221033 -0.0221709 -0.022321 -0.0225898 -0.0230214 -0.0236654 -0.0245751 -0.025806 -0.0274149 -0.0294589 -0.0319941 -0.0350992 -0.0383193 -0.0421381 -0.0465471 -0.0514873 -0.0568443 -0.062451 -0.0681027 -0.0735784 -0.0786675 -0.0831925 -0.0870244 -0.0901945 -0.0924451 -0.0938619 -0.0944664 -0.0943081 -0.0934528 -0.0919741 -0.0899463 -0.0874375 -0.0845022 -0.0811765 -0.0774709 -0.0730648 -0.0681545 -0.0626805 -0.0567717 -0.0507236 -0.0449702 -0.0399957 -0.0361994 -0.0337708 -0.0326439 -0.0325533 -0.0331533 -0.0341299 -0.0352637 -0.0245121 -0.0244753 -0.0244993 -0.0246102 -0.0248434 -0.0252418 -0.0258541 -0.0267327 -0.0279321 -0.0295079 -0.0315157 -0.0340064 -0.0369126 -0.0400847 -0.0438495 -0.0482003 -0.0530813 -0.0583808 -0.0639352 -0.0695418 -0.0749811 -0.0800426 -0.0845468 -0.0883628 -0.0915786 -0.093818 -0.0952268 -0.0958222 -0.0956519 -0.0947838 -0.0932964 -0.0912721 -0.0887891 -0.085914 -0.0826951 -0.0791587 -0.0753881 -0.0708688 -0.0658247 -0.0603003 -0.0544962 -0.048774 -0.0436038 -0.0394444 -0.0365974 -0.0351107 -0.0347878 -0.0352937 -0.0362862 -0.0375081 -0.0266708 -0.0265917 -0.0265749 -0.0266452 -0.0268361 -0.0271887 -0.0277501 -0.0285714 -0.0297062 -0.0312093 -0.0331354 -0.0355315 -0.0381479 -0.0412154 -0.044869 -0.049107 -0.0538795 -0.0590812 -0.064554 -0.0700992 -0.0754988 -0.0805403 -0.0850398 -0.0888589 -0.0921212 -0.0943616 -0.0957725 -0.0963646 -0.0961825 -0.0952939 -0.0937816 -0.0917351 -0.0892426 -0.0863832 -0.0832206 -0.0798042 -0.0765827 -0.0723713 -0.0677057 -0.0625695 -0.0570794 -0.0515136 -0.0462944 -0.0418983 -0.0387104 -0.03689 -0.0363281 -0.0367222 -0.0377159 -0.0390184 -0.0285457 -0.0284322 -0.0283791 -0.0284091 -0.0285527 -0.0288479 -0.0293395 -0.0300767 -0.0311126 -0.0325021 -0.0343002 -0.0365519 -0.0387927 -0.0417013 -0.0451915 -0.0492689 -0.053892 -0.0589644 -0.0643353 -0.0698109 -0.0751742 -0.0802095 -0.0847251 -0.0885713 -0.0918776 -0.0941355 -0.0955619 -0.0961604 -0.0959704 -0.0950588 -0.0935112 -0.0914231 -0.0888919 -0.0860084 -0.0828513 -0.0794945 -0.0767248 -0.0727191 -0.068341 -0.0635363 -0.0583567 -0.053001 -0.0478272 -0.0432962 -0.0398428 -0.0377232 -0.0369237 -0.0371937 -0.0381767 -0.0395545 -0.0301347 -0.0299961 -0.0299132 -0.0299049 -0.0299976 -0.0302251 -0.0306282 -0.0312545 -0.0321563 -0.03339 -0.0350133 -0.0370716 -0.0388576 -0.0415565 -0.0448366 -0.0487127 -0.0531538 -0.0580736 -0.0633299 -0.0687339 -0.0740693 -0.0791154 -0.0836708 -0.0875709 -0.0909128 -0.0932083 -0.094667 -0.0952844 -0.0950945 -0.0941617 -0.092573 -0.0904291 -0.0878348 -0.0848905 -0.0816878 -0.0783228 -0.0759163 -0.0720042 -0.0677975 -0.0632228 -0.0582869 -0.0531238 -0.0480249 -0.0434151 -0.0397494 -0.0373592 -0.0363246 -0.0364597 -0.0374223 -0.0388733 -0.031453 -0.0312999 -0.0311947 -0.0311519 -0.0311917 -0.0313419 -0.0316386 -0.0321265 -0.0328583 -0.0338933 -0.0352945 -0.0371112 -0.0383721 -0.0408144 -0.043844 -0.0474862 -0.0517211 -0.0564732 -0.0616091 -0.066945 -0.072264 -0.0773399 -0.08196 -0.0859425 -0.0893033 -0.0916596 -0.0931703 -0.093823 -0.0936447 -0.0926967 -0.0910659 -0.0888561 -0.0861777 -0.0831384 -0.0798387 -0.0763923 -0.0742747 -0.070339 -0.0661717 -0.0616934 -0.0568845 -0.0518316 -0.0467688 -0.0420779 -0.0382141 -0.0355616 -0.0342856 -0.034272 -0.0352046 -0.0367296 -0.0325286 -0.0323725 -0.0322542 -0.0321817 -0.0321676 -0.0322317 -0.0324037 -0.0327251 -0.0332498 -0.0340423 -0.0351743 -0.0367033 -0.0373786 -0.0395226 -0.0422688 -0.0456532 -0.0496672 -0.0542454 -0.0592623 -0.0645382 -0.0698555 -0.0749812 -0.0796908 -0.0837852 -0.087138 -0.0895809 -0.0911666 -0.0918741 -0.0917233 -0.0907705 -0.089101 -0.0868196 -0.0840395 -0.0808725 -0.0774242 -0.0738186 -0.0719271 -0.0678467 -0.0635755 -0.0590363 -0.0541981 -0.0491175 -0.0439861 -0.0391476 -0.0350481 -0.0321081 -0.030566 -0.0303806 -0.0312705 -0.0328726 -0.033399 -0.0332527 -0.0331314 -0.0330352 -0.0329665 -0.032935 -0.0329625 -0.0330876 -0.0333666 -0.0338723 -0.034689 -0.0358868 -0.0359278 -0.037739 -0.0401776 -0.0432907 -0.0470792 -0.0514864 -0.0563932 -0.0616227 -0.0669556 -0.0721521 -0.0769755 -0.0812106 -0.0845182 -0.0870748 -0.0887611 -0.0895465 -0.0894428 -0.0885002 -0.0868002 -0.0844457 -0.0815499 -0.0782249 -0.0745762 -0.0707304 -0.0690048 -0.0646539 -0.060125 -0.0553481 -0.0502909 -0.044997 -0.0396321 -0.0345139 -0.0300816 -0.0267844 -0.0249231 -0.0245272 -0.0253549 -0.0270377 -0.0341072 -0.0339852 -0.0338727 -0.0337591 -0.0336341 -0.0334952 -0.0333555 -0.0332511 -0.0332435 -0.0334178 -0.0338754 -0.0347037 -0.0340755 -0.0355281 -0.0376458 -0.0404851 -0.0440548 -0.0483039 -0.0531171 -0.058319 -0.0636878 -0.0689767 -0.0739373 -0.0783405 -0.0815555 -0.0842533 -0.0860672 -0.0869563 -0.0869228 -0.0860092 -0.084291 -0.0818664 -0.0788445 -0.0753335 -0.071434 -0.0672645 -0.0656377 -0.0608847 -0.0559332 -0.0507223 -0.0452266 -0.0394904 -0.0336712 -0.0280769 -0.0231508 -0.0193738 -0.0171035 -0.0164355 -0.0171706 -0.0189366 -0.03