# vtk DataFile Version 2.0
Velocidades
ASCII

DATASET STRUCTURED_GRID
DIMENSIONS   50   50   20

POINTS   50000   double
0.00568455   0.00568455   0.025
0.0174023   0.00568455   0.025
0.0298294   0.00568455   0.025
0.0429888   0.00568455   0.025
0.0569012   0.00568455   0.025
0.0715849   0.00568455   0.025
0.0870549   0.00568455   0.025
0.103323   0.00568455   0.025
0.120395   0.00568455   0.025
0.138275   0.00568455   0.025
0.156961   0.00568455   0.025
0.176443   0.00568455   0.025
0.196707   0.00568455   0.025
0.217734   0.00568455   0.025
0.239496   0.00568455   0.025
0.261959   0.00568455   0.025
0.285082   0.00568455   0.025
0.308818   0.00568455   0.025
0.333113   0.00568455   0.025
0.357906   0.00568455   0.025
0.383132   0.00568455   0.025
0.408719   0.00568455   0.025
0.434592   0.00568455   0.025
0.460672   0.00568455   0.025
0.486877   0.00568455   0.025
0.513123   0.00568455   0.025
0.539328   0.00568455   0.025
0.565408   0.00568455   0.025
0.591281   0.00568455   0.025
0.616868   0.00568455   0.025
0.642094   0.00568455   0.025
0.666887   0.00568455   0.025
0.691182   0.00568455   0.025
0.714918   0.00568455   0.025
0.738041   0.00568455   0.025
0.760504   0.00568455   0.025
0.782266   0.00568455   0.025
0.803293   0.00568455   0.025
0.823557   0.00568455   0.025
0.843039   0.00568455   0.025
0.861725   0.00568455   0.025
0.879605   0.00568455   0.025
0.896677   0.00568455   0.025
0.912945   0.00568455   0.025
0.928415   0.00568455   0.025
0.943099   0.00568455   0.025
0.957011   0.00568455   0.025
0.970171   0.00568455   0.025
0.982598   0.00568455   0.025
0.994315   0.00568455   0.025
0.00568455   0.0174023   0.025
0.0174023   0.0174023   0.025
0.0298294   0.0174023   0.025
0.0429888   0.0174023   0.025
0.0569012   0.0174023   0.025
0.0715849   0.0174023   0.025
0.0870549   0.0174023   0.025
0.103323   0.0174023   0.025
0.120395   0.0174023   0.025
0.138275   0.0174023   0.025
0.156961   0.0174023   0.025
0.176443   0.0174023   0.025
0.196707   0.0174023   0.025
0.217734   0.0174023   0.025
0.239496   0.0174023   0.025
0.261959   0.0174023   0.025
0.285082   0.0174023   0.025
0.308818   0.0174023   0.025
0.333113   0.0174023   0.025
0.357906   0.0174023   0.025
0.383132   0.0174023   0.025
0.408719   0.0174023   0.025
0.434592   0.0174023   0.025
0.460672   0.0174023   0.025
0.486877   0.0174023   0.025
0.513123   0.0174023   0.025
0.539328   0.0174023   0.025
0.565408   0.0174023   0.025
0.591281   0.0174023   0.025
0.616868   0.0174023   0.025
0.642094   0.0174023   0.025
0.666887   0.0174023   0.025
0.691182   0.0174023   0.025
0.714918   0.0174023   0.025
0.738041   0.0174023   0.025
0.760504   0.0174023   0.025
0.782266   0.0174023   0.025
0.803293   0.0174023   0.025
0.823557   0.0174023   0.025
0.843039   0.0174023   0.025
0.861725   0.0174023   0.025
0.879605   0.0174023   0.025
0.896677   0.0174023   0.025
0.912945   0.0174023   0.025
0.928415   0.0174023   0.025
0.943099   0.0174023   0.025
0.957011   0.0174023   0.025
0.970171   0.0174023   0.025
0.982598   0.0174023   0.025
0.994315   0.0174023   0.025
0.00568455   0.0298294   0.025
0.0174023   0.0298294   0.025
0.0298294   0.0298294   0.025
0.0429888   0.0298294   0.025
0.0569012   0.0298294   0.025
0.0715849   0.0298294   0.025
0.0870549   0.0298294   0.025
0.103323   0.0298294   0.025
0.120395   0.0298294   0.025
0.138275   0.0298294   0.025
0.156961   0.0298294   0.025
0.176443   0.0298294   0.025
0.196707   0.0298294   0.025
0.217734   0.0298294   0.025
0.239496   0.0298294   0.025
0.261959   0.0298294   0.025
0.285082   0.0298294   0.025
0.308818   0.0298294   0.025
0.333113   0.0298294   0.025
0.357906   0.0298294   0.025
0.383132   0.0298294   0.025
0.408719   0.0298294   0.025
0.434592   0.0298294   0.025
0.460672   0.0298294   0.025
0.486877   0.0298294   0.025
0.513123   0.0298294   0.025
0.539328   0.0298294   0.025
0.565408   0.0298294   0.025
0.591281   0.0298294   0.025
0.616868   0.0298294   0.025
0.642094   0.0298294   0.025
0.666887   0.0298294   0.025
0.691182   0.0298294   0.025
0.714918   0.0298294   0.025
0.738041   0.0298294   0.025
0.760504   0.0298294   0.025
0.782266   0.0298294   0.025
0.803293   0.0298294   0.025
0.823557   0.0298294   0.025
0.843039   0.0298294   0.025
0.861725   0.0298294   0.025
0.879605   0.0298294   0.025
0.896677   0.0298294   0.025
0.912945   0.0298294   0.025
0.928415   0.0298294   0.025
0.943099   0.0298294   0.025
0.957011   0.0298294   0.025
0.970171   0.0298294   0.025
0.982598   0.0298294   0.025
0.994315   0.0298294   0.025
0.00568455   0.0429888   0.025
0.0174023   0.0429888   0.025
0.0298294   0.0429888   0.025
0.0429888   0.0429888   0.025
0.0569012   0.0429888   0.025
0.0715849   0.0429888   0.025
0.0870549   0.0429888   0.025
0.103323   0.0429888   0.025
0.120395   0.0429888   0.025
0.138275   0.0429888   0.025
0.156961   0.0429888   0.025
0.176443   0.0429888   0.025
0.196707   0.0429888   0.025
0.217734   0.0429888   0.025
0.239496   0.0429888   0.025
0.261959   0.0429888   0.025
0.285082   0.0429888   0.025
0.308818   0.0429888   0.025
0.333113   0.0429888   0.025
0.357906   0.0429888   0.025
0.383132   0.0429888   0.025
0.408719   0.0429888   0.025
0.434592   0.0429888   0.025
0.460672   0.0429888   0.025
0.486877   0.0429888   0.025
0.513123   0.0429888   0.025
0.539328   0.0429888   0.025
0.565408   0.0429888   0.025
0.591281   0.0429888   0.025
0.616868   0.0429888   0.025
0.642094   0.0429888   0.025
0.666887   0.0429888   0.025
0.691182   0.0429888   0.025
0.714918   0.0429888   0.025
0.738041   0.0429888   0.025
0.760504   0.0429888   0.025
0.782266   0.0429888   0.025
0.803293   0.0429888   0.025
0.823557   0.0429888   0.025
0.843039   0.0429888   0.025
0.861725   0.0429888   0.025
0.879605   0.0429888   0.025
0.896677   0.0429888   0.025
0.912945   0.0429888   0.025
0.928415   0.0429888   0.025
0.943099   0.0429888   0.025
0.957011   0.0429888   0.025
0.970171   0.0429888   0.025
0.982598   0.0429888   0.025
0.994315   0.0429888   0.025
0.00568455   0.0569012   0.025
0.0174023   0.0569012   0.025
0.0298294   0.0569012   0.025
0.0429888   0.0569012   0.025
0.0569012   0.0569012   0.025
0.0715849   0.0569012   0.025
0.0870549   0.0569012   0.025
0.103323   0.0569012   0.025
0.120395   0.0569012   0.025
0.138275   0.0569012   0.025
0.156961   0.0569012   0.025
0.176443   0.0569012   0.025
0.196707   0.0569012   0.025
0.217734   0.0569012   0.025
0.239496   0.0569012   0.025
0.261959   0.0569012   0.025
0.285082   0.0569012   0.025
0.308818   0.0569012   0.025
0.333113   0.0569012   0.025
0.357906   0.0569012   0.025
0.383132   0.0569012   0.025
0.408719   0.0569012   0.025
0.434592   0.0569012   0.025
0.460672   0.0569012   0.025
0.486877   0.0569012   0.025
0.513123   0.0569012   0.025
0.539328   0.0569012   0.025
0.565408   0.0569012   0.025
0.591281   0.0569012   0.025
0.616868   0.0569012   0.025
0.642094   0.0569012   0.025
0.666887   0.0569012   0.025
0.691182   0.0569012   0.025
0.714918   0.0569012   0.025
0.738041   0.0569012   0.025
0.760504   0.0569012   0.025
0.782266   0.0569012   0.025
0.803293   0.0569012   0.025
0.823557   0.0569012   0.025
0.843039   0.0569012   0.025
0.861725   0.0569012   0.025
0.879605   0.0569012   0.025
0.896677   0.0569012   0.025
0.912945   0.0569012   0.025
0.928415   0.0569012   0.025
0.943099   0.0569012   0.025
0.957011   0.0569012   0.025
0.970171   0.0569012   0.025
0.982598   0.0569012   0.025
0.994315   0.0569012   0.025
0.00568455   0.0715849   0.025
0.0174023   0.0715849   0.025
0.0298294   0.0715849   0.025
0.0429888   0.0715849   0.025
0.0569012   0.0715849   0.025
0.0715849   0.0715849   0.025
0.0870549   0.0715849   0.025
0.103323   0.0715849   0.025
0.120395   0.0715849   0.025
0.138275   0.0715849   0.025
0.156961   0.0715849   0.025
0.176443   0.0715849   0.025
0.196707   0.0715849   0.025
0.217734   0.0715849   0.025
0.239496   0.0715849   0.025
0.261959   0.0715849   0.025
0.285082   0.0715849   0.025
0.308818   0.0715849   0.025
0.333113   0.0715849   0.025
0.357906   0.0715849   0.025
0.383132   0.0715849   0.025
0.408719   0.0715849   0.025
0.434592   0.0715849   0.025
0.460672   0.0715849   0.025
0.486877   0.0715849   0.025
0.513123   0.0715849   0.025
0.539328   0.0715849   0.025
0.565408   0.0715849   0.025
0.591281   0.0715849   0.025
0.616868   0.0715849   0.025
0.642094   0.0715849   0.025
0.666887   0.0715849   0.025
0.691182   0.0715849   0.025
0.714918   0.0715849   0.025
0.738041   0.0715849   0.025
0.760504   0.0715849   0.025
0.782266   0.0715849   0.025
0.803293   0.0715849   0.025
0.823557   0.0715849   0.025
0.843039   0.0715849   0.025
0.861725   0.0715849   0.025
0.879605   0.0715849   0.025
0.896677   0.0715849   0.025
0.912945   0.0715849   0.025
0.928415   0.0715849   0.025
0.943099   0.0715849   0.025
0.957011   0.0715849   0.025
0.970171   0.0715849   0.025
0.982598   0.0715849   0.025
0.994315   0.0715849   0.025
0.00568455   0.0870549   0.025
0.0174023   0.0870549   0.025
0.0298294   0.0870549   0.025
0.0429888   0.0870549   0.025
0.0569012   0.0870549   0.025
0.0715849   0.0870549   0.025
0.0870549   0.0870549   0.025
0.103323   0.0870549   0.025
0.120395   0.0870549   0.025
0.138275   0.0870549   0.025
0.156961   0.0870549   0.025
0.176443   0.0870549   0.025
0.196707   0.0870549   0.025
0.217734   0.0870549   0.025
0.239496   0.0870549   0.025
0.261959   0.0870549   0.025
0.285082   0.0870549   0.025
0.308818   0.0870549   0.025
0.333113   0.0870549   0.025
0.357906   0.0870549   0.025
0.383132   0.0870549   0.025
0.408719   0.0870549   0.025
0.434592   0.0870549   0.025
0.460672   0.0870549   0.025
0.486877   0.0870549   0.025
0.513123   0.0870549   0.025
0.539328   0.0870549   0.025
0.565408   0.0870549   0.025
0.591281   0.0870549   0.025
0.616868   0.0870549   0.025
0.642094   0.0870549   0.025
0.666887   0.0870549   0.025
0.691182   0.0870549   0.025
0.714918   0.0870549   0.025
0.738041   0.0870549   0.025
0.760504   0.0870549   0.025
0.782266   0.0870549   0.025
[...]
POINT_DATA   50000
VECTORS Velocidades double

-7.68556e-05 -0.00168912 0
-0.000207939 -0.00331772 0
-0.00028552 -0.00423474 0
-0.000313955 -0.00475002 0
-0.000321018 -0.00498912 0
-0.000333962 -0.00501547 0
-0.000373535 -0.00486805 0
-0.000454321 -0.00457457 0
-0.000586156 -0.00415613 0
-0.000775655 -0.00362804 0
-0.00102826 -0.00299675 0
-0.00115407 -0.00224622 0
-0.00133395 -0.00127783 0
-0.00177622 -0.000549319 0
-0.00229382 5.8277e-05 0
-0.0028593 0.000571737 0
-0.00346327 0.000987939 0
-0.00409665 0.00128993 0
-0.00474631 0.0014552 0
-0.00539329 0.0014623 0
-0.00601221 0.00129667 0
-0.0065718 0.000955665 0
-0.00703765 0.000452038 0
-0.00736389 -0.000183576 0
-0.0075087 -0.000890803 0
-0.00744404 -0.00160259 0
-0.0071524 -0.00223947 0
-0.00663749 -0.00272697 0
-0.00592331 -0.00300124 0
-0.00505458 -0.00301775 0
-0.00409272 -0.0027586 0
-0.00310767 -0.00223603 0
-0.00216779 -0.00149164 0
-0.00132987 -0.000592044 0
-0.000630652 0.000376057 0
-0.000238757 0.00130409 0
2.0209e-06 0.00203251 0
0.000272496 0.00287547 0
0.000437748 0.00367521 0
0.000503969 0.00437278 0
0.000490936 0.00494232 0
0.000418458 0.00537201 0
0.000304782 0.00565577 0
0.000167083 0.00578882 0
2.2521e-05 0.00576442 0
-0.000110305 0.0055699 0
-0.000209566 0.00517969 0
-0.00024926 0.00453934 0
-0.000204944 0.00352217 0
-7.95915e-05 0.00179166 0
-0.000257138 -0.00310533 0
-0.000677377 -0.00647235 0
-0.000894651 -0.00841836 0
-0.000950728 -0.00949835 0
-0.000950669 -0.0099799 0
-0.000977582 -0.0100078 0
-0.00109059 -0.00967212 0
-0.00133116 -0.00903589 0
-0.00172804 -0.00814624 0
-0.00230152 -0.00703629 0
-0.00306955 -0.00571849 0
-0.00340581 -0.00415624 0
-0.00396953 -0.0021686 0
-0.00539807 -0.000666718 0
-0.00701045 0.00057817 0
-0.00877036 0.0016269 0
-0.0106526 0.00247447 0
-0.0126267 0.00308474 0
-0.0146471 0.00340903 0
-0.0166486 0.00340029 0
-0.018546 0.00302558 0
-0.020237 0.00227697 0
-0.021611 0.00117966 0
-0.0225386 -0.000202733 0
-0.0229008 -0.00176856 0
-0.0226188 -0.00334786 0
-0.0216595 -0.00477826 0
-0.020048 -0.00590069 0
-0.0178632 -0.00657527 0
-0.0152381 -0.00670127 0
-0.0123485 -0.00623405 0
-0.00939234 -0.00519394 0
-0.0065643 -0.00366556 0
-0.0040297 -0.00178934 0
-0.0019013 0.000248098 0
-0.000743894 0.00220927 0
-2.43526e-06 0.00376249 0
0.000881095 0.00554822 0
0.00140364 0.00724384 0
0.00161395 0.0087236 0
0.00157386 0.00993403 0
0.00134381 0.0108512 0
0.00098029 0.0114623 0
0.000537171 0.0117562 0
6.84443e-05 0.0117161 0
-0.000367889 0.0113107 0
-0.000704054 0.0104787 0
-0.000854949 0.00909486 0
-0.00072068 0.00689291 0
-0.000284628 0.00328122 0
-0.000185442 -0.00262384 0
-0.000589101 -0.00607799 0
-0.000961413 -0.00821314 0
-0.00122067 -0.00939728 0
-0.00142817 -0.00988999 0
-0.00167606 -0.00986124 0
-0.0020481 -0.00942558 0
-0.00261097 -0.0086646 0
-0.00341518 -0.0076379 0
-0.00449919 -0.00638557 0
-0.00589527 -0.00492095 0
-0.00652762 -0.00320346 0
-0.00750044 -0.00108778 0
-0.00990152 0.000530419 0
-0.0126001 0.00185943 0
-0.0155515 0.00297025 0
-0.018709 0.00385895 0
-0.0220123 0.00448328 0
-0.0253762 0.00478479 0
-0.0286846 0.00470564 0
-0.0317902 0.00420317 0
-0.0345214 0.00326298 0
-0.0366938 0.00190941 0
-0.0381368 0.000210492 0
-0.0386538 -0.00175687 0
-0.0381084 -0.00375491 0
-0.0364879 -0.00560442 0
-0.0338397 -0.00711989 0
-0.0302912 -0.00813046 0
-0.0260486 -0.00850597 0
-0.0213796 -0.00817949 0
-0.0165849 -0.0071604 0
-0.0119613 -0.00553628 0
-0.00776549 -0.00346518 0
-0.00417982 -0.00116608 0
-0.00220696 0.00107709 0
-0.000922184 0.0029013 0
0.000637148 0.00495891 0
0.00161212 0.00691168 0
0.00208666 0.00861862 0
0.00215625 0.0100214 0
0.00191669 0.0110939 0
0.00146125 0.0118204 0
0.000881898 0.012184 0
0.000271779 0.0121586 0
-0.000272033 0.0116988 0
-0.000648088 0.0107238 0
-0.000760783 0.00909056 0
-0.000565351 0.00655609 0
-0.000195204 0.00275958 0
-0.000117117 -0.00227587 0
-0.000450303 -0.00560444 0
-0.000900761 -0.00781103 0
-0.00137305 -0.00905999 0
-0.00187744 -0.00954617 0
-0.00247871 -0.00943724 0
-0.00325699 -0.00886481 0
-0.00428809 -0.00792958 0
-0.00563648 -0.00670653 0
-0.0073548 -0.00524602 0
-0.00948513 -0.00356695 0
-0.0104788 -0.00163591 0
-0.0118953 0.000651392 0
-0.0152948 0.00243616 0
-0.0190928 0.00389879 0
-0.0232423 0.00510905 0
-0.0276747 0.00605922 0
-0.0322957 0.00669675 0
-0.0369755 0.00694883 0
-0.0415436 0.00674223 0
-0.0457911 0.006021 0
-0.0494794 0.00476256 0
-0.0523575 0.00299072 0
-0.05425 0.0007803 0
-0.0548811 -0.00178738 0
-0.0540525 -0.00441727 0
-0.0518019 -0.00689601 0
-0.048195 -0.00900004 0
-0.0433978 -0.0105154 0
-0.0376726 -0.0112714 0
-0.0313581 -0.0111697 0
-0.0248354 -0.0102035 0
-0.0184855 -0.0084622 0
-0.0126447 -0.00612605 0
-0.0075655 -0.00345522 0
-0.00474517 -0.000787879 0
-0.00287194 0.00147211 0
-0.00054054 0.00394694 0
0.00100281 0.00628526 0
0.00187608 0.00833399 0
0.00220296 0.0100279 0
0.00210878 0.0113353 0
0.00171899 0.0122331 0
0.00115878 0.0126951 0
0.000552246 0.0126827 0
1.92421e-05 0.0121372 0
-0.000334314 0.0109697 0
-0.000439858 0.00905478 0
-0.000310726 0.00624209 0
-9.80219e-05 0.00242335 0
-8.39434e-05 -0.00203095 0
-0.000381468 -0.00510913 0
-0.000899012 -0.00722326 0
-0.00158083 -0.00842292 0
-0.00242056 -0.00883205 0
-0.00345576 -0.00859302 0
-0.00474861 -0.00783841 0
-0.00636877 -0.00668027 0
-0.00838293 -0.00520675 0
-0.0108493 -0.00347976 0
-0.0138133 -0.00152894 0
-0.0152225 0.000661263 0
-0.0171191 0.00314924 0
-0.0215638 0.00514365 0
-0.0264916 0.00678663 0
-0.0318558 0.00813207 0
-0.0375676 0.00915968 0
-0.0434966 0.00980098 0
-0.0494663 0.00996424 0
-0.0552518 0.00955724 0
-0.0605845 0.00850862 0
-0.0651655 0.00678747 0
-0.0686871 0.00441936 0
-0.0709873 0.00149288 0
-0.0717172 -0.0018779 0
-0.0706254 -0.00534849 0
-0.0678108 -0.00866351 0
-0.0633494 -0.0115517 0
-0.057431 -0.0137456 0
-0.0503564 -0.0150242 0
-0.0425155 -0.0152494 0
-0.0343518 -0.0143911 0
-0.0263169 -0.0125373 0
-0.0188221 -0.00989013 0
-0.012194 -0.00675412 0
-0.00849406 -0.0035242 0
-0.00598056 -0.000651725 0
-0.00275325 0.00238663 0
-0.000501509 0.00523653 0
0.000923177 0.00774014 0
0.00166652 0.00982481 0
0.00187646 0.011449 0
0.00170339 0.0125787 0
0.00129705 0.0131758 0
0.000800872 0.0131917 0
0.000342654 0.0125633 0
1.99143e-05 0.0112141 0
-0.000120896 0.00906525 0
-0.000105452 0.00606789 0
-3.34816e-05 0.0022646 0
-7.80882e-05 -0.00182188 0
-0.000391703 -0.0045619 0
-0.00101301 -0.00642875 0
-0.001929 -0.00743311 0
-0.00313931 -0.00765299 0
-0.00466706 -0.00720167 0
-0.00655598 -0.006201 0
-0.00886192 -0.00476431 0
-0.0116443 -0.00298703 0
-0.0149581 -0.000941287 0
-0.0188454 0.00132907 0
-0.0207161 0.00381444 0
-0.0231282 0.00652312 0
-0.0286737 0.00876221 0
-0.0347722 0.0106254 0
-0.0413759 0.0121356 0
-0.0483759 0.0132489 0
-0.0556064 0.0138741 0
-0.062845 0.013896 0
-0.0698148 0.013201 0
-0.0761938 0.0117018 0
-0.081632 0.00936102 0
-0.0857774 0.00621015 0
-0.0884708 0.00236046 0
-0.0893134 -0.00202225 0
-0.0880296 -0.00653603 0
-0.0847622 -0.0108923 0
-0.0795833 -0.0147645 0
-0.0726896 -0.0178228 0
-0.0644013 -0.0197862 0
-0.0551411 -0.0204673 0
-0.0454004 -0.0198037 0
-0.0356932 -0.017874 0
-0.026505 -0.0148977 0
-0.0182442 -0.0112213 0
-0.0136205 -0.00729635 0
-0.0104022 -0.00362923 0
-0.00612583 0.000117221 0
-0.00299758 0.0036029 0
-0.000846551 0.00667576 0
0.000486271 0.00925599 0
0.00116319 0.0112886 0
0.00135153 0.012725 0
0.00121741 0.0135156 0
0.00091548 0.0136065 0
0.00057659 0.0129415 0
0.000294315 0.0114699 0
0.000113813 0.00916464 0
2.99774e-05 0.006049 0
4.30281e-06 0.00222821 0
-9.04314e-05 -0.00159214 0
-0.000467065 -0.00389135 0
-0.00124639 -0.00536217 0
-0.00244437 -0.00601594 0
-0.00407196 -0.00591154 0
-0.00614697 -0.00514112 0
-0.00869903 -0.003812 0
-0.0117687 -0.00203119 0
-0.0154027 0.000105199 0
-0.0196469 0.00251802 0
-0.0245344 0.00514823 0
-0.0269045 0.00795717 0
-0.0298641 0.0109009 0
-0.036567 0.0134128 0
-0.0438808 0.0155273 0
-0.0517528 0.0172225 0
-0.0600535 0.0184197 0
-0.0685832 0.0189974 0
-0.0770771 0.0188133 0
-0.0852129 0.0177313 0
-0.0926242 0.0156494 0
-0.0989219 0.0125273 0
-0.103722 0.00840749 0
-0.106823 0.00343095 0
-0.107823 -0.00217815 0
-0.106479 -0.00793013 0
-0.102921 -0.0135338 0
-0.0972002 -0.0186006 0
-0.0895012 -0.0227295 0
-0.080144 -0.0255702 0
-0.0695672 -0.0268742 0
-0.0582974 -0.026534 0
-0.0469053 -0.0246063 0
-0.0359533 -0.0213174 0
-0.0259415 -0.0170483 0
-0.0203312 -0.0123052 0
-0.0163256 -0.00765843 0
-0.010811 -0.00306537 0
-0.00660351 0.00117881 0
-0.0035233 0.00494099 0
-0.00140983 0.00813406 0
-9.51523e-05 0.0106849 0
0.000598431 0.0125274 0
0.000848612 0.0136004 0
0.000819538 0.0138497 0
0.000648739 0.013232 0
0.000437354 0.0117254 0
0.000246812 0.00934353 0
0.000105208 0.00615034 0
2.42215e-05 0.00226772 0
-0.00011524 -0.00129698 0
-0.000593313 -0.00301378 0
-0.00158594 -0.00392939 0
-0.00312345 -0.0040712 0
-0.00522391 -0.00349636 0
-0.00790211 -0.00228555 0
-0.0111768 -0.000532546 0
-0.0150739 0.00166627 0
-0.0196261 0.00421969 0
-0.0248662 0.00704546 0
-0.030816 0.0100703 0
-0.0337143 0.0132256 0
-0.0372481 0.0164158 0
-0.0451601 0.0192228 0
-0.0537315 0.0216107 0
-0.0628999 0.0235001 0
-0.0725148 0.0247679 0
-0.0823454 0.0252558 0
-0.0920909 0.0247918 0
-0.101393 0.0232176 0
-0.109852 0.0204199 0
-0.117053 0.0163592 0
-0.122592 0.0110937 0
-0.126138 0.00479603 0
-0.127372 -0.00225594 0
-0.126161 -0.00943411 0
-0.122528 -0.0164969 0
-0.116483 -0.022986 0
-0.10818 -0.0284213 0
-0.0979183 -0.0323726 0
-0.0861363 -0.0345165 0
-0.0733829 -0.0346829 0
-0.0602802 -0.0328886 0
-0.04747 -0.0293491 0
-0.0355547 -0.0244674 0
-0.0288762 -0.0187991 0
-0.0239787 -0.0129868 0
-0.0169914 -0.00742001 0
-0.0114587 -0.00229502 0
-0.0072113 0.00228883 0
-0.00410164 0.00623362 0
-0.00196419 0.00944095 0
-0.000614523 0.0118218 0
0.000136408 0.0133026 0
0.00046576 0.0138295 0
0.000525622 0.013373 0
0.000435836 0.0119349 0
0.000284098 0.00955606 0
0.000133106 0.0063199 0
3.21979e-05 0.00234873 0
-0.000149139 -0.000898764 0
-0.000759418 -0.00184467 0
-0.00201485 -0.00202293 0
-0.00394867 -0.00148118 0
-0.00657887 -0.000282878 0
-0.00991482 0.00149658 0
-0.0139647 0.00377539 0
-0.0187409 0.00647043 0
-0.0242614 0.00949985 0
-0.0305455 0.0127823 0
-0.0376024 0.0162326 0
-0.0410486 0.0197532 0
-0.045176 0.0232002 0
-0.0543383 0.0263203 0
-0.0642012 0.0289945 0
-0.0746886 0.0310764 0
-0.0856286 0.0323904 0
-0.0967642 0.0327376 0
-0.107767 0.0319151 0
-0.118252 0.0297447 0
-0.127803 0.0261054 0
-0.135988 0.0209628 0
-0.142394 0.0143921 0
-0.146443 0.00659459 0
-0.148009 -0.00211126 0
-0.147182 -0.0108989 0
-0.143737 -0.0196427 0
-0.137626 -0.027804 0
-0.128957 -0.0348168 0
-0.11799 -0.040161 0
-0.105144 -0.0434221 0
-0.0909748 -0.0443465 0
-0.0761457 -0.0428858 0
-0.0613773 -0.0392202 0
-0.0473832 -0.0337543 0
-0.0395431 -0.027082 0
-0.033627 -0.019924 0
-0.0248777 -0.0132747 0
-0.017721 -0.00714421 0
-0.0120257 -0.00158528 0
-0.00767332 0.00328267 0
-0.00450697 0.00732323 0
-0.0023357 0.010416 0
-0.000955362 0.0124702 0
-0.000169043 0.0134298 0
0.000198661 0.0132751 0
0.000294825 0.0120247 0
0.000238246 0.00973615 0
0.000124346 0.00650259 0
3.18703e-05 0.00244493 0
-0.000189909 -0.000364095 0
-0.000956602 -0.000302788 0
-0.0025158 0.000467264 0
-0.00489534 0.00187851 0
-0.00810594 0.00385939 0
-0.0121472 0.00633827 0
-0.017015 0.00924593 0
-0.022708 0.0125154 0
-0.0292301 0.0160783 0
-0.0365875 0.0198583 0
-0.0447776 0.0237615 0
-0.048781 0.0276644 0
-0.0535125 0.0313796 0
-0.0639507 0.0348269 0
-0.0751246 0.0377919 0
-0.0869418 0.0400543 0
-0.0992101 0.0413815 0
-0.111652 0.041532 0
-0.123921 0.0402735 0
-0.13562 0.0374111 0
-0.146322 0.03282 0
-0.155595 0.026473 0
-0.163018 0.0184617 0
-0.16763 0.00900759 0
-0.169641 -0.00154574 0
-0.169484 -0.0121249 0
-0.166523 -0.0227831 0
-0.160642 -0.0328876 0
-0.151888 -0.0417844 0
-0.140468 -0.0488548 0
-0.126757 -0.0535775 0
-0.111296 -0.055591 0
-0.0947722 -0.0547511 0
-0.0779744 -0.0511691 0
-0.0617294 -0.0452206 0
-0.0526407 -0.0375166 0
-0.0455613 -0.0288538 0
-0.0346993 -0.0210412 0
-0.0255608 -0.0137733 0
-0.0180893 -0.00705366 0
-0.0122119 -0.00104646 0
-0.00778391 0.00405344 0
-0.00460496 0.00808074 0
-0.00244952 0.0109193 0
-0.00109281 0.012505 0
-0.000327812 0.0128223 0
2.62641e-05 0.0119004 0
0.000122246 0.00980777 0
8.71432e-05 0.00664485 0
2.55952e-05 0.00253508 0
-0.000235755 0.000337103 0
-0.00117686 0.0016869 0
-0.00307066 0.00364577 0
-0.00593344 0.00612814 0
-0.00976268 0.0090565 0
-0.0145436 0.0123656 0
-0.0202573 0.0160025 0
-0.0268878 0.0199208 0
-0.0344256 0.0240708 0
-0.0428646 0.0283855 0
-0.0521921 0.0327661 0
-0.0567508 0.0370671 0
-0.0620863 0.0410644 0
-0.0738042 0.0448491 0
-0.0862877 0.0481019 0
-0.0994262 0.0505242 0
-0.11301 0.0518255 0
-0.126749 0.0517227 0
-0.140286 0.0499568 0
-0.153222 0.0463202 0
-0.165131 0.0406872 0
-0.175586 0.0330389 0
-0.184167 0.0234793 0
-0.189386 0.012241 0
-0.191948 -0.000320032 0
-0.192754 -0.0128744 0
-0.190581 -0.0256858 0
-0.18525 -0.0380163 0
-0.176742 -0.0491283 0
-0.165191 -0.058301 0
-0.150904 -0.0648938 0
-0.134377 -0.0684139 0
-0.116287 -0.0685862 0
-0.0974694 -0.0654104 0
-0.0788503 -0.0591894 0
-0.0684633 -0.0505148 0
-0.0600706 -0.0402425 0
-0.0466864 -0.0312251 0
-0.0351527 -0.0226732 0
-0.0255317 -0.0145632 0
-0.0178107 -0.00714455 0
-0.0118585 -0.000699777 0
-0.00746124 0.00454224 0
-0.00436486 0.0084282 0
-0.00230862 0.0108779 0
-0.00104635 0.0118741 0
-0.000357845 0.0114524 0
-5.30886e-05 0.00968976 0
2.75535e-05 0.00669555 0
1.49705e-05 0.00260138 0
-0.000284872 0.00123095 0
-0.00141175 0.00418967 0
-0.0036591 0.00760412 0
-0.00702726 0.0113734 0
-0.0114959 0.0154185 0
-0.0170319 0.0196868 0
-0.0235993 0.024148 0
-0.0311666 0.0287835 0
-0.039711 0.0335682 0
-0.0492156 0.03845 0
-0.0596597 0.0433293 0
-0.06476 0.0480439 0
-0.070686 0.0523398 0
-0.083659 0.056468 0
-0.0974214 0.0599981 0
-0.111844 0.0625527 0
-0.126705 0.0637853 0
-0.141704 0.0633747 0
-0.156484 0.0610388 0
-0.170649 0.0565607 0
-0.183783 0.0498162 0
-0.195467 0.0407943 0
-0.20529 0.0296082 0
-0.211124 0.016495 0
-0.214315 0.00181742 0
-0.216336 -0.0128961 0
-0.215232 -0.028088 0
-0.210779 -0.0429173 0
-0.20289 -0.0565761 0
-0.191612 -0.0682475 0
-0.177155 -0.0771671 0
-0.159931 -0.0826921 0
-0.140563 -0.0843823 0
-0.119882 -0.0820762 0
-0.0988818 -0.0759459 0
-0.0872306 -0.066507 0
-0.0773936 -0.0546334 0
-0.0610423 -0.0444196 0
-0.0466662 -0.0344155 0
-0.0344917 -0.0246344 0
-0.024578 -0.0154691 0
-0.0168093 -0.00732722 0
-0.0109554 -0.000524989 0
-0.00672884 0.00473184 0
-0.00382611 0.00833716 0
-0.00195518 0.0102662 0
-0.00085067 0.0105573 0
-0.000281041 0.00929657 0
-5.06267e-05 0.00660511 0
9.92184e-07 0.00262825 0
-0.00033521 0.00233792 0
-0.00165161 0.00725603 0
-0.00425752 0.0124125 0
-0.00813446 0.0176943 0
-0.0132412 0.0230274 0
-0.019524 0.0283799 0
-0.0269278 0.0337537 0
-0.035405 0.0391668 0
-0.0449199 0.0446267 0
-0.055446 0.0501022 0
-0.0669563 0.0554984 0
-0.072571 0.060641 0
-0.0790583 0.065254 0
-0.0932254 0.0697259 0
-0.108197 0.0735148 0
-0.123827 0.0761675 0
-0.139882 0.0772857 0
-0.156059 0.0765141 0
-0.172003 0.0735521 0
-0.187327 0.0681764 0
-0.201626 0.060266 0
-0.214496 0.0498185 0
-0.225543 0.0369561 0
-0.231941 0.0219208 0
-0.235785 0.00508543 0
-0.239183 -0.0119604 0
-0.239366 -0.0297204 0
-0.236096 -0.0472772 0
-0.229222 -0.0637767 0
-0.218695 -0.0783239 0
-0.204605 -0.0900396 0
-0.187231 -0.098125 0
-0.167081 -0.101947 0
-0.144917 -0.101134 0
-0.121732 -0.0956564 0
-0.108993 -0.0858769 0
-0.097641 -0.0726119 0
-0.0779004 -0.0612669 0
-0.0602522 -0.0496235 0
-0.0451215 -0.0378466 0
-0.0326498 -0.0265416 0
-0.0227449 -0.0162836 0
-0.0151659 -0.00750533 0
-0.00959177 -0.000485143 0
-0.00567307 0.00463185 0
-0.0030664 0.00780568 0
-0.00145532 0.00907498 0
-0.000561027 0.00853531 0
-0.000146379 0.00632264 0
-1.59875e-05 0.00260094 0
-0.000384351 0.00367035 0
-0.00188513 0.0109155 0
-0.00483842 0.0181106 0
-0.0092057 0.025134 0
-0.0149237 0.0319243 0
-0.0219169 0.0384802 0
-0.0301104 0.0448469 0
-0.0394403 0.0510894 0
-0.0498585 0.0572569 0
-0.0613297 0.0633463 0
-0.0738218 0.069273 0
-0.0799087 0.0748561 0
-0.0869092 0.079804 0
-0.102164 0.0846113 0
-0.118226 0.0886303 0
-0.134933 0.0913381 0
-0.15204 0.09229 0
-0.169244 0.0911014 0
-0.186193 0.0874563 0
-0.202508 0.0811288 0
-0.2178 0.0720038 0
-0.231684 0.0600912 0
-0.243797 0.0455285 0
-0.250638 0.028571 0
-0.255083 0.00961342 0
-0.259879 -0.00990388 0
-0.261463 -0.0303427 0
-0.259616 -0.0507695 0
-0.25414 -0.0703156 0
-0.244886 -0.0880416 0
-0.231806 -0.10298 0
-0.215004 -0.114189 0
-0.194809 -0.120832 0
-0.171824 -0.122286 0
-0.146948 -0.118254 0
-0.133497 -0.108849 0
-0.12068 -0.0947171 0
-0.097262 -0.0823683 0
-0.076017 -0.0689101 0
-0.0575802 -0.0548055 0
-0.0421933 -0.040936 0
-0.0298139 -0.0280886 0
-0.0202099 -0.0168494 0
-0.0130378 -0.00759808 0
-0.00790446 -0.000538366 0
-0.00441245 0.00426329 0
-0.00218867 0.00684085 0
-0.000900402 0.00729896 0
-0.000262062 0.00579102 0
-3.63632e-05 0.00250345 0
-0.000429496 0.00522957 0
-0.00209937 0.0151697 0
-0.00537053 0.024698 0
-0.0101852 0.0336878 0
-0.0164589 0.0420979 0
-0.0240949 0.0499684 0
-0.032999 0.0573993 0
-0.0430912 0.064514 0
-0.054311 0.071413 0
-0.0666148 0.078129 0
-0.0799658 0.0845937 0
-0.0864664 0.0906246 0
-0.0939102 0.0959204 0
-0.110093 0.101042 0
-0.127067 0.105248 0
-0.144652 0.107955 0
-0.162596 0.108676 0
-0.180588 0.107002 0
-0.198282 0.102605 0
-0.215304 0.0952613 0
-0.231282 0.0848673 0
-0.245861 0.0714549 0
-0.258723 0.0551893 0
-0.265818 0.0363555 0
-0.270725 0.0153848 0
-0.276766 -0.00667286 0
-0.279723 -0.0297879 0
-0.27943 -0.0530982 0
-0.275659 -0.0757564 0
-0.268181 -0.096827 0
-0.2568 -0.115301 0
-0.24142 -0.130128 0
-0.22213 -0.140286 0
-0.199287 -0.144886 0
-0.173579 -0.143307 0
-0.160021 -0.135325 0
-0.145986 -0.12127 0
-0.118904 -0.10813 0
-0.0939632 -0.0927761 0
-0.0719957 -0.0760846 0
-0.0533856 -0.0592502 0
-0.0381939 -0.0433178 0
-0.0262407 -0.0290768 0
-0.0171858 -0.0170512 0
-0.0106048 -0.00753459 0
-0.00604822 -0.00063927 0
-0.00308276 0.00365428 0
-0.00131513 0.0054568 0
-0.000403635 0.00494003 0
-6.13151e-05 0.0023157 0
-0.000467563 0.00700311 0
-0.00228016 0.0199856 0
-0.00581992 0.0321249 0
-0.011013 0.0432923 0
-0.0177564 0.0534737 0
-0.0259347 0.0627599 0
-0.0354359 0.071317 0
-0.0461647 0.0793375 0
-0.0580482 0.0869828 0
-0.0710339 0.094329 0
-0.0850794 0.10133 0
-0.0919178 0.107807 0
-0.099711 0.113453 0
-0.116603 0.118849 0
-0.134245 0.123181 0
-0.152438 0.125811 0
-0.170918 0.126215 0
-0.189368 0.123964 0
-0.207438 0.118724 0
-0.224764 0.110278 0
-0.240996 0.0985464 0
-0.255816 0.083598 0
-0.268968 0.0656435 0
-0.276072 0.0450172 0
-0.281223 0.0221994 0
-0.288175 -0.00235642 0
-0.292317 -0.0280072 0
-0.293556 -0.0540532 0
-0.291665 -0.0797066 0
-0.286358 -0.104093 0
-0.277309 -0.126224 0
-0.264221 -0.145003 0
-0.24691 -0.159269 0
-0.225416 -0.167892 0
-0.200103 -0.169909 0
-0.187239 -0.164695 0
-0.17249 -0.152116 0
-0.142256 -0.138559 0
-0.11388 -0.121471 0
-0.0883768 -0.102132 0
-0.0663499 -0.0820484 0
-0.048051 -0.0625729 0
-0.0334222 -0.0447655 0
-0.0221748 -0.0293591 0
-0.0138796 -0.0167869 0
-0.00804634 -0.00724041 0
-0.00418215 -0.000732999 0
-0.00182845 0.00284395 0
-0.000580133 0.00367885 0
-9.26951e-05 0.00201047 0
-0.000495376 0.00896237 0
-0.002413 0.0252907 0
-0.00615201 0.0402857 0
-0.0116279 0.0538186 0
-0.0187246 0.0659064 0
-0.027312 0.0766978 0
-0.0372628 0.0864334 0
-0.0484675 0.0953842 0
-0.0608407 0.103781 0
-0.0743192 0.11175 0
-0.0888532 0.119274 0
-0.0959358 0.126181 0
-0.103961 0.132161 0
-0.121283 0.13777 0
-0.139285 0.14214 0
-0.157745 0.144589 0
-0.176384 0.144563 0
-0.194875 0.141614 0
-0.212867 0.135407 0
-0.230006 0.125748 0
-0.245968 0.112594 0
-0.260488 0.096071 0
-0.273383 0.0764543 0
-0.280225 0.0541447 0
-0.28535 0.0296764 0
-0.29274 0.00280677 0
-0.297738 -0.0250983 0
-0.300322 -0.053563 0
-0.300301 -0.0818958 0
-0.297367 -0.109341 0
-0.291108 -0.135 0
-0.281052 -0.157811 0
-0.266753 -0.176556 0
-0.247908 -0.189926 0
-0.224483 -0.196652 0
-0.213194 -0.195693 0
-0.198509 -0.186337 0