# vtk DataFile Version 2.0
Presion
ASCII

DATASET STRUCTURED_GRID
DIMENSIONS   50   50   20

POINTS   50000   double
0.00568455   0.00568455   0.025
0.0174023   0.00568455   0.025
0.0298294   0.00568455   0.025
0.0429888   0.00568455   0.025
0.0569012   0.00568455   0.025
0.0715849   0.00568455   0.025
0.0870549   0.00568455   0.025
0.103323   0.00568455   0.025
0.120395   0.00568455   0.025
0.138275   0.00568455   0.025
0.156961   0.00568455   0.025
0.176443   0.00568455   0.025
0.196707   0.00568455   0.025
0.217734   0.00568455   0.025
0.239496   0.00568455   0.025
0.261959   0.00568455   0.025
0.285082   0.00568455   0.025
0.308818   0.00568455   0.025
0.333113   0.00568455   0.025
0.357906   0.00568455   0.025
0.383132   0.00568455   0.025
0.408719   0.00568455   0.025
0.434592   0.00568455   0.025
0.460672   0.00568455   0.025
0.486877   0.00568455   0.025
0.513123   0.00568455   0.025
0.539328   0.00568455   0.025
0.565408   0.00568455   0.025
0.591281   0.00568455   0.025
0.616868   0.00568455   0.025
0.642094   0.00568455   0.025
0.666887   0.00568455   0.025
0.691182   0.00568455   0.025
0.714918   0.00568455   0.025
0.738041   0.00568455   0.025
0.760504   0.00568455   0.025
0.782266   0.00568455   0.025
0.803293   0.00568455   0.025
0.823557   0.00568455   0.025
0.843039   0.00568455   0.025
0.861725   0.00568455   0.025
0.879605   0.00568455   0.025
0.896677   0.00568455   0.025
0.912945   0.00568455   0.025
0.928415   0.00568455   0.025
0.943099   0.00568455   0.025
0.957011   0.00568455   0.025
0.970171   0.00568455   0.025
0.982598   0.00568455   0.025
0.994315   0.00568455   0.025
0.00568455   0.0174023   0.025
0.0174023   0.0174023   0.025
0.0298294   0.0174023   0.025
0.0429888   0.0174023   0.025
0.0569012   0.0174023   0.025
0.0715849   0.0174023   0.025
0.0870549   0.0174023   0.025
0.103323   0.0174023   0.025
0.120395   0.0174023   0.025
0.138275   0.0174023   0.025
0.156961   0.0174023   0.025
0.176443   0.0174023   0.025
0.196707   0.0174023   0.025
0.217734   0.0174023   0.025
0.239496   0.0174023   0.025
0.261959   0.0174023   0.025
0.285082   0.0174023   0.025
0.308818   0.0174023   0.025
0.333113   0.0174023   0.025
0.357906   0.0174023   0.025
0.383132   0.0174023   0.025
0.408719   0.0174023   0.025
0.434592   0.0174023   0.025
0.460672   0.0174023   0.025
0.486877   0.0174023   0.025
0.513123   0.0174023   0.025
0.539328   0.0174023   0.025
0.565408   0.0174023   0.025
0.591281   0.0174023   0.025
0.616868   0.0174023   0.025
0.642094   0.0174023   0.025
0.666887   0.0174023   0.025
0.691182   0.0174023   0.025
0.714918   0.0174023   0.025
0.738041   0.0174023   0.025
0.760504   0.0174023   0.025
0.782266   0.0174023   0.025
0.803293   0.0174023   0.025
0.823557   0.0174023   0.025
0.843039   0.0174023   0.025
0.861725   0.0174023   0.025
0.879605   0.0174023   0.025
0.896677   0.0174023   0.025
0.912945   0.0174023   0.025
0.928415   0.0174023   0.025
0.943099   0.0174023   0.025
0.957011   0.0174023   0.025
0.970171   0.0174023   0.025
0.982598   0.0174023   0.025
0.994315   0.0174023   0.025
0.00568455   0.0298294   0.025
0.0174023   0.0298294   0.025
0.0298294   0.0298294   0.025
0.0429888   0.0298294   0.025
0.0569012   0.0298294   0.025
0.0715849   0.0298294   0.025
0.0870549   0.0298294   0.025
0.103323   0.0298294   0.025
0.120395   0.0298294   0.025
0.138275   0.0298294   0.025
0.156961   0.0298294   0.025
0.176443   0.0298294   0.025
0.196707   0.0298294   0.025
0.217734   0.0298294   0.025
0.239496   0.0298294   0.025
0.261959   0.0298294   0.025
0.285082   0.0298294   0.025
0.308818   0.0298294   0.025
0.333113   0.0298294   0.025
0.357906   0.0298294   0.025
0.383132   0.0298294   0.025
0.408719   0.0298294   0.025
0.434592   0.0298294   0.025
0.460672   0.0298294   0.025
0.486877   0.0298294   0.025
0.513123   0.0298294   0.025
0.539328   0.0298294   0.025
0.565408   0.0298294   0.025
0.591281   0.0298294   0.025
0.616868   0.0298294   0.025
0.642094   0.0298294   0.025
0.666887   0.0298294   0.025
0.691182   0.0298294   0.025
0.714918   0.0298294   0.025
0.738041   0.0298294   0.025
0.760504   0.0298294   0.025
0.782266   0.0298294   0.025
0.803293   0.0298294   0.025
0.823557   0.0298294   0.025
0.843039   0.0298294   0.025
0.861725   0.0298294   0.025
0.879605   0.0298294   0.025
0.896677   0.0298294   0.025
0.912945   0.0298294   0.025
0.928415   0.0298294   0.025
0.943099   0.0298294   0.025
0.957011   0.0298294   0.025
0.970171   0.0298294   0.025
0.982598   0.0298294   0.025
0.994315   0.0298294   0.025
0.00568455   0.0429888   0.025
0.0174023   0.0429888   0.025
0.0298294   0.0429888   0.025
0.0429888   0.0429888   0.025
0.0569012   0.0429888   0.025
0.0715849   0.0429888   0.025
0.0870549   0.0429888   0.025
0.103323   0.0429888   0.025
0.120395   0.0429888   0.025
0.138275   0.0429888   0.025
0.156961   0.0429888   0.025
0.176443   0.0429888   0.025
0.196707   0.0429888   0.025
0.217734   0.0429888   0.025
0.239496   0.0429888   0.025
0.261959   0.0429888   0.025
0.285082   0.0429888   0.025
0.308818   0.0429888   0.025
0.333113   0.0429888   0.025
0.357906   0.0429888   0.025
0.383132   0.0429888   0.025
0.408719   0.0429888   0.025
0.434592   0.0429888   0.025
0.460672   0.0429888   0.025
0.486877   0.0429888   0.025
0.513123   0.0429888   0.025
0.539328   0.0429888   0.025
0.565408   0.0429888   0.025
0.591281   0.0429888   0.025
0.616868   0.0429888   0.025
0.642094   0.0429888   0.025
0.666887   0.0429888   0.025
0.691182   0.0429888   0.025
0.714918   0.0429888   0.025
0.738041   0.0429888   0.025
0.760504   0.0429888   0.025
0.782266   0.0429888   0.025
0.803293   0.0429888   0.025
0.823557   0.0429888   0.025
0.843039   0.0429888   0.025
0.861725   0.0429888   0.025
0.879605   0.0429888   0.025
0.896677   0.0429888   0.025
0.912945   0.0429888   0.025
0.928415   0.0429888   0.025
0.943099   0.0429888   0.025
0.957011   0.0429888   0.025
0.970171   0.0429888   0.025
0.982598   0.0429888   0.025
0.994315   0.0429888   0.025
0.00568455   0.0569012   0.025
0.0174023   0.0569012   0.025
0.0298294   0.0569012   0.025
0.0429888   0.0569012   0.025
0.0569012   0.0569012   0.025
0.0715849   0.0569012   0.025
0.0870549   0.0569012   0.025
0.103323   0.0569012   0.025
0.120395   0.0569012   0.025
0.138275   0.0569012   0.025
0.156961   0.0569012   0.025
0.176443   0.0569012   0.025
0.196707   0.0569012   0.025
0.217734   0.0569012   0.025
0.239496   0.0569012   0.025
0.261959   0.0569012   0.025
0.285082   0.0569012   0.025
0.308818   0.0569012   0.025
0.333113   0.0569012   0.025
0.357906   0.0569012   0.025
0.383132   0.0569012   0.025
0.408719   0.0569012   0.025
0.434592   0.0569012   0.025
0.460672   0.0569012   0.025
0.486877   0.0569012   0.025
0.513123   0.0569012   0.025
0.539328   0.0569012   0.025
0.565408   0.0569012   0.025
0.591281   0.0569012   0.025
0.616868   0.0569012   0.025
0.642094   0.0569012   0.025
0.666887   0.0569012   0.025
0.691182   0.0569012   0.025
0.714918   0.0569012   0.025
0.738041   0.0569012   0.025
0.760504   0.0569012   0.025
0.782266   0.0569012   0.025
0.803293   0.0569012   0.025
0.823557   0.0569012   0.025
0.843039   0.0569012   0.025
0.861725   0.0569012   0.025
0.879605   0.0569012   0.025
0.896677   0.0569012   0.025
0.912945   0.0569012   0.025
0.928415   0.0569012   0.025
0.943099   0.0569012   0.025
0.957011   0.0569012   0.025
0.970171   0.0569012   0.025
0.982598   0.0569012   0.025
0.994315   0.0569012   0.025
0.00568455   0.0715849   0.025
0.0174023   0.0715849   0.025
0.0298294   0.0715849   0.025
0.0429888   0.0715849   0.025
0.0569012   0.0715849   0.025
0.0715849   0.0715849   0.025
0.0870549   0.0715849   0.025
0.103323   0.0715849   0.025
0.120395   0.0715849   0.025
0.138275   0.0715849   0.025
0.156961   0.0715849   0.025
0.176443   0.0715849   0.025
0.196707   0.0715849   0.025
0.217734   0.0715849   0.025
0.239496   0.0715849   0.025
0.261959   0.0715849   0.025
0.285082   0.0715849   0.025
0.308818   0.0715849   0.025
0.333113   0.0715849   0.025
0.357906   0.0715849   0.025
0.383132   0.0715849   0.025
0.408719   0.0715849   0.025
0.434592   0.0715849   0.025
0.460672   0.0715849   0.025
0.486877   0.0715849   0.025
0.513123   0.0715849   0.025
0.539328   0.0715849   0.025
0.565408   0.0715849   0.025
0.591281   0.0715849   0.025
0.616868   0.0715849   0.025
0.642094   0.0715849   0.025
0.666887   0.0715849   0.025
0.691182   0.0715849   0.025
0.714918   0.0715849   0.025
0.738041   0.0715849   0.025
0.760504   0.0715849   0.025
0.782266   0.0715849   0.025
0.803293   0.0715849   0.025
0.823557   0.0715849   0.025
0.843039   0.0715849   0.025
0.861725   0.0715849   0.025
0.879605   0.0715849   0.025
0.896677   0.0715849   0.025
0.912945   0.0715849   0.025
0.928415   0.0715849   0.025
0.943099   0.0715849   0.025
0.957011   0.0715849   0.025
0.970171   0.0715849   0.025
0.982598   0.0715849   0.025
0.994315   0.0715849   0.025
0.00568455   0.0870549   0.025
0.0174023   0.0870549   0.025
0.0298294   0.0870549   0.025
0.0429888   0.0870549   0.025
0.0569012   0.0870549   0.025
0.0715849   0.0870549   0.025
0.0870549   0.0870549   0.025
0.103323   0.0870549   0.025
0.120395   0.0870549   0.025
0.138275   0.0870549   0.025
0.156961   0.0870549   0.025
0.176443   0.0870549   0.025
0.196707   0.0870549   0.025
0.217734   0.0870549   0.025
0.239496   0.0870549   0.025
0.261959   0.0870549   0.025
0.285082   0.0870549   0.025
0.308818   0.0870549   0.025
0.333113   0.0870549   0.025
0.357906   0.0870549   0.025
0.383132   0.0870549   0.025
0.408719   0.0870549   0.025
0.434592   0.0870549   0.025
0.460672   0.0870549   0.025
0.486877   0.0870549   0.025
0.513123   0.0870549   0.025
0.539328   0.0870549   0.025
0.565408   0.0870549   0.025
0.591281   0.0870549   0.025
0.616868   0.0870549   0.025
0.642094   0.0870549   0.025
0.666887   0.0870549   0.025
0.691182   0.0870549   0.025
0.714918   0.0870549   0.025
0.738041   0.0870549   0.025
0.760504   0.0870549   0.025
0.782266   0.0870549   0.025
[...]
POINT_DATA   50000
SCALARS Presion double
LOOKUP_TABLE   Presion

0 0 0 0 0 0 0 0 0 0 0 0 0 0 0 0 0 0 0 0 0 0 0 0 0 0 0 0 0 0 0 0 0 0 0 0 0 0 0 0 0 0 0 0 0 0 0 0 0 0 -0.000791618 -0.000871391 -0.00098899 -0.00110302 -0.00120418 -0.00129035 -0.0013607 -0.00141459 -0.00145165 -0.00147206 -0.00147683 -0.00146848 -0.00154395 -0.00149892 -0.00141771 -0.00130402 -0.0011613 -0.000992474 -0.000800389 -0.000588184 -0.000359602 -0.00011911 0.000128258 0.000377313 0.000639411 0.000867748 0.00106772 0.00123163 0.00135322 0.00142866 0.00145705 0.00144069 0.00138494 0.00129779 0.00118921 0.00107051 0.00101504 0.000883097 0.000745662 0.000611836 0.000488311 0.000379425 0.000287607 0.00021376 0.000157561 0.000117694 9.20616e-05 7.81022e-05 7.36696e-05 8.00445e-05 -0.000992672 -0.000994004 -0.00104623 -0.00111775 -0.00119185 -0.00126012 -0.001318 -0.00136276 -0.00139267 -0.00140669 -0.00140403 -0.00138499 -0.00149536 -0.00144193 -0.00135834 -0.00124542 -0.00110525 -0.000940244 -0.00075304 -0.000546775 -0.000325273 -9.31758e-05 0.00014405 0.000379899 0.000637443 0.000853131 0.00104093 0.00119307 0.00130365 0.00136921 0.00138924 0.00136624 0.00130557 0.00121483 0.0011028 0.000979127 0.00095249 0.000817951 0.000682871 0.000553725 0.000435856 0.000332874 0.000246796 0.000178326 0.000127152 9.22344e-05 7.2141e-05 6.55288e-05 7.19275e-05 9.28413e-05 -0.0010773 -0.0010666 -0.0010904 -0.00113449 -0.00118666 -0.00123825 -0.00128342 -0.00131825 -0.00134 -0.00134666 -0.0013363 -0.00130906 -0.00145464 -0.0013937 -0.00130715 -0.00119438 -0.00105643 -0.00089509 -0.000712733 -0.000512366 -0.000297808 -7.38256e-05 0.000153741 0.000377527 0.000631803 0.000836978 0.00101462 0.00115693 0.00125808 0.00131484 0.00132684 0.00129672 0.00122984 0.00113355 0.00101605 0.000887024 0.000889122 0.000750623 0.000615506 0.000488772 0.000374675 0.000276117 0.000194671 0.000130812 8.41997e-05 5.39759e-05 3.90862e-05 3.86351e-05 5.22282e-05 8.00607e-05 -0.00110143 -0.00109882 -0.00111542 -0.0011461 -0.00118396 -0.00122252 -0.00125647 -0.00128172 -0.00129514 -0.00129421 -0.00127648 -0.00124269 -0.00142246 -0.00135533 -0.00126586 -0.00115294 -0.00101692 -0.000859074 -0.000681417 -0.000486747 -0.00027879 -6.23587e-05 0.000156445 0.000369687 0.000621297 0.000818344 0.000988092 0.00112262 0.00121606 0.00126512 0.00126946 0.00123177 0.00115744 0.00105379 0.000928971 0.000793522 0.000823283 0.000679527 0.000542226 0.000415712 0.000303451 0.000207706 0.0001296 6.93325e-05 2.64523e-05 1.24798e-07 -1.0618e-05 -6.67556e-06 1.12175e-05 4.23612e-05 -0.00109479 -0.00110529 -0.00112477 -0.00115155 -0.00118204 -0.00121195 -0.00123718 -0.00125415 -0.00125988 -0.0012518 -0.0012274 -0.00118841 -0.00140068 -0.0013287 -0.00123673 -0.00112363 -0.000989373 -0.000834818 -0.000661613 -0.000472279 -0.000270358 -6.06162e-05 0.000150705 0.000355279 0.000604191 0.000795678 0.000959975 0.00108895 0.00117649 0.00121908 0.00121624 0.00117061 0.00108766 0.000974926 0.000840913 0.00069754 0.000753594 0.000603023 0.000461442 0.000332987 0.000220577 0.000125919 4.96791e-05 -8.26567e-06 -4.85663e-05 -7.21713e-05 -8.01453e-05 -7.35607e-05 -5.34864e-05 -2.11068e-05 -0.00107457 -0.00109871 -0.00112538 -0.00115384 -0.00118209 -0.00120736 -0.00122668 -0.00123723 -0.00123649 -0.0012222 -0.00119213 -0.00114917 -0.00139216 -0.00131657 -0.0012227 -0.00110961 -0.000977068 -0.000825614 -0.00065654 -0.000472035 -0.000275376 -7.11806e-05 0.000134293 0.000332405 0.000577985 0.000766625 0.000928097 0.00105391 0.00113754 0.00117505 0.00116565 0.00111187 0.00101929 0.000895812 0.000750637 0.000597417 0.000678726 0.000519388 0.000371344 0.000238771 0.000124183 2.87796e-05 -4.72333e-05 -0.000104341 -0.00014346 -0.00016574 -0.00017242 -0.000164772 -0.000144109 -0.000111867 -0.00105247 -0.00108964 -0.00112513 -0.00115828 -0.00118769 -0.00121145 -0.00122745 -0.00123359 -0.00122795 -0.00120874 -0.00117419 -0.00112841 -0.00140062 -0.00132257 -0.00122757 -0.00111483 -0.000984081 -0.000835585 -0.000670292 -0.000490013 -0.000297683 -9.7666e-05 0.000103886 0.000298048 0.000539092 0.000727722 0.000889146 0.00101439 0.00109632 0.00113042 0.00111541 0.00105356 0.000950542 0.000814764 0.000656323 0.000490895 0.000597274 0.000426766 0.000269928 0.000131016 1.21733e-05 -8.58987e-05 -0.000163464 -0.000221397 -0.000260914 -0.000283396 -0.00029027 -0.000282979 -0.000262992 -0.000231876 -0.00103809 -0.00108747 -0.00113224 -0.00117153 -0.00120416 -0.00122865 -0.00124347 -0.0012471 -0.00123819 -0.00121549 -0.00117776 -0.00113033 -0.00143077 -0.0013514 -0.00125608 -0.00114422 -0.00101548 -0.000869905 -0.000708092 -0.000531441 -0.000342462 -0.000145155 5.45703e-05 0.00024753 0.000482372 0.000673869 0.000838125 0.000965591 0.0010484 0.00108122 0.00106204 0.000992712 0.000878903 0.000729503 0.000555619 0.000375192 0.000507632 0.000323121 0.000155017 7.52113e-06 -0.000117679 -0.000220419 -0.000301446 -0.000362026 -0.000403675 -0.000427994 -0.000436575 -0.000430983 -0.000412776 -0.000383579 -0.00104043 -0.00110124 -0.00115521 -0.00120127 -0.00123826 -0.00126496 -0.0012802 -0.00128294 -0.00127231 -0.00124756 -0.00120799 -0.00116006 -0.00148837 -0.00140883 -0.00131417 -0.00120388 -0.00107758 -0.00093509 -0.000776653 -0.000603214 -0.000416783 -0.000220867 -2.09543e-05 0.000173591 0.00040041 0.000597483 0.000767405 0.00090009 0.000986811 0.00102117 0.00100016 0.000924892 0.000800767 0.000637014 0.000445682 0.000247162 0.000407806 0.000206171 2.43398e-05 -0.000133917 -0.000267565 -0.000377046 -0.00046359 -0.000528827 -0.000574532 -0.000602483 -0.000614389 -0.000611885 -0.000596568 -0.000570074 -0.00106862 -0.00114015 -0.00120304 -0.00125602 -0.00129795 -0.00132775 -0.00134456 -0.0013477 -0.0013367 -0.00131128 -0.00127116 -0.00122389 -0.00158042 -0.00150199 -0.00140912 -0.00130136 -0.00117826 -0.0010394 -0.000884671 -0.000714524 -0.000530393 -0.000335147 -0.00013361 6.48916e-05 0.000282385 0.000487081 0.000665117 0.000806071 0.000900298 0.000940091 0.000921024 0.000842986 0.000710633 0.000533111 0.000323112 0.000103527 0.000295015 7.32987e-05 -0.000124347 -0.000295262 -0.000439366 -0.000557757 -0.000652096 -0.000724287 -0.000776277 -0.000809943 -0.000827042 -0.000829228 -0.000818096 -0.000795269 -0.00113234 -0.00121395 -0.00128535 -0.00134516 -0.00139223 -0.00142566 -0.00144482 -0.00144934 -0.00143914 -0.00141429 -0.00137491 -0.00132952 -0.00171528 -0.00163944 -0.00154981 -0.00144597 -0.00132736 -0.00119336 -0.00104348 -0.00087771 -0.000696828 -0.000502907 -0.000299787 -9.6322e-05 0.000112288 0.000325 0.000512463 0.000664382 0.000770251 0.000820816 0.000809708 0.000734851 0.000599302 0.0004113 0.000183486 -5.89523e-05 0.000164827 -7.86926e-05 -0.000293096 -0.000477896 -0.000634267 -0.000763899 -0.000868689 -0.000950618 -0.00101164 -0.0010536 -0.00107822 -0.00108711 -0.00108184 -0.00106401 -0.00124196 -0.00133305 -0.00141252 -0.00147892 -0.00153114 -0.00156846 -0.00159049 -0.00159719 -0.00158879 -0.0015657 -0.00152836 -0.00148619 -0.00190288 -0.00183145 -0.00174699 -0.00164911 -0.00153715 -0.00141034 -0.0012679 -0.00110937 -0.000934885 -0.000745596 -0.000543971 -0.000337665 -0.000133863 8.37591e-05 0.00027937 0.000443597 0.000565382 0.000633796 0.000639921 0.000578649 0.000450064 0.000260035 1.98303e-05 -0.000243797 9.31884e-06 -0.000254257 -0.00048378 -0.000682316 -0.000852375 -0.000995836 -0.00111436 -0.0012096 -0.00128322 -0.00133685 -0.00137205 -0.00139031 -0.00139316 -0.00138218 -0.00140858 -0.00150856 -0.00159564 -0.00166831 -0.00172557 -0.0017669 -0.00179221 -0.00180176 -0.00179612 -0.001776 -0.00174213 -0.00170476 -0.00215479 -0.00209013 -0.00201353 -0.00192464 -0.00182284 -0.0017073 -0.00157715 -0.00143166 -0.00127045 -0.00109371 -0.000902189 -0.000701297 -0.0004923 -0.000279455 -8.2199e-05 9.22665e-05 0.000233124 0.000328006 0.000364905 0.0003343 0.000231234 5.68182e-05 -0.000181352 -0.000456705 -0.000186657 -0.000460893 -0.000698819 -0.000908353 -0.00109271 -0.00125287 -0.0013893 -0.00150258 -0.0015936 -0.00166343 -0.0017133 -0.00174451 -0.00175849 -0.00175686 -0.001644 -0.00175225 -0.0018464 -0.00192498 -0.00198713 -0.00203257 -0.00206152 -0.00207462 -0.00207277 -0.002057 -0.00202833 -0.00199779 -0.00248426 -0.0024295 -0.00236452 -0.00228914 -0.00220297 -0.00210543 -0.00199588 -0.00187373 -0.0017385 -0.00158963 -0.00142605 -0.00124955 -0.00101771 -0.000830574 -0.000647697 -0.00047222 -0.00031302 -0.000182852 -9.69347e-05 -7.07339e-05 -0.00011705 -0.000243127 -0.000448754 -0.000711159 -0.000452575 -0.000713384 -0.000943849 -0.00115689 -0.0013543 -0.00153399 -0.00169344 -0.00183093 -0.00194571 -0.00203781 -0.0021078 -0.00215668 -0.00218575 -0.0021967 -0.00196046 -0.00207625 -0.00217691 -0.002261 -0.00232786 -0.00237753 -0.00241059 -0.00242808 -0.00243128 -0.00242159 -0.00240032 -0.0023793 -0.00290605 -0.00286545 -0.00281734 -0.00276203 -0.00269969 -0.00263053 -0.0025548 -0.00247284 -0.00238483 -0.00229022 -0.00218651 -0.00207034 -0.00179138 -0.00166826 -0.00153149 -0.00137728 -0.00120931 -0.00103822 -0.000881531 -0.000761853 -0.000703134 -0.000725841 -0.000842617 -0.0010413 -0.00084463 -0.00104269 -0.00123436 -0.00143468 -0.00163962 -0.00184021 -0.00202811 -0.00219725 -0.00234387 -0.00246605 -0.00256326 -0.00263591 -0.00268514 -0.00271269 -0.00237028 -0.00249276 -0.00259923 -0.0026884 -0.00275984 -0.00281394 -0.00285174 -0.00287472 -0.00288462 -0.00288326 -0.00287234 -0.00286449 -0.00343609 -0.00341528 -0.00339125 -0.00336519 -0.0033385 -0.00331297 -0.00329083 -0.00327463 -0.0032667 -0.00326792 -0.00327556 -0.00327966 -0.00292977 -0.00293288 -0.00289709 -0.00280712 -0.00265605 -0.00244769 -0.00219918 -0.00194033 -0.00170927 -0.00154531 -0.00148109 -0.00152662 -0.00146469 -0.0015118 -0.00160851 -0.00176401 -0.0019614 -0.00217934 -0.00239935 -0.00260774 -0.00279547 -0.00295724 -0.00309048 -0.00319457 -0.00327029 -0.00331943 -0.00288531 -0.00301342 -0.0031249 -0.00321864 -0.00329455 -0.00335344 -0.00339684 -0.00342679 -0.00344557 -0.00345551 -0.00345881 -0.003469 -0.00409064 -0.00409697 -0.00410653 -0.0041221 -0.00414721 -0.00418649 -0.00424574 -0.00433169 -0.00445104 -0.00460843 -0.00480304 -0.00501702 -0.0045893 -0.00480926 -0.00495866 -0.00500394 -0.00491953 -0.00469529 -0.00434292 -0.0038974 -0.00341248 -0.00295131 -0.00257437 -0.00233103 -0.00248282 -0.00223827 -0.00214623 -0.00219727 -0.00235318 -0.00257324 -0.00282276 -0.00307552 -0.00331345 -0.0035253 -0.00370492 -0.00384977 -0.00395983 -0.00403684 -0.0035162 -0.0036486 -0.00376412 -0.00386187 -0.00394218 -0.00400636 -0.00405653 -0.00409536 -0.00412579 -0.00415082 -0.00417332 -0.00420786 -0.00488513 -0.00492773 -0.00498295 -0.00505601 -0.00515388 -0.00528568 -0.00546298 -0.00569933 -0.0060088 -0.00640278 -0.00688512 -0.00742916 -0.00695941 -0.00751381 -0.00796274 -0.00824483 -0.0083059 -0.00811297 -0.00766532 -0.00699845 -0.00618026 -0.00530004 -0.00445252 -0.00374806 -0.00415009 -0.0034149 -0.00298928 -0.00283352 -0.00288165 -0.00306652 -0.00332949 -0.00362456 -0.00391883 -0.00419086 -0.00442815 -0.00462464 -0.00477868 -0.00489158 -0.00427144 -0.00440652 -0.00452488 -0.004626 -0.00471066 -0.00478078 -0.00483917 -0.00488923 -0.00493471 -0.00497945 -0.00502724 -0.00509386 -0.00583234 -0.00592207 -0.00603736 -0.00618711 -0.00638324 -0.00664151 -0.00698186 -0.00742783 -0.00800421 -0.00873226 -0.00962281 -0.0106396 -0.0102343 -0.0112569 -0.0121401 -0.0127833 -0.0130939 -0.0130076 -0.0125042 -0.0116136 -0.0104131 -0.00901586 -0.00755374 -0.00621897 -0.0067765 -0.00530967 -0.00435007 -0.00383005 -0.00365763 -0.00373516 -0.00397211 -0.00429344 -0.00464297 -0.00498247 -0.00528854 -0.00554879 -0.00575841 -0.0059176 -0.00515637 -0.00529219 -0.00541202 -0.00551573 -0.0056047 -0.00568151 -0.00574976 -0.00581374 -0.00587816 -0.00594791 -0.00602797 -0.0061356 -0.00694019 -0.00708909 -0.00728064 -0.00752868 -0.00785193 -0.00827507 -0.00882928 -0.00955123 -0.0104794 -0.011647 -0.0130724 -0.0147082 -0.0145589 -0.0161785 -0.0176288 -0.0187591 -0.0194312 -0.0195455 -0.0190583 -0.0179889 -0.0164175 -0.0144754 -0.0123285 -0.0102624 -0.010654 -0.00822486 -0.00649581 -0.00540131 -0.00484119 -0.0046928 -0.00482965 -0.0051384 -0.00552889 -0.00593674 -0.00632064 -0.00665727 -0.006936 -0.00715458 -0.0061721 -0.00630646 -0.00642614 -0.00653156 -0.00662471 -0.00670897 -0.00678881 -0.00686954 -0.00695698 -0.00705733 -0.00717708 -0.00733523 -0.00820916 -0.00842956 -0.00871401 -0.00908269 -0.00956283 -0.0101903 -0.01101 -0.0120743 -0.013437 -0.0151432 -0.0172157 -0.0195935 -0.0199589 -0.0222738 -0.0243917 -0.0261053 -0.0272303 -0.0276342 -0.027253 -0.026095 -0.0242385 -0.0218242 -0.0190449 -0.0162703 -0.0159443 -0.0124156 -0.00970172 -0.00779788 -0.00663599 -0.00609179 -0.00601022 -0.00623506 -0.00663151 -0.00709721 -0.00756302 -0.00798764 -0.00835032 -0.00864409 -0.00731465 -0.00744512 -0.00756291 -0.00766899 -0.00776607 -0.00785838 -0.00795138 -0.00805147 -0.00816578 -0.00830203 -0.00846853 -0.00868629 -0.0096299 -0.00993306 -0.0103257 -0.0108354 -0.0114996 -0.0123669 -0.0134978 -0.0149612 -0.016826 -0.0191461 -0.0219419 -0.0251342 -0.0262856 -0.0293416 -0.0321685 -0.0345028 -0.0361214 -0.0368699 -0.0366738 -0.035537 -0.0335354 -0.0308117 -0.0275722 -0.0242344 -0.0225941 -0.0179963 -0.0141772 -0.011259 -0.00926421 -0.00811278 -0.00764764 -0.00767717 -0.00801595 -0.00851151 -0.00905432 -0.00957519 -0.0100366 -0.0104233 -0.00857434 -0.00869845 -0.00881248 -0.00891804 -0.00901859 -0.00911924 -0.00922649 -0.00934794 -0.00949214 -0.00966849 -0.00988743 -0.0101721 -0.0111815 -0.0115759 -0.0120883 -0.0127546 -0.0136232 -0.0147563 -0.0162302 -0.01813 -0.0205365 -0.023507 -0.0270506 -0.0310633 -0.0332092 -0.036992 -0.0404991 -0.0434204 -0.0455078 -0.0466009 -0.0466298 -0.0456049 -0.0436043 -0.0407673 -0.0372979 -0.0336024 -0.0303231 -0.024868 -0.0199776 -0.0159369 -0.0129147 -0.0109348 -0.00988615 -0.00956873 -0.00975228 -0.0102262 -0.0108274 -0.0114462 -0.0120191 -0.0125169 -0.00993582 -0.0100512 -0.0101596 -0.0102634 -0.0103666 -0.0104754 -0.0105972 -0.0107409 -0.0109165 -0.0111352 -0.0114097 -0.0117654 -0.012831 -0.0133207 -0.0139584 -0.0147888 -0.0158711 -0.0172811 -0.0191098 -0.0214556 -0.0244072 -0.0280183 -0.0322775 -0.0370503 -0.0402774 -0.0447185 -0.0488179 -0.052233 -0.0547076 -0.0560911 -0.056333 -0.0554621 -0.0535653 -0.0507771 -0.0472835 -0.0434221 -0.0386667 -0.0326895 -0.0269288 -0.0218096 -0.0176675 -0.0146814 -0.0128473 -0.0120048 -0.0119036 -0.0122779 -0.012901 -0.0136091 -0.0143014 -0.0149271 -0.0113786 -0.0114832 -0.0115843 -0.0116849 -0.0117897 -0.0119057 -0.0120412 -0.0122065 -0.0124128 -0.0126733 -0.013003 -0.0134292 -0.0145346 -0.0151176 -0.0158783 -0.0168698 -0.0181614 -0.0198411 -0.0220121 -0.0247827 -0.0282445 -0.0324413 -0.0373352 -0.0427568 -0.0470132 -0.0520074 -0.0565769 -0.0603624 -0.0631133 -0.064701 -0.0651032 -0.0643751 -0.062619 -0.0599672 -0.0565799 -0.0526962 -0.0470431 -0.0409088 -0.0346048 -0.0286182 -0.0234176 -0.0193535 -0.0165805 -0.0150392 -0.0145054 -0.0146786 -0.0152677 -0.0160438 -0.0168559 -0.0176225 -0.0128783 -0.0129706 -0.0130631 -0.0131591 -0.0132641 -0.0133855 -0.0135327 -0.0137168 -0.0139505 -0.0142487 -0.0146286 -0.0151192 -0.016241 -0.0169081 -0.0177804 -0.0189182 -0.0203997 -0.0223226 -0.0247995 -0.0279445 -0.0318479 -0.0365399 -0.0419539 -0.0478856 -0.0530064 -0.0584308 -0.0633418 -0.0673754 -0.070295 -0.0719975 -0.0724915 -0.0718607 -0.0702274 -0.0677272 -0.0644983 -0.0606896 -0.0548468 -0.0488667 -0.0423929 -0.0358763 -0.0298406 -0.0247744 -0.0210102 -0.0186442 -0.0175379 -0.0173968 -0.0178801 -0.0186895 -0.0196131 -0.020528 -0.0144085 -0.0144878 -0.0145707 -0.014661 -0.0147643 -0.0148886 -0.0150439 -0.0152419 -0.0154967 -0.0158245 -0.0162447 -0.0167875 -0.0178953 -0.01863 -0.0195932 -0.0208511 -0.022489 -0.0246114 -0.0273373 -0.0307832 -0.0350352 -0.0401093 -0.0459127 -0.0522097 -0.0579654 -0.0636953 -0.0688322 -0.0730139 -0.0760185 -0.0777662 -0.0782919 -0.0777055 -0.0761507 -0.073773 -0.070701 -0.0670285 -0.0615612 -0.0559452 -0.0496337 -0.042966 -0.0364314 -0.0305839 -0.0259069 -0.0226774 -0.0208993 -0.0203387 -0.020637 -0.0214347 -0.0224521 -0.0235162 -0.0159429 -0.0160094 -0.0160826 -0.0161661 -0.0162658 -0.0163896 -0.0165477 -0.0167525 -0.0170188 -0.0173643 -0.0178098 -0.0183864 -0.0194441 -0.020223 -0.0212481 -0.0225902 -0.0243394 -0.0266049 -0.0295086 -0.0331674 -0.037662 -0.0429964 -0.0490572 -0.0555839 -0.0617247 -0.0676446 -0.0729131 -0.0771714 -0.0802086 -0.0819599 -0.0824792 -0.0818968 -0.080376 -0.078078 -0.0751362 -0.0716293 -0.0668474 -0.0616936 -0.0557728 -0.0492824 -0.0426107 -0.0362935 -0.0309007 -0.0268737 -0.0243911 -0.0233349 -0.0233745 -0.0241104 -0.0251973 -0.0264049 -0.0174575 -0.0175126 -0.0175766 -0.0176528 -0.0177467 -0.0178659 -0.0180202 -0.0182224 -0.0184877 -0.0188348 -0.019286 -0.0198726 -0.0208403 -0.0216338 -0.0226853 -0.0240687 -0.025877 -0.0282217 -0.0312255 -0.0350039 -0.0396331 -0.0451084 -0.0513038 -0.0579419 -0.0642277 -0.0702377 -0.0755646 -0.0798531 -0.0828961 -0.0846351 -0.0851335 -0.0845346 -0.0830183 -0.0807632 -0.0779182 -0.074577 -0.0705685 -0.06588 -0.0604543 -0.0543587 -0.0478516 -0.041386 -0.0355409 -0.0308707 -0.0277255 -0.0261418 -0.0258662 -0.0264924 -0.0276208 -0.0289617 -0.0189325 -0.0189788 -0.019035 -0.0191039 -0.0191898 -0.0192996 -0.0194423 -0.0196303 -0.0198792 -0.0202084 -0.0206417 -0.0212103 -0.0220461 -0.0228203 -0.0238586 -0.0252368 -0.0270491 -0.0294077 -0.0324345 -0.0362428 -0.0409055 -0.0464138 -0.0526363 -0.0592878 -0.0655039 -0.0715225 -0.0768521 -0.0811411 -0.08418 -0.0859078 -0.0863885 -0.0857712 -0.0842472 -0.0820112 -0.0792317 -0.0760327 -0.0727546 -0.0684687 -0.0635352 -0.0579242 -0.0517708 -0.0454135 -0.0393775 -0.0342622 -0.0305544 -0.0284565 -0.027833 -0.0283095 -0.0294517 -0.0309139 -0.0203542 -0.0203953 -0.0204462 -0.0205083 -0.0205842 -0.0206792 -0.020801 -0.0209613 -0.0211758 -0.0214647 -0.0218532 -0.0223725 -0.023035 -0.0237534 -0.0247374 -0.0260638 -0.027827 -0.0301382 -0.0331178 -0.0368767 -0.0414857 -0.0469358 -0.0530972 -0.059685 -0.0656486 -0.0716139 -0.0769046 -0.0811742 -0.0842071 -0.0859333 -0.0864097 -0.0857844 -0.0842537 -0.0820243 -0.0792828 -0.0761861 -0.0735461 -0.0695623 -0.0650417 -0.0598947 -0.0541595 -0.0480597 -0.0420305 -0.0366572 -0.0325109 -0.0299439 -0.0289616 -0.0292582 -0.0303895 -0.0319615 -0.0217153 -0.0217566 -0.0218057 -0.0218621 -0.021926 -0.0220001 -0.0220904 -0.0222076 -0.0223672 -0.0225908 -0.0229052 -0.0233423 -0.0237923 -0.024418 -0.0253076 -0.0265385 -0.0282047 -0.030416 -0.03329 -0.0369353 -0.0414218 -0.0467431 -0.052776 -0.0592435 -0.0648073 -0.0706759 -0.0758983 -0.0801351 -0.0831635 -0.0849002 -0.0853894 -0.0847715 -0.0832421 -0.0810133 -0.0782839 -0.0752383 -0.0731416 -0.0693423 -0.0651097 -0.0603258 -0.0549636 -0.0491519 -0.0432282 -0.0377254 -0.0332475 -0.0302637 -0.0289232 -0.0290166 -0.0301156 -0.0317891 -0.0230162 -0.0230644 -0.0231166 -0.023169 -0.0232186 -0.0232648 -0.0233113 -0.0233676 -0.0234498 -0.0235808 -0.0237905 -0.0241118 -0.0243141 -0.0248112 -0.0255697 -0.0266673 -0.0281974 -0.0302674 -0.0329923 -0.0364777 -0.0407936 -0.0459375 -0.051796 -0.0581063 -0.0631591 -0.0689058 -0.0740425 -0.078239 -0.0812661 -0.0830252 -0.0835441 -0.0829498 -0.0814307 -0.0791976 -0.0764537 -0.0734 -0.0717632 -0.0680242 -0.0639302 -0.059356 -0.0542382 -0.0486381 -0.0428085 -0.0372157 -0.0324604 -0.0290911 -0.0273884 -0.027255 -0.0283015 -0.0300716 -0.024265 -0.0243289 -0.02439 -0.0244406 -0.0244731 -0.0244828 -0.0244709 -0.0244459 -0.0244253 -0.024435 -0.0245086 -0.0246816 -0.0246054 -0.0249415 -0.0255374 -0.0264715 -0.0278364 -0.0297371 -0.0322851 -0.0355834 -0.0397013 -0.044641 -0.0503005 -0.0564353 -0.0609017 -0.0665171 -0.0715627 -0.0757183 -0.0787497 -0.0805431 -0.081107 -0.0805507 -0.0790491 -0.0768047 -0.0740167 -0.0708898 -0.0696336 -0.0658277 -0.0617099 -0.057159 -0.052097 -0.0465451 -0.0406944 -0.0349506 -0.0298944 -0.0261246 -0.0240328 -0.0236383 -0.0246086 -0.0264733 -0.0254777 -0.0255684 -0.025646 -0.0256971 -0.0257083 -0.0256703 -0.0255816 -0.0254515 -0.0253001 -0.0251581 -0.0250646 -0.0250588 -0.0246791 -0.0248261 -0.0252347 -0.025984 -0.