# vtk DataFile Version 2.0
Presion
ASCII

DATASET STRUCTURED_GRID
DIMENSIONS   50   50   20

POINTS   50000   double
0.00568455   0.00568455   0.025
0.0174023   0.00568455   0.025
0.0298294   0.00568455   0.025
0.0429888   0.00568455   0.025
0.0569012   0.00568455   0.025
0.0715849   0.00568455   0.025
0.0870549   0.00568455   0.025
0.103323   0.00568455   0.025
0.120395   0.00568455   0.025
0.138275   0.00568455   0.025
0.156961   0.00568455   0.025
0.176443   0.00568455   0.025
0.196707   0.00568455   0.025
0.217734   0.00568455   0.025
0.239496   0.00568455   0.025
0.261959   0.00568455   0.025
0.285082   0.00568455   0.025
0.308818   0.00568455   0.025
0.333113   0.00568455   0.025
0.357906   0.00568455   0.025
0.383132   0.00568455   0.025
0.408719   0.00568455   0.025
0.434592   0.00568455   0.025
0.460672   0.00568455   0.025
0.486877   0.00568455   0.025
0.513123   0.00568455   0.025
0.539328   0.00568455   0.025
0.565408   0.00568455   0.025
0.591281   0.00568455   0.025
0.616868   0.00568455   0.025
0.642094   0.00568455   0.025
0.666887   0.00568455   0.025
0.691182   0.00568455   0.025
0.714918   0.00568455   0.025
0.738041   0.00568455   0.025
0.760504   0.00568455   0.025
0.782266   0.00568455   0.025
0.803293   0.00568455   0.025
0.823557   0.00568455   0.025
0.843039   0.00568455   0.025
0.861725   0.00568455   0.025
0.879605   0.00568455   0.025
0.896677   0.00568455   0.025
0.912945   0.00568455   0.025
0.928415   0.00568455   0.025
0.943099   0.00568455   0.025
0.957011   0.00568455   0.025
0.970171   0.00568455   0.025
0.982598   0.00568455   0.025
0.994315   0.00568455   0.025
0.00568455   0.0174023   0.025
0.0174023   0.0174023   0.025
0.0298294   0.0174023   0.025
0.0429888   0.0174023   0.025
0.0569012   0.0174023   0.025
0.0715849   0.0174023   0.025
0.0870549   0.0174023   0.025
0.103323   0.0174023   0.025
0.120395   0.0174023   0.025
0.138275   0.0174023   0.025
0.156961   0.0174023   0.025
0.176443   0.0174023   0.025
0.196707   0.0174023   0.025
0.217734   0.0174023   0.025
0.239496   0.0174023   0.025
0.261959   0.0174023   0.025
0.285082   0.0174023   0.025
0.308818   0.0174023   0.025
0.333113   0.0174023   0.025
0.357906   0.0174023   0.025
0.383132   0.0174023   0.025
0.408719   0.0174023   0.025
0.434592   0.0174023   0.025
0.460672   0.0174023   0.025
0.486877   0.0174023   0.025
0.513123   0.0174023   0.025
0.539328   0.0174023   0.025
0.565408   0.0174023   0.025
0.591281   0.0174023   0.025
0.616868   0.0174023   0.025
0.642094   0.0174023   0.025
0.666887   0.0174023   0.025
0.691182   0.0174023   0.025
0.714918   0.0174023   0.025
0.738041   0.0174023   0.025
0.760504   0.0174023   0.025
0.782266   0.0174023   0.025
0.803293   0.0174023   0.025
0.823557   0.0174023   0.025
0.843039   0.0174023   0.025
0.861725   0.0174023   0.025
0.879605   0.0174023   0.025
0.896677   0.0174023   0.025
0.912945   0.0174023   0.025
0.928415   0.0174023   0.025
0.943099   0.0174023   0.025
0.957011   0.0174023   0.025
0.970171   0.0174023   0.025
0.982598   0.0174023   0.025
0.994315   0.0174023   0.025
0.00568455   0.0298294   0.025
0.0174023   0.0298294   0.025
0.0298294   0.0298294   0.025
0.0429888   0.0298294   0.025
0.0569012   0.0298294   0.025
0.0715849   0.0298294   0.025
0.0870549   0.0298294   0.025
0.103323   0.0298294   0.025
0.120395   0.0298294   0.025
0.138275   0.0298294   0.025
0.156961   0.0298294   0.025
0.176443   0.0298294   0.025
0.196707   0.0298294   0.025
0.217734   0.0298294   0.025
0.239496   0.0298294   0.025
0.261959   0.0298294   0.025
0.285082   0.0298294   0.025
0.308818   0.0298294   0.025
0.333113   0.0298294   0.025
0.357906   0.0298294   0.025
0.383132   0.0298294   0.025
0.408719   0.0298294   0.025
0.434592   0.0298294   0.025
0.460672   0.0298294   0.025
0.486877   0.0298294   0.025
0.513123   0.0298294   0.025
0.539328   0.0298294   0.025
0.565408   0.0298294   0.025
0.591281   0.0298294   0.025
0.616868   0.0298294   0.025
0.642094   0.0298294   0.025
0.666887   0.0298294   0.025
0.691182   0.0298294   0.025
0.714918   0.0298294   0.025
0.738041   0.0298294   0.025
0.760504   0.0298294   0.025
0.782266   0.0298294   0.025
0.803293   0.0298294   0.025
0.823557   0.0298294   0.025
0.843039   0.0298294   0.025
0.861725   0.0298294   0.025
0.879605   0.0298294   0.025
0.896677   0.0298294   0.025
0.912945   0.0298294   0.025
0.928415   0.0298294   0.025
0.943099   0.0298294   0.025
0.957011   0.0298294   0.025
0.970171   0.0298294   0.025
0.982598   0.0298294   0.025
0.994315   0.0298294   0.025
0.00568455   0.0429888   0.025
0.0174023   0.0429888   0.025
0.0298294   0.0429888   0.025
0.0429888   0.0429888   0.025
0.0569012   0.0429888   0.025
0.0715849   0.0429888   0.025
0.0870549   0.0429888   0.025
0.103323   0.0429888   0.025
0.120395   0.0429888   0.025
0.138275   0.0429888   0.025
0.156961   0.0429888   0.025
0.176443   0.0429888   0.025
0.196707   0.0429888   0.025
0.217734   0.0429888   0.025
0.239496   0.0429888   0.025
0.261959   0.0429888   0.025
0.285082   0.0429888   0.025
0.308818   0.0429888   0.025
0.333113   0.0429888   0.025
0.357906   0.0429888   0.025
0.383132   0.0429888   0.025
0.408719   0.0429888   0.025
0.434592   0.0429888   0.025
0.460672   0.0429888   0.025
0.486877   0.0429888   0.025
0.513123   0.0429888   0.025
0.539328   0.0429888   0.025
0.565408   0.0429888   0.025
0.591281   0.0429888   0.025
0.616868   0.0429888   0.025
0.642094   0.0429888   0.025
0.666887   0.0429888   0.025
0.691182   0.0429888   0.025
0.714918   0.0429888   0.025
0.738041   0.0429888   0.025
0.760504   0.0429888   0.025
0.782266   0.0429888   0.025
0.803293   0.0429888   0.025
0.823557   0.0429888   0.025
0.843039   0.0429888   0.025
0.861725   0.0429888   0.025
0.879605   0.0429888   0.025
0.896677   0.0429888   0.025
0.912945   0.0429888   0.025
0.928415   0.0429888   0.025
0.943099   0.0429888   0.025
0.957011   0.0429888   0.025
0.970171   0.0429888   0.025
0.982598   0.0429888   0.025
0.994315   0.0429888   0.025
0.00568455   0.0569012   0.025
0.0174023   0.0569012   0.025
0.0298294   0.0569012   0.025
0.0429888   0.0569012   0.025
0.0569012   0.0569012   0.025
0.0715849   0.0569012   0.025
0.0870549   0.0569012   0.025
0.103323   0.0569012   0.025
0.120395   0.0569012   0.025
0.138275   0.0569012   0.025
0.156961   0.0569012   0.025
0.176443   0.0569012   0.025
0.196707   0.0569012   0.025
0.217734   0.0569012   0.025
0.239496   0.0569012   0.025
0.261959   0.0569012   0.025
0.285082   0.0569012   0.025
0.308818   0.0569012   0.025
0.333113   0.0569012   0.025
0.357906   0.0569012   0.025
0.383132   0.0569012   0.025
0.408719   0.0569012   0.025
0.434592   0.0569012   0.025
0.460672   0.0569012   0.025
0.486877   0.0569012   0.025
0.513123   0.0569012   0.025
0.539328   0.0569012   0.025
0.565408   0.0569012   0.025
0.591281   0.0569012   0.025
0.616868   0.0569012   0.025
0.642094   0.0569012   0.025
0.666887   0.0569012   0.025
0.691182   0.0569012   0.025
0.714918   0.0569012   0.025
0.738041   0.0569012   0.025
0.760504   0.0569012   0.025
0.782266   0.0569012   0.025
0.803293   0.0569012   0.025
0.823557   0.0569012   0.025
0.843039   0.0569012   0.025
0.861725   0.0569012   0.025
0.879605   0.0569012   0.025
0.896677   0.0569012   0.025
0.912945   0.0569012   0.025
0.928415   0.0569012   0.025
0.943099   0.0569012   0.025
0.957011   0.0569012   0.025
0.970171   0.0569012   0.025
0.982598   0.0569012   0.025
0.994315   0.0569012   0.025
0.00568455   0.0715849   0.025
0.0174023   0.0715849   0.025
0.0298294   0.0715849   0.025
0.0429888   0.0715849   0.025
0.0569012   0.0715849   0.025
0.0715849   0.0715849   0.025
0.0870549   0.0715849   0.025
0.103323   0.0715849   0.025
0.120395   0.0715849   0.025
0.138275   0.0715849   0.025
0.156961   0.0715849   0.025
0.176443   0.0715849   0.025
0.196707   0.0715849   0.025
0.217734   0.0715849   0.025
0.239496   0.0715849   0.025
0.261959   0.0715849   0.025
0.285082   0.0715849   0.025
0.308818   0.0715849   0.025
0.333113   0.0715849   0.025
0.357906   0.0715849   0.025
0.383132   0.0715849   0.025
0.408719   0.0715849   0.025
0.434592   0.0715849   0.025
0.460672   0.0715849   0.025
0.486877   0.0715849   0.025
0.513123   0.0715849   0.025
0.539328   0.0715849   0.025
0.565408   0.0715849   0.025
0.591281   0.0715849   0.025
0.616868   0.0715849   0.025
0.642094   0.0715849   0.025
0.666887   0.0715849   0.025
0.691182   0.0715849   0.025
0.714918   0.0715849   0.025
0.738041   0.0715849   0.025
0.760504   0.0715849   0.025
0.782266   0.0715849   0.025
0.803293   0.0715849   0.025
0.823557   0.0715849   0.025
0.843039   0.0715849   0.025
0.861725   0.0715849   0.025
0.879605   0.0715849   0.025
0.896677   0.0715849   0.025
0.912945   0.0715849   0.025
0.928415   0.0715849   0.025
0.943099   0.0715849   0.025
0.957011   0.0715849   0.025
0.970171   0.0715849   0.025
0.982598   0.0715849   0.025
0.994315   0.0715849   0.025
0.00568455   0.0870549   0.025
0.0174023   0.0870549   0.025
0.0298294   0.0870549   0.025
0.0429888   0.0870549   0.025
0.0569012   0.0870549   0.025
0.0715849   0.0870549   0.025
0.0870549   0.0870549   0.025
0.103323   0.0870549   0.025
0.120395   0.0870549   0.025
0.138275   0.0870549   0.025
0.156961   0.0870549   0.025
0.176443   0.0870549   0.025
0.196707   0.0870549   0.025
0.217734   0.0870549   0.025
0.239496   0.0870549   0.025
0.261959   0.0870549   0.025
0.285082   0.0870549   0.025
0.308818   0.0870549   0.025
0.333113   0.0870549   0.025
0.357906   0.0870549   0.025
0.383132   0.0870549   0.025
0.408719   0.0870549   0.025
0.434592   0.0870549   0.025
0.460672   0.0870549   0.025
0.486877   0.0870549   0.025
0.513123   0.0870549   0.025
0.539328   0.0870549   0.025
0.565408   0.0870549   0.025
0.591281   0.0870549   0.025
0.616868   0.0870549   0.025
0.642094   0.0870549   0.025
0.666887   0.0870549   0.025
0.691182   0.0870549   0.025
0.714918   0.0870549   0.025
0.738041   0.0870549   0.025
0.760504   0.0870549   0.025
0.782266   0.0870549   0.025
[...]
POINT_DATA   50000
SCALARS Presion double
LOOKUP_TABLE   Presion

0 0 0 0 0 0 0 0 0 0 0 0 0 0 0 0 0 0 0 0 0 0 0 0 0 0 0 0 0 0 0 0 0 0 0 0 0 0 0 0 0 0 0 0 0 0 0 0 0 0 0.00146265 0.00159093 0.00174506 0.00185552 0.00191017 0.00191057 0.00186119 0.00176677 0.00163161 0.00145917 0.00125192 0.00101057 0.000601184 0.000360872 0.000149298 -3.24922e-05 -0.000180781 -0.000288821 -0.00034844 -0.000352144 -0.000295291 -0.000177945 -5.82627e-06 0.0002098 0.000439724 0.00066526 0.000857516 0.000991924 0.00104882 0.00101546 0.000887622 0.000670258 0.000377252 3.03258e-05 -0.000342759 -0.000709565 -0.000945046 -0.00128698 -0.00160612 -0.0018856 -0.00211515 -0.00228912 -0.00240458 -0.00246012 -0.00245503 -0.00238892 -0.00226197 -0.00207762 -0.00185524 -0.00168213 0.00192438 0.00191311 0.00195497 0.00199745 0.00201488 0.00199692 0.00194068 0.0018466 0.00171666 0.0015535 0.00136057 0.00114083 0.000673624 0.000457218 0.000257916 8.1491e-05 -6.62006e-05 -0.000177779 -0.000245112 -0.000260952 -0.000220824 -0.000124711 2.1967e-05 0.000206886 0.000411561 0.000608375 0.000773798 0.000884621 0.000922318 0.000874996 0.000738893 0.000518993 0.000228604 -0.000112064 -0.00047839 -0.000842165 -0.00101045 -0.00134992 -0.00165914 -0.00192689 -0.00214594 -0.00231249 -0.00242518 -0.0024844 -0.00249213 -0.00245249 -0.00237351 -0.00227165 -0.00218106 -0.00216728 0.00224019 0.00219407 0.00217892 0.00217198 0.0021547 0.00211544 0.00204822 0.00195073 0.00182305 0.00166693 0.001486 0.00128257 0.000749262 0.000553081 0.000364871 0.000192305 4.26578e-05 -7.60472e-05 -0.000155457 -0.000188173 -0.000169382 -9.84424e-05 1.99501e-05 0.000172417 0.000355928 0.000529484 0.000674784 0.000769532 0.000795378 0.000740138 0.000599525 0.000377894 8.77817e-05 -0.00025181 -0.000618346 -0.000984939 -0.00108166 -0.00142358 -0.00172827 -0.00198884 -0.00220126 -0.00236397 -0.00247743 -0.00254388 -0.00256745 -0.0025549 -0.00251695 -0.00247042 -0.00243979 -0.00245431 0.00250443 0.00244884 0.00240512 0.00236575 0.00232071 0.00226135 0.0021817 0.00207845 0.00195052 0.00179885 0.00162674 0.00143472 0.000829999 0.000648683 0.000468047 0.000295923 0.000140183 9.31747e-06 -8.79246e-05 -0.000143585 -0.000151946 -0.000111074 -2.42541e-05 9.4735e-05 0.000258951 0.000414798 0.000546919 0.000633644 0.000655928 0.000600202 0.000460608 0.000240079 -5.00015e-05 -0.000391678 -0.000763606 -0.00113831 -0.00116262 -0.00151107 -0.00181567 -0.00207318 -0.00228268 -0.00244488 -0.00256198 -0.00263764 -0.00267713 -0.00268769 -0.00267903 -0.00266336 -0.00265415 -0.0026619 0.00275989 0.00269606 0.00263423 0.00257249 0.00250601 0.00242927 0.00233745 0.00222724 0.00209699 0.00194698 0.00177989 0.00159394 0.000914993 0.000741892 0.00056308 0.000385714 0.000217619 6.75194e-05 -5.5301e-05 -0.000141905 -0.00018503 -0.000180667 -0.000129766 -4.5505e-05 9.98631e-05 0.000242909 0.000368754 0.000456138 0.000484512 0.000437833 0.000307502 9.40177e-05 -0.000193064 -0.000536962 -0.000916952 -0.00130361 -0.00125776 -0.00161577 -0.00192352 -0.00218135 -0.00239123 -0.00255589 -0.00267888 -0.00276466 -0.00281866 -0.00284731 -0.00285794 -0.00285822 -0.00285479 -0.00285113 0.00302329 0.00294652 0.00286844 0.00278871 0.00270488 0.0026133 0.00251022 0.00239248 0.00225809 0.00210669 0.00194018 0.00175417 0.00100029 0.000827334 0.000642293 0.000451366 0.000261931 8.27792e-05 -7.61216e-05 -0.000204405 -0.000292565 -0.000333613 -0.000325068 -0.000278319 -0.000151223 -1.77469e-05 0.000108262 0.00020569 0.000251701 0.00022662 0.000117752 -7.82015e-05 -0.000354602 -0.000696415 -0.00108342 -0.00148331 -0.00137282 -0.00174145 -0.00205389 -0.00231437 -0.00252737 -0.00269714 -0.00282799 -0.00292454 -0.00299173 -0.0030347 -0.00305855 -0.00306788 -0.0030661 -0.00305462 0.0032977 0.00320259 0.00310678 0.00301013 0.00291091 0.00280621 0.00269261 0.00256685 0.00242643 0.00227018 0.002099 0.00190571 0.00107792 0.000895282 0.000693415 0.000477536 0.000254395 3.28014e-05 -0.00017639 -0.000360886 -0.000508179 -0.000607321 -0.00065117 -0.000648032 -0.000536295 -0.000412221 -0.000280746 -0.000163235 -8.56103e-05 -7.2431e-05 -0.000142142 -0.000303657 -0.000554929 -0.000883857 -0.00127119 -0.00168135 -0.00151581 -0.00189268 -0.00220883 -0.00247282 -0.00269109 -0.0028685 -0.00300935 -0.00311782 -0.00319797 -0.00325368 -0.00328843 -0.0033051 -0.00330579 -0.00329166 0.00357754 0.00345932 0.00334331 0.00322921 0.00311517 0.00299811 0.00287422 0.00273958 0.00259076 0.00242545 0.00224323 0.00203401 0.00113464 0.000930313 0.000698103 0.000442285 0.000168953 -0.000113001 -0.000391549 -0.000651921 -0.000877797 -0.00105324 -0.00116514 -0.00121732 -0.00111324 -0.00100321 -0.000863134 -0.000715201 -0.000589182 -0.000515888 -0.000521492 -0.000622911 -0.000825108 -0.00112093 -0.00149335 -0.00190387 -0.00169869 -0.00207567 -0.00239078 -0.00265719 -0.00288211 -0.00306976 -0.00322337 -0.00334597 -0.00344049 -0.00350964 -0.00355582 -0.00358108 -0.00358709 -0.00357526 0.00385012 0.00370486 0.00356625 0.00343363 0.00330457 0.00317514 0.00304047 0.00289536 0.00273492 0.00255523 0.00235414 0.00211857 0.00115048 0.000909827 0.00063036 0.000315415 -2.9538e-05 -0.000395368 -0.000768509 -0.00113111 -0.0014622 -0.00173975 -0.00194344 -0.00207092 -0.00196021 -0.00187569 -0.00172755 -0.00153941 -0.00134552 -0.00118429 -0.00109189 -0.00109621 -0.00121252 -0.00144167 -0.00177119 -0.00216114 -0.00194006 -0.00229997 -0.00260376 -0.00286869 -0.00310066 -0.00330124 -0.00347116 -0.00361143 -0.00372343 -0.00380874 -0.00386896 -0.0039057 -0.00392063 -0.00391547 0.00409575 0.00392048 0.00375732 0.00360513 0.00346049 0.00331808 0.00317137 0.00301324 0.00283676 0.0026359 0.00240625 0.00213172 0.0010973 0.000802605 0.000455052 5.69366e-05 -0.000386873 -0.000866796 -0.00136731 -0.00186684 -0.00233885 -0.00275412 -0.00308388 -0.00331759 -0.00317977 -0.00314099 -0.00299093 -0.00275497 -0.00247198 -0.00218914 -0.00195489 -0.0018115 -0.00178869 -0.00189958 -0.00213993 -0.00247179 -0.0022697 -0.00258167 -0.00285585 -0.00311122 -0.00334883 -0.00356472 -0.00375514 -0.00391785 -0.00405203 -0.00415787 -0.00423622 -0.0042884 -0.00431613 -0.00432148 0.00428744 0.00408022 0.00389128 0.00371875 0.00355784 0.00340137 0.0032405 0.00306565 0.00286727 0.00263663 0.00236653 0.00203779 0.000937676 0.000567713 0.000126851 -0.000383936 -0.000960401 -0.0015923 -0.0022617 -0.00294257 -0.00360185 -0.00420197 -0.00470444 -0.00508803 -0.00490094 -0.00493818 -0.00480006 -0.00451311 -0.00412037 -0.0036782 -0.00324907 -0.00289299 -0.00265882 -0.00257741 -0.00265799 -0.00287082 -0.00273559 -0.00294899 -0.00316364 -0.00339472 -0.00363304 -0.00386521 -0.00408026 -0.00427093 -0.00443316 -0.0045652 -0.0046669 -0.00473921 -0.00478386 -0.00480323 0.00439069 0.00415079 0.00393565 0.00374245 0.00356458 0.00339246 0.00321445 0.0030179 0.00279009 0.002519 0.00219405 0.00179296 0.000624383 0.0001542 -0.000409893 -0.00106866 -0.00181857 -0.0026485 -0.00353756 -0.00445445 -0.00535845 -0.00620231 -0.00693661 -0.00752609 -0.00727594 -0.00742919 -0.00732609 -0.00699238 -0.00647368 -0.00583467 -0.00515242 -0.00450703 -0.00397092 -0.00359872 -0.00341999 -0.0034232 -0.0034134 -0.00345072 -0.00355919 -0.00374044 -0.00396786 -0.00421355 -0.00445574 -0.00467966 -0.00487635 -0.00504113 -0.00517227 -0.00527005 -0.00533609 -0.00537298 0.00436388 0.00409194 0.00385118 0.00363745 0.00344191 0.00325208 0.00305299 0.00282839 0.00256185 0.00223751 0.00184073 0.00134604 0.000101169 -0.000497848 -0.00121969 -0.00206738 -0.00303822 -0.00411991 -0.00528795 -0.00650467 -0.00772031 -0.00887635 -0.00991097 -0.010771 -0.0104675 -0.0107834 -0.0107476 -0.0103814 -0.00973017 -0.0088644 -0.007874 -0.00685937 -0.00591929 -0.0051377 -0.00457209 -0.00424361 -0.00441654 -0.00416678 -0.0040989 -0.00418756 -0.00438059 -0.0046296 -0.00489734 -0.00515794 -0.00539505 -0.00559939 -0.00576667 -0.00589591 -0.00598836 -0.0060467 0.00415959 0.00385785 0.00359309 0.00335949 0.00314557 0.00293547 0.0027104 0.00245007 0.00213379 0.0017413 0.0012533 0.000640898 -0.000694694 -0.00145422 -0.00237214 -0.00345428 -0.00469874 -0.00609157 -0.00760365 -0.00918951 -0.0107885 -0.012329 -0.0137348 -0.0149308 -0.0146229 -0.0151486 -0.0152185 -0.0148454 -0.0140704 -0.012965 -0.0116277 -0.0101759 -0.00873436 -0.00741937 -0.00632342 -0.00551838 -0.00590097 -0.00521698 -0.00487161 -0.00479958 -0.00491596 -0.0051455 -0.00542949 -0.00572606 -0.00600771 -0.00625798 -0.00646839 -0.00663578 -0.0067605 -0.00684509 0.00372713 0.00339958 0.00311359 0.00286134 0.00262831 0.00239489 0.0021381 0.00183316 0.00145472 0.000977586 0.000377164 -0.000379268 -0.00182749 -0.00278098 -0.00393542 -0.00529974 -0.00687258 -0.00863745 -0.0105591 -0.0125823 -0.0146332 -0.0166246 -0.0184641 -0.0200512 -0.0198349 -0.0206091 -0.0208239 -0.0204794 -0.019608 -0.0182765 -0.0165848 -0.0146608 -0.0126495 -0.0106988 -0.00894048 -0.00751595 -0.00805501 -0.00676063 -0.00600169 -0.00566829 -0.00563974 -0.00580834 -0.00608719 -0.00641189 -0.00673853 -0.00703969 -0.00730011 -0.00751296 -0.00767685 -0.00779385 0.00301648 0.00266894 0.00236568 0.00209656 0.00184378 0.00158367 0.00128879 0.000929604 0.000475743 -0.000103353 -0.000838092 -0.00176561 -0.00335558 -0.00453612 -0.00596679 -0.0076595 -0.00961265 -0.0118057 -0.0141952 -0.0167135 -0.019271 -0.0217624 -0.0240772 -0.0260881 -0.0260968 -0.0271414 -0.0275331 -0.0272577 -0.0263352 -0.0248221 -0.0228119 -0.0204328 -0.0178409 -0.0152087 -0.0127071 -0.0105613 -0.0110657 -0.0089796 -0.00764245 -0.00691297 -0.00664023 -0.00668211 -0.00691736 -0.00725163 -0.00761776 -0.00797196 -0.00828853 -0.00855458 -0.00876571 -0.00892285 0.00198348 0.00162358 0.00130815 0.00102459 0.000751607 0.00046139 0.000121908 -0.00030126 -0.000843713 -0.00154164 -0.0024316 -0.00355581 -0.00532182 -0.00675926 -0.00850128 -0.010562 -0.0129382 -0.0156031 -0.0185023 -0.0215529 -0.0246467 -0.0276587 -0.0304586 -0.032895 -0.0332704 -0.0345845 -0.0351709 -0.0350021 -0.0340847 -0.0324618 -0.0302136 -0.0274585 -0.0243512 -0.0210775 -0.0178405 -0.014952 -0.0150661 -0.0120437 -0.00995837 -0.00867356 -0.00802696 -0.00784833 -0.00797977 -0.00829025 -0.00868144 -0.00908626 -0.00946334 -0.00979031 -0.0100577 -0.0102643 0.000595797 0.000232713 -8.86769e-05 -0.000383571 -0.000676746 -0.00100009 -0.00139017 -0.00188623 -0.0025291 -0.00336063 -0.00442357 -0.00576578 -0.00774328 -0.00946085 -0.0115403 -0.0139966 -0.0168227 -0.0199829 -0.0234089 -0.0269996 -0.0306265 -0.0341439 -0.0374027 -0.0402328 -0.0410832 -0.0426438 -0.0434241 -0.043388 -0.0425315 -0.0408843 -0.0385104 -0.0355106 -0.0320267 -0.028243 -0.0243822 -0.020826 -0.020086 -0.0160681 -0.0130976 -0.0110961 -0.00992457 -0.00940429 -0.00934679 -0.00958126 -0.00997076 -0.0104168 -0.0108555 -0.0112502 -0.0115834 -0.0118501 -0.00116111 -0.00151704 -0.00183729 -0.00213965 -0.00245223 -0.00281077 -0.00325608 -0.00383201 -0.00458433 -0.00556029 -0.0068085 -0.00838264 -0.0106024 -0.0126134 -0.0150432 -0.0179055 -0.021187 -0.0248402 -0.0287801 -0.0328855 -0.0370068 -0.040979 -0.0446368 -0.0478005 -0.0491678 -0.0509351 -0.0518904 -0.051996 -0.051243 -0.049652 -0.0472717 -0.0441829 -0.0405058 -0.0364096 -0.0321181 -0.0280457 -0.0260314 -0.021077 -0.0171584 -0.0143086 -0.0124589 -0.0114562 -0.0111003 -0.0111849 -0.0115303 -0.0119982 -0.0124945 -0.0129616 -0.0133698 -0.013708 -0.00327914 -0.00361699 -0.00392835 -0.0042335 -0.00456358 -0.00495781 -0.00546077 -0.00612044 -0.00698701 -0.00811254 -0.00955071 -0.0113606 -0.013842 -0.0161473 -0.0189241 -0.0221827 -0.025901 -0.0300173 -0.0344281 -0.0389916 -0.0435383 -0.0478866 -0.0518606 -0.0552801 -0.0571312 -0.0590567 -0.0601546 -0.0603926 -0.0597644 -0.0582876 -0.0560005 -0.0529659 -0.0492798 -0.0450853 -0.040587 -0.0361825 -0.0326974 -0.0269822 -0.0221539 -0.0183885 -0.015733 -0.0141045 -0.013323 -0.0131632 -0.0134041 -0.0138624 -0.0144046 -0.014945 -0.0154361 -0.0158572 -0.00572491 -0.00603387 -0.0063283 -0.00663076 -0.00697504 -0.0074033 -0.00796333 -0.00870651 -0.00968672 -0.0109599 -0.0125837 -0.0146216 -0.0173666 -0.019953 -0.0230561 -0.0266809 -0.0307942 -0.0353191 -0.0401331 -0.045075 -0.0499582 -0.0545893 -0.0587872 -0.0623797 -0.0646259 -0.0666604 -0.0678616 -0.0682087 -0.067704 -0.0663682 -0.0642359 -0.0613571 -0.0578057 -0.0536934 -0.0491894 -0.0446274 -0.0397976 -0.0335789 -0.0279835 -0.023326 -0.0197948 -0.0174199 -0.0160835 -0.0155698 -0.0156292 -0.0160323 -0.0165995 -0.0172087 -0.0177878 -0.0183022 -0.00844014 -0.00871027 -0.00897984 -0.00927344 -0.00962704 -0.0100852 -0.0106981 -0.0115198 -0.012607 -0.0140182 -0.0158137 -0.0180597 -0.0210491 -0.0238897 -0.0272825 -0.0312253 -0.0356735 -0.0405345 -0.0456686 -0.0508975 -0.0560219 -0.0608415 -0.0651757 -0.0688652 -0.0713962 -0.073495 -0.0747607 -0.0751865 -0.0747867 -0.0735894 -0.0716312 -0.0689561 -0.0656212 -0.0617084 -0.0573426 -0.052766 -0.0469964 -0.0405601 -0.0344233 -0.0289964 -0.0246037 -0.021414 -0.0194135 -0.018435 -0.0182243 -0.0185138 -0.019075 -0.0197417 -0.02041 -0.0210262 -0.0113454 -0.0115684 -0.0118058 -0.0120839 -0.0124404 -0.0129215 -0.0135794 -0.0144698 -0.0156509 -0.0171831 -0.0191275 -0.0215508 -0.024743 -0.0277989 -0.0314316 -0.0356312 -0.0403422 -0.0454579 -0.0508239 -0.056249 -0.0615253 -0.0664504 -0.0708478 -0.0745732 -0.0772882 -0.0794151 -0.0807122 -0.0811861 -0.0808635 -0.079782 -0.0779835 -0.0755122 -0.0724155 -0.0687517 -0.0646033 -0.060119 -0.0539427 -0.0475528 -0.0411431 -0.0351543 -0.0300087 -0.0260122 -0.0232842 -0.021747 -0.0211766 -0.0212859 -0.0218008 -0.0225066 -0.0232604 -0.023984 -0.0143471 -0.0145168 -0.0147156 -0.0149714 -0.015323 -0.0158179 -0.0165092 -0.0174536 -0.0187101 -0.0203393 -0.0224021 -0.0249636 -0.0282967 -0.0315198 -0.0353336 -0.0397217 -0.0446187 -0.0499071 -0.0554212 -0.0609615 -0.0663154 -0.0712813 -0.075689 -0.079408 -0.0822333 -0.0843621 -0.0856662 -0.0861626 -0.0858885 -0.0848904 -0.0832177 -0.0809186 -0.078038 -0.0746199 -0.0707143 -0.0663949 -0.060308 -0.0541713 -0.047753 -0.0414584 -0.0357497 -0.0310395 -0.0275862 -0.025434 -0.0244279 -0.0242896 -0.0247121 -0.0254321 -0.0262628 -0.0270955 -0.0173459 -0.0174588 -0.0176143 -0.0178413 -0.0181794 -0.0186766 -0.0193866 -0.0203663 -0.0216746 -0.0233714 -0.0255163 -0.0281709 -0.0315674 -0.0349032 -0.038835 -0.043341 -0.0483491 -0.0537342 -0.0593238 -0.0649137 -0.0702898 -0.0752528 -0.0796386 -0.0833278 -0.08622 -0.0883347 -0.0896308 -0.0901316 -0.0898813 -0.0889339 -0.0873465 -0.0851738 -0.0824638 -0.0792558 -0.0755818 -0.0714683 -0.0658243 -0.0600731 -0.0538645 -0.0475218 -0.041487 -0.0362294 -0.0321252 -0.029354 -0.027864 -0.02742 -0.0277033 -0.0284087 -0.0293032 -0.0302427 -0.0202465 -0.0203018 -0.0204111 -0.0206034 -0.0209189 -0.0214057 -0.0221172 -0.0231102 -0.0244429 -0.0261737 -0.0283604 -0.0310597 -0.0344315 -0.0378227 -0.0418085 -0.0463642 -0.0514144 -0.0568303 -0.0624366 -0.0680276 -0.0733897 -0.0783261 -0.0826765 -0.0863287 -0.0892686 -0.0913626 -0.0926443 -0.0931389 -0.0928942 -0.0919697 -0.0904295 -0.088336 -0.0857441 -0.0826967 -0.0792211 -0.0753247 -0.0703079 -0.0649997 -0.0591477 -0.0529731 -0.0468519 -0.0412548 -0.0366346 -0.0332967 -0.0313126 -0.0305235 -0.0306262 -0.031287 -0.032229 -0.0332701 -0.0229658 -0.0229657 -0.0230276 -0.0231808 -0.0234649 -0.0239276 -0.0246219 -0.0256038 -0.0269305 -0.0286589 -0.0308445 -0.0335387 -0.0367926 -0.040181 -0.0441587 -0.0487009 -0.0537324 -0.0591247 -0.064703 -0.0702626 -0.0755912 -0.0804934 -0.08481 -0.0884308 -0.0914143 -0.093489 -0.0947569 -0.0952413 -0.0949907 -0.0940682 -0.0925437 -0.0904877 -0.0879643 -0.085025 -0.0817035 -0.0780096 -0.0736635 -0.068792 -0.0633655 -0.0575059 -0.0514996 -0.0457728 -0.0408058 -0.0369996 -0.0345507 -0.0334013 -0.0332925 -0.0338814 -0.0348538 -0.0359887 -0.0254394 -0.0253884 -0.025404 -0.025515 -0.0257597 -0.0261848 -0.0268423 -0.0277871 -0.0290753 -0.0307627 -0.0329028 -0.035542 -0.0385842 -0.0419126 -0.0458237 -0.0502956 -0.0552564 -0.0605816 -0.0660998 -0.0716088 -0.0768975 -0.0817701 -0.0860651 -0.0896696 -0.0926995 -0.0947628 -0.0960227 -0.096498 -0.0962359 -0.095301 -0.0937684 -0.091716 -0.0892181 -0.0863376 -0.0831209 -0.0795938 -0.075872 -0.0713836 -0.0663814 -0.0609058 -0.0551507 -0.0494695 -0.0443253 -0.0401745 -0.0373215 -0.0358208 -0.0354829 -0.0359775 -0.0369638 -0.0381844 -0.027625 -0.0275299 -0.0275024 -0.0275698 -0.0277685 -0.0281431 -0.0287439 -0.0296247 -0.0308406 -0.0324467 -0.0344959 -0.0370305 -0.0397697 -0.0429831 -0.0467735 -0.0511247 -0.0559714 -0.0611957 -0.0666319 -0.072081 -0.0773329 -0.0821888 -0.0864819 -0.0900915 -0.0931716 -0.0952364 -0.0964982 -0.0969699 -0.0966952 -0.0957394 -0.0941814 -0.0921063 -0.0895978 -0.0867314 -0.0835682 -0.0801569 -0.076971 -0.0727808 -0.0681474 -0.0630531 -0.0576106 -0.0520912 -0.0469094 -0.0425362 -0.0393555 -0.0375303 -0.0369579 -0.0373416 -0.038328 -0.0396271 -0.029503 -0.0293724 -0.0293069 -0.0293312 -0.0294788 -0.029791 -0.0303157 -0.0311051 -0.0322138 -0.0336973 -0.0356092 -0.0379902 -0.0403399 -0.0433859 -0.0470063 -0.0511931 -0.0558901 -0.0609881 -0.0663283 -0.0717158 -0.0769399 -0.0817974 -0.0861127 -0.0897534 -0.0928845 -0.0949681 -0.0962451 -0.0967217 -0.0964376 -0.0954571 -0.0938621 -0.0917436 -0.0891945 -0.0863013 -0.0831399 -0.079783 -0.0770358 -0.0730409 -0.0686834 -0.0639098 -0.0587701 -0.0534586 -0.0483262 -0.0438267 -0.0403907 -0.0382748 -0.03747 -0.0377311 -0.0387062 -0.040079 -0.031075 -0.0309187 -0.0308219 -0.0308056 -0.0308986 -0.0311379 -0.0315676 -0.032238 -0.0332038 -0.0345221 -0.0362497 -0.0384287 -0.0403088 -0.0431379 -0.0465443 -0.0505297 -0.0550489 -0.0600025 -0.0652396 -0.0705689 -0.0757784 -0.0806586 -0.0850229 -0.0887234 -0.0919007 -0.0940237 -0.0953325 -0.0958264 -0.0955397 -0.094535 -0.0928959 -0.0907185 -0.0881027 -0.0851449 -0.0819331 -0.0785617 -0.0761653 -0.0722536 -0.0680552 -0.0634988 -0.0585915 -0.0534648 -0.0484049 -0.0438294 -0.0401875 -0.0378077 -0.0367725 -0.0369007 -0.0378552 -0.0392999 -0.03236 -0.032189 -0.0320689 -0.0320159 -0.0320526 -0.0322095 -0.0325259 -0.0330496 -0.0338357 -0.0349451 -0.0364409 -0.0383699 -0.0397082 -0.0422748 -0.0454289 -0.0491833 -0.0535042 -0.0583028 -0.0634356 -0.0687145 -0.0739253 -0.0788508 -0.0832917 -0.0870824 -0.0902932 -0.0924794 -0.0938399 -0.0943667 -0.0940882 -0.0930643 -0.0913786 -0.0891307 -0.086426 -0.0833678 -0.080053 -0.0765929 -0.0744736 -0.0705278 -0.0663566 -0.0618831 -0.0570896 -0.052062 -0.047031 -0.0423725 -0.0385345 -0.0358968 -0.034624 -0.0346056 -0.0355301 -0.0370478 -0.03339 -0.033216 -0.0330822 -0.0329977 -0.0329773 -0.0330432 -0.0332278 -0.033576 -0.0341447 -0.0350006 -0.0362167 -0.0378492 -0.0385831 -0.0408464 -0.0437167 -0.0472185 -0.0513293 -0.0559698 -0.0610032 -0.0662435 -0.0714737 -0.0764677 -0.0810127 -0.0849249 -0.0881464 -0.0904222 -0.0918576 -0.0924368 -0.0921816 -0.0911478 -0.0894178 -0.0870922 -0.0842796 -0.081087 -0.0776163 -0.073989 -0.0720839 -0.0679829 -0.0636955 -0.0591478 -0.054311 -0.049243 -0.0441336 -0.0393217 -0.0352469 -0.0323236 -0.0307874 -0.0305989 -0.031481 -0.0330749 -0.0342058 -0.0340419 -0.0339048 -0.0337953 -0.0337174 -0.0336827 -0.0337158 -0.0338582 -0.0341699 -0.034727 -0.0356162 -0.0369084 -0.0369865 -0.0389122 -0.0414758 -0.044713 -0.0486111 -0.0530988 -0.0580441 -0.063262 -0.0685316 -0.0736176 -0.0782934 -0.0823578 -0.0855566 -0.0879498 -0.089486 -0.0901405 -0.0899279 -0.0888984 -0.0871311 -0.0847253 -0.0817893 -0.0784307 -0.0747513 -0.0708747 -0.0691241 -0.0647418 -0.0601846 -0.0553859 -0.0503165 -0.0450218 -0.0396677 -0.0345683 -0.0301571 -0.0268766 -0.0250229 -0.0246253 -0.0254455 -0.0271194 -0.0348533 -0.0347144 -0.0345859 -0.034458 -0.0343213 -0.0341745 -0.034033 -0.0339358 -0.0339487 -0.0341611 -0.0346788 -0.0355915 -0.0349762 -0.0365388 -0.0387828 -0.0417541 -0.0454474 -0.0497966 -0.0546719 -0.059888 -0.0652191 -0.0704207 -0.0752527 -0.0794984 -0.0826301 -0.0851689 -0.0868333 -0.0875891 -0.0874419 -0.086435 -0.084642 -0.0821577 -0.0790869 -0.0755333 -0.0715936 -0.0673835 -0.0657209 -0.0609252 -0.0559333 -0.0506875 -0.0451663 -0.0394164 -0.0335966 -0.0280125 -0.0231028 -0.0193412 -0.0170796 -0.0164111 -0.0171391 -0.0188955 -0.0353815 -0.0352854 -0.0351795 -0.0350396 -0