# vtk DataFile Version 2.0
Presion
ASCII

DATASET STRUCTURED_GRID
DIMENSIONS   50   50   20

POINTS   50000   double
0.00568455   0.00568455   0.025
0.0174023   0.00568455   0.025
0.0298294   0.00568455   0.025
0.0429888   0.00568455   0.025
0.0569012   0.00568455   0.025
0.0715849   0.00568455   0.025
0.0870549   0.00568455   0.025
0.103323   0.00568455   0.025
0.120395   0.00568455   0.025
0.138275   0.00568455   0.025
0.156961   0.00568455   0.025
0.176443   0.00568455   0.025
0.196707   0.00568455   0.025
0.217734   0.00568455   0.025
0.239496   0.00568455   0.025
0.261959   0.00568455   0.025
0.285082   0.00568455   0.025
0.308818   0.00568455   0.025
0.333113   0.00568455   0.025
0.357906   0.00568455   0.025
0.383132   0.00568455   0.025
0.408719   0.00568455   0.025
0.434592   0.00568455   0.025
0.460672   0.00568455   0.025
0.486877   0.00568455   0.025
0.513123   0.00568455   0.025
0.539328   0.00568455   0.025
0.565408   0.00568455   0.025
0.591281   0.00568455   0.025
0.616868   0.00568455   0.025
0.642094   0.00568455   0.025
0.666887   0.00568455   0.025
0.691182   0.00568455   0.025
0.714918   0.00568455   0.025
0.738041   0.00568455   0.025
0.760504   0.00568455   0.025
0.782266   0.00568455   0.025
0.803293   0.00568455   0.025
0.823557   0.00568455   0.025
0.843039   0.00568455   0.025
0.861725   0.00568455   0.025
0.879605   0.00568455   0.025
0.896677   0.00568455   0.025
0.912945   0.00568455   0.025
0.928415   0.00568455   0.025
0.943099   0.00568455   0.025
0.957011   0.00568455   0.025
0.970171   0.00568455   0.025
0.982598   0.00568455   0.025
0.994315   0.00568455   0.025
0.00568455   0.0174023   0.025
0.0174023   0.0174023   0.025
0.0298294   0.0174023   0.025
0.0429888   0.0174023   0.025
0.0569012   0.0174023   0.025
0.0715849   0.0174023   0.025
0.0870549   0.0174023   0.025
0.103323   0.0174023   0.025
0.120395   0.0174023   0.025
0.138275   0.0174023   0.025
0.156961   0.0174023   0.025
0.176443   0.0174023   0.025
0.196707   0.0174023   0.025
0.217734   0.0174023   0.025
0.239496   0.0174023   0.025
0.261959   0.0174023   0.025
0.285082   0.0174023   0.025
0.308818   0.0174023   0.025
0.333113   0.0174023   0.025
0.357906   0.0174023   0.025
0.383132   0.0174023   0.025
0.408719   0.0174023   0.025
0.434592   0.0174023   0.025
0.460672   0.0174023   0.025
0.486877   0.0174023   0.025
0.513123   0.0174023   0.025
0.539328   0.0174023   0.025
0.565408   0.0174023   0.025
0.591281   0.0174023   0.025
0.616868   0.0174023   0.025
0.642094   0.0174023   0.025
0.666887   0.0174023   0.025
0.691182   0.0174023   0.025
0.714918   0.0174023   0.025
0.738041   0.0174023   0.025
0.760504   0.0174023   0.025
0.782266   0.0174023   0.025
0.803293   0.0174023   0.025
0.823557   0.0174023   0.025
0.843039   0.0174023   0.025
0.861725   0.0174023   0.025
0.879605   0.0174023   0.025
0.896677   0.0174023   0.025
0.912945   0.0174023   0.025
0.928415   0.0174023   0.025
0.943099   0.0174023   0.025
0.957011   0.0174023   0.025
0.970171   0.0174023   0.025
0.982598   0.0174023   0.025
0.994315   0.0174023   0.025
0.00568455   0.0298294   0.025
0.0174023   0.0298294   0.025
0.0298294   0.0298294   0.025
0.0429888   0.0298294   0.025
0.0569012   0.0298294   0.025
0.0715849   0.0298294   0.025
0.0870549   0.0298294   0.025
0.103323   0.0298294   0.025
0.120395   0.0298294   0.025
0.138275   0.0298294   0.025
0.156961   0.0298294   0.025
0.176443   0.0298294   0.025
0.196707   0.0298294   0.025
0.217734   0.0298294   0.025
0.239496   0.0298294   0.025
0.261959   0.0298294   0.025
0.285082   0.0298294   0.025
0.308818   0.0298294   0.025
0.333113   0.0298294   0.025
0.357906   0.0298294   0.025
0.383132   0.0298294   0.025
0.408719   0.0298294   0.025
0.434592   0.0298294   0.025
0.460672   0.0298294   0.025
0.486877   0.0298294   0.025
0.513123   0.0298294   0.025
0.539328   0.0298294   0.025
0.565408   0.0298294   0.025
0.591281   0.0298294   0.025
0.616868   0.0298294   0.025
0.642094   0.0298294   0.025
0.666887   0.0298294   0.025
0.691182   0.0298294   0.025
0.714918   0.0298294   0.025
0.738041   0.0298294   0.025
0.760504   0.0298294   0.025
0.782266   0.0298294   0.025
0.803293   0.0298294   0.025
0.823557   0.0298294   0.025
0.843039   0.0298294   0.025
0.861725   0.0298294   0.025
0.879605   0.0298294   0.025
0.896677   0.0298294   0.025
0.912945   0.0298294   0.025
0.928415   0.0298294   0.025
0.943099   0.0298294   0.025
0.957011   0.0298294   0.025
0.970171   0.0298294   0.025
0.982598   0.0298294   0.025
0.994315   0.0298294   0.025
0.00568455   0.0429888   0.025
0.0174023   0.0429888   0.025
0.0298294   0.0429888   0.025
0.0429888   0.0429888   0.025
0.0569012   0.0429888   0.025
0.0715849   0.0429888   0.025
0.0870549   0.0429888   0.025
0.103323   0.0429888   0.025
0.120395   0.0429888   0.025
0.138275   0.0429888   0.025
0.156961   0.0429888   0.025
0.176443   0.0429888   0.025
0.196707   0.0429888   0.025
0.217734   0.0429888   0.025
0.239496   0.0429888   0.025
0.261959   0.0429888   0.025
0.285082   0.0429888   0.025
0.308818   0.0429888   0.025
0.333113   0.0429888   0.025
0.357906   0.0429888   0.025
0.383132   0.0429888   0.025
0.408719   0.0429888   0.025
0.434592   0.0429888   0.025
0.460672   0.0429888   0.025
0.486877   0.0429888   0.025
0.513123   0.0429888   0.025
0.539328   0.0429888   0.025
0.565408   0.0429888   0.025
0.591281   0.0429888   0.025
0.616868   0.0429888   0.025
0.642094   0.0429888   0.025
0.666887   0.0429888   0.025
0.691182   0.0429888   0.025
0.714918   0.0429888   0.025
0.738041   0.0429888   0.025
0.760504   0.0429888   0.025
0.782266   0.0429888   0.025
0.803293   0.0429888   0.025
0.823557   0.0429888   0.025
0.843039   0.0429888   0.025
0.861725   0.0429888   0.025
0.879605   0.0429888   0.025
0.896677   0.0429888   0.025
0.912945   0.0429888   0.025
0.928415   0.0429888   0.025
0.943099   0.0429888   0.025
0.957011   0.0429888   0.025
0.970171   0.0429888   0.025
0.982598   0.0429888   0.025
0.994315   0.0429888   0.025
0.00568455   0.0569012   0.025
0.0174023   0.0569012   0.025
0.0298294   0.0569012   0.025
0.0429888   0.0569012   0.025
0.0569012   0.0569012   0.025
0.0715849   0.0569012   0.025
0.0870549   0.0569012   0.025
0.103323   0.0569012   0.025
0.120395   0.0569012   0.025
0.138275   0.0569012   0.025
0.156961   0.0569012   0.025
0.176443   0.0569012   0.025
0.196707   0.0569012   0.025
0.217734   0.0569012   0.025
0.239496   0.0569012   0.025
0.261959   0.0569012   0.025
0.285082   0.0569012   0.025
0.308818   0.0569012   0.025
0.333113   0.0569012   0.025
0.357906   0.0569012   0.025
0.383132   0.0569012   0.025
0.408719   0.0569012   0.025
0.434592   0.0569012   0.025
0.460672   0.0569012   0.025
0.486877   0.0569012   0.025
0.513123   0.0569012   0.025
0.539328   0.0569012   0.025
0.565408   0.0569012   0.025
0.591281   0.0569012   0.025
0.616868   0.0569012   0.025
0.642094   0.0569012   0.025
0.666887   0.0569012   0.025
0.691182   0.0569012   0.025
0.714918   0.0569012   0.025
0.738041   0.0569012   0.025
0.760504   0.0569012   0.025
0.782266   0.0569012   0.025
0.803293   0.0569012   0.025
0.823557   0.0569012   0.025
0.843039   0.0569012   0.025
0.861725   0.0569012   0.025
0.879605   0.0569012   0.025
0.896677   0.0569012   0.025
0.912945   0.0569012   0.025
0.928415   0.0569012   0.025
0.943099   0.0569012   0.025
0.957011   0.0569012   0.025
0.970171   0.0569012   0.025
0.982598   0.0569012   0.025
0.994315   0.0569012   0.025
0.00568455   0.0715849   0.025
0.0174023   0.0715849   0.025
0.0298294   0.0715849   0.025
0.0429888   0.0715849   0.025
0.0569012   0.0715849   0.025
0.0715849   0.0715849   0.025
0.0870549   0.0715849   0.025
0.103323   0.0715849   0.025
0.120395   0.0715849   0.025
0.138275   0.0715849   0.025
0.156961   0.0715849   0.025
0.176443   0.0715849   0.025
0.196707   0.0715849   0.025
0.217734   0.0715849   0.025
0.239496   0.0715849   0.025
0.261959   0.0715849   0.025
0.285082   0.0715849   0.025
0.308818   0.0715849   0.025
0.333113   0.0715849   0.025
0.357906   0.0715849   0.025
0.383132   0.0715849   0.025
0.408719   0.0715849   0.025
0.434592   0.0715849   0.025
0.460672   0.0715849   0.025
0.486877   0.0715849   0.025
0.513123   0.0715849   0.025
0.539328   0.0715849   0.025
0.565408   0.0715849   0.025
0.591281   0.0715849   0.025
0.616868   0.0715849   0.025
0.642094   0.0715849   0.025
0.666887   0.0715849   0.025
0.691182   0.0715849   0.025
0.714918   0.0715849   0.025
0.738041   0.0715849   0.025
0.760504   0.0715849   0.025
0.782266   0.0715849   0.025
0.803293   0.0715849   0.025
0.823557   0.0715849   0.025
0.843039   0.0715849   0.025
0.861725   0.0715849   0.025
0.879605   0.0715849   0.025
0.896677   0.0715849   0.025
0.912945   0.0715849   0.025
0.928415   0.0715849   0.025
0.943099   0.0715849   0.025
0.957011   0.0715849   0.025
0.970171   0.0715849   0.025
0.982598   0.0715849   0.025
0.994315   0.0715849   0.025
0.00568455   0.0870549   0.025
0.0174023   0.0870549   0.025
0.0298294   0.0870549   0.025
0.0429888   0.0870549   0.025
0.0569012   0.0870549   0.025
0.0715849   0.0870549   0.025
0.0870549   0.0870549   0.025
0.103323   0.0870549   0.025
0.120395   0.0870549   0.025
0.138275   0.0870549   0.025
0.156961   0.0870549   0.025
0.176443   0.0870549   0.025
0.196707   0.0870549   0.025
0.217734   0.0870549   0.025
0.239496   0.0870549   0.025
0.261959   0.0870549   0.025
0.285082   0.0870549   0.025
0.308818   0.0870549   0.025
0.333113   0.0870549   0.025
0.357906   0.0870549   0.025
0.383132   0.0870549   0.025
0.408719   0.0870549   0.025
0.434592   0.0870549   0.025
0.460672   0.0870549   0.025
0.486877   0.0870549   0.025
0.513123   0.0870549   0.025
0.539328   0.0870549   0.025
0.565408   0.0870549   0.025
0.591281   0.0870549   0.025
0.616868   0.0870549   0.025
0.642094   0.0870549   0.025
0.666887   0.0870549   0.025
0.691182   0.0870549   0.025
0.714918   0.0870549   0.025
0.738041   0.0870549   0.025
0.760504   0.0870549   0.025
0.782266   0.0870549   0.025
[...]
POINT_DATA   50000
SCALARS Presion double
LOOKUP_TABLE   Presion

0 0 0 0 0 0 0 0 0 0 0 0 0 0 0 0 0 0 0 0 0 0 0 0 0 0 0 0 0 0 0 0 0 0 0 0 0 0 0 0 0 0 0 0 0 0 0 0 0 0 0.00166242 0.00180987 0.00198787 0.00211661 0.0021816 0.00218398 0.00212835 0.00201982 0.00186327 0.00166297 0.00142231 0.00114304 0.000683273 0.000404001 0.000154742 -6.24351e-05 -0.000242409 -0.000376772 -0.000455717 -0.000470434 -0.000415547 -0.000291142 -0.000103727 0.000134076 0.000385032 0.000634951 0.000850096 0.00100349 0.00107366 0.00104672 0.000918014 0.000692751 0.000385677 1.99216e-05 -0.000374884 -0.000763963 -0.00101271 -0.00137489 -0.00171201 -0.00200655 -0.00224805 -0.00243082 -0.00255194 -0.00260999 -0.0026042 -0.00253406 -0.00239964 -0.00220445 -0.00196894 -0.00178576 0.0021822 0.00217108 0.00222109 0.00227201 0.00229407 0.00227501 0.00221111 0.00210266 0.00195187 0.00176196 0.00153728 0.00128187 0.000761096 0.000508475 0.000273143 6.22745e-05 -0.000116729 -0.000254804 -0.000342198 -0.000370351 -0.000334021 -0.000233129 -7.37525e-05 0.000130394 0.000353449 0.000572041 0.000758131 0.000886192 0.000935919 0.000894288 0.000757088 0.000529507 0.00022566 -0.000132952 -0.000520076 -0.000905567 -0.00108245 -0.00144168 -0.00176791 -0.00204972 -0.00227986 -0.00245461 -0.00257268 -0.00263455 -0.00264232 -0.00260026 -0.00251683 -0.00240938 -0.00231409 -0.00230051 0.00253448 0.00248453 0.00246996 0.00246458 0.00244689 0.00240324 0.00232645 0.00221375 0.00206519 0.00188294 0.00167144 0.00143399 0.000843552 0.000613396 0.000390462 0.000183972 2.8242e-06 -0.000143258 -0.000244293 -0.000291527 -0.00027928 -0.000206684 -7.8908e-05 8.91488e-05 0.000288958 0.000482207 0.000646765 0.000758019 0.000795759 0.000746522 0.000605412 0.000376857 7.40918e-05 -0.000282684 -0.000669463 -0.00105759 -0.00115861 -0.00152 -0.00184091 -0.00211466 -0.00233744 -0.00250788 -0.00262661 -0.00269605 -0.00272058 -0.0027073 -0.00266752 -0.002619 -0.00258767 -0.00260453 0.00282766 0.00276796 0.00272148 0.00267944 0.00263015 0.00256343 0.0024722 0.00235254 0.00220326 0.00202558 0.00182352 0.00159843 0.000933061 0.000719186 0.000504415 0.000298133 0.00010984 -5.02811e-05 -0.000171821 -0.000245368 -0.000264149 -0.000225747 -0.000133642 -3.20034e-06 0.000175292 0.00034931 0.000500121 0.000603703 0.000638964 0.000590783 0.000452401 0.000226577 -7.47822e-05 -0.000432636 -0.000824264 -0.00122041 -0.00124558 -0.00161317 -0.00193321 -0.0022031 -0.00242232 -0.0025919 -0.00271428 -0.00279338 -0.00283475 -0.00284604 -0.00283745 -0.00282189 -0.00281356 -0.0028236 0.00311125 0.00304323 0.00297689 0.00290985 0.00283635 0.0027498 0.0026445 0.00251654 0.00236411 0.00218769 0.00199059 0.00177167 0.001029 0.000823609 0.000610134 0.00039722 0.000194259 1.16484e-05 -0.000139607 -0.000248947 -0.000307772 -0.00031121 -0.000260013 -0.00016886 -1.1575e-05 0.000148624 0.000293424 0.000399163 0.000442976 0.000406879 0.000280949 6.51292e-05 -0.000230782 -0.000589089 -0.000987769 -0.00139547 -0.00134829 -0.00172477 -0.00204703 -0.00231639 -0.00253541 -0.0027072 -0.00283558 -0.00292529 -0.00298202 -0.00301253 -0.00302453 -0.00302605 -0.00302411 -0.00302232 0.00340497 0.00332325 0.00323924 0.00315232 0.0030594 0.00295606 0.00283778 0.00270089 0.00254319 0.00236443 0.00216703 0.00194704 0.00112721 0.000920726 0.000698943 0.000469451 0.000241104 2.4351e-05 -0.000169014 -0.000326746 -0.000437607 -0.000493253 -0.00049047 -0.000441889 -0.000305704 -0.000155792 -9.79195e-06 0.000108691 0.000174174 0.000164546 6.5221e-05 -0.000128192 -0.000409245 -0.000762269 -0.00116584 -0.00158556 -0.00147316 -0.00185885 -0.00218442 -0.00245541 -0.002677 -0.00285374 -0.00299019 -0.00309118 -0.00316185 -0.00320758 -0.00323369 -0.00324497 -0.00324495 -0.00323511 0.00371294 0.00361134 0.00350801 0.00340251 0.00329253 0.00317445 0.00304413 0.00289776 0.00273254 0.00254732 0.00234336 0.0021137 0.00121887 0.000999602 0.000756906 0.000497306 0.000228946 -3.76909e-05 -0.000289743 -0.000512686 -0.000691768 -0.000814078 -0.000871086 -0.000871928 -0.00075419 -0.000614439 -0.000461303 -0.000318812 -0.000215921 -0.000180214 -0.000232739 -0.000384221 -0.000633433 -0.000968083 -0.00136792 -0.00179514 -0.00162912 -0.00202032 -0.00234746 -0.00262064 -0.00284688 -0.0030312 -0.00317797 -0.00329145 -0.00337583 -0.00343508 -0.0034728 -0.00349195 -0.00349469 -0.00348218 0.00402937 0.00390245 0.00377704 0.00365245 0.00352616 0.00339429 0.00325222 0.00309535 0.0029198 0.00272309 0.00250496 0.00225532 0.0012891 0.00104277 0.00076318 0.000455829 0.000128165 -0.000209154 -0.000541809 -0.000852333 -0.00112154 -0.00133083 -0.00146497 -0.00152808 -0.00142088 -0.00129641 -0.0011326 -0.00095459 -0.000795617 -0.000690182 -0.000667903 -0.000748425 -0.000938385 -0.00123111 -0.00160895 -0.0020312 -0.00182942 -0.00221598 -0.00253875 -0.00281253 -0.0030447 -0.00323926 -0.00339924 -0.00352755 -0.00362708 -0.00370057 -0.00375041 -0.00377869 -0.00378712 -0.0037771 0.00434033 0.00418368 0.00403355 0.00388874 0.00374598 0.00360036 0.00344598 0.00327672 0.003087 0.00287247 0.00263083 0.0023488 0.00131523 0.0010246 0.000688316 0.000310895 -0.000100803 -0.000535665 -0.000977425 -0.00140494 -0.00179366 -0.00211812 -0.00235512 -0.00250206 -0.00239044 -0.0022936 -0.00211954 -0.00189525 -0.00165885 -0.00145316 -0.00131872 -0.00128723 -0.00137672 -0.00158947 -0.00191301 -0.00230558 -0.00209461 -0.00245638 -0.00276289 -0.0030326 -0.00327084 -0.00347834 -0.00365519 -0.003802 -0.00391993 -0.00401045 -0.0040751 -0.0041155 -0.00413331 -0.00413031 0.00462394 0.00443431 0.00425735 0.00409123 0.00393144 0.00377141 0.00360323 0.00341855 0.00320941 0.002969 0.0026924 0.0023631 0.00126533 0.000909799 0.000492775 1.77438e-05 -0.000508873 -0.00107515 -0.0016623 -0.00224473 -0.00279151 -0.00326921 -0.00364545 -0.00390889 -0.00377178 -0.00372387 -0.0035459 -0.00326702 -0.00293042 -0.00258831 -0.00229439 -0.00209588 -0.00202656 -0.0021022 -0.00231954 -0.00263971 -0.00245747 -0.0027595 -0.00302924 -0.00328566 -0.00352803 -0.00375068 -0.0039486 -0.00411878 -0.00425992 -0.00437197 -0.00445564 -0.00451221 -0.00454341 -0.00455137 0.00485003 0.00462541 0.00442037 0.00423218 0.00405467 0.00387896 0.0036945 0.00349003 0.00325455 0.00297816 0.0026527 0.00225846 0.00109712 0.000652417 0.000126046 -0.000479744 -0.00115884 -0.00189809 -0.00267555 -0.00346031 -0.00421406 -0.00489418 -0.00545801 -0.00588294 -0.00569862 -0.00573068 -0.00556301 -0.0052262 -0.00476786 -0.00424986 -0.00374065 -0.00330621 -0.00300075 -0.00285919 -0.00289311 -0.00307349 -0.00297033 -0.00315681 -0.00335687 -0.00358351 -0.00382406 -0.00406226 -0.00428515 -0.00448417 -0.00465445 -0.00479379 -0.00490181 -0.00497935 -0.00502816 -0.00505066 0.00498004 0.00471982 0.00448645 0.00427594 0.00407993 0.00388674 0.00368249 0.0034524 0.00318185 0.00285716 0.00246633 0.00198646 0.000757713 0.000195899 -0.000473037 -0.00124839 -0.00212423 -0.00308575 -0.0041071 -0.00515109 -0.00617081 -0.0071132 -0.00792418 -0.00856662 -0.00832388 -0.00847569 -0.00834155 -0.0079513 -0.00735525 -0.00662367 -0.0058399 -0.00509062 -0.00445467 -0.00399221 -0.00373668 -0.00367994 -0.00371471 -0.00370204 -0.00378185 -0.00395041 -0.00417567 -0.00442552 -0.00467524 -0.00490806 -0.00511377 -0.00528695 -0.00542546 -0.0055294 -0.00560036 -0.005641 0.00496753 0.00467277 0.00441191 0.00417935 0.0039641 0.00375103 0.00352244 0.00325945 0.0029432 0.00255571 0.00208044 0.00149128 0.000184981 -0.000525227 -0.00137412 -0.00236287 -0.00348562 -0.00472533 -0.00605136 -0.00741901 -0.00877133 -0.0100433 -0.0111681 -0.0120902 -0.0118038 -0.0121201 -0.0120512 -0.0116224 -0.0108837 -0.00991068 -0.00879917 -0.00765613 -0.00658719 -0.00568289 -0.00500624 -0.00458522 -0.00481047 -0.00448141 -0.00436584 -0.0044296 -0.00461313 -0.00486245 -0.00513615 -0.0054055 -0.00565225 -0.00586594 -0.00604162 -0.00617802 -0.00627626 -0.00633905 0.00475996 0.0044335 0.00414721 0.00389347 0.00365818 0.00342232 0.00316384 0.00285927 0.00248504 0.00201828 0.00143735 0.000712731 -0.000689064 -0.00158136 -0.00265056 -0.00390001 -0.00532357 -0.00690123 -0.00859633 -0.0103551 -0.0121086 -0.0137781 -0.0152825 -0.016544 -0.016269 -0.0167929 -0.016826 -0.0163851 -0.0155153 -0.0142925 -0.0128201 -0.011221 -0.0096263 -0.00815931 -0.0069193 -0.00598878 -0.00641805 -0.00562072 -0.00520322 -0.00508902 -0.00518455 -0.00540763 -0.00569411 -0.00599811 -0.00628934 -0.0065496 -0.00676934 -0.00694487 -0.00707634 -0.00716624 0.00430169 0.00394836 0.00363995 0.0033665 0.00311039 0.00284834 0.00255358 0.00219769 0.00175196 0.00118819 0.00047907 -0.000408695 -0.00193228 -0.0030411 -0.00437175 -0.0059297 -0.00770796 -0.00968232 -0.0118084 -0.0140212 -0.0162378 -0.0183636 -0.0203014 -0.0219485 -0.0217845 -0.0225487 -0.0227202 -0.0223031 -0.0213333 -0.0198809 -0.018049 -0.0159692 -0.0137915 -0.01167 -0.0097437 -0.00816807 -0.00872419 -0.00728196 -0.00642215 -0.00602419 -0.00595885 -0.00611063 -0.00638593 -0.00671507 -0.00705025 -0.00736148 -0.00763191 -0.00785385 -0.00802551 -0.00814883 0.0035387 0.00316532 0.00283939 0.0025483 0.0022707 0.00197881 0.00164091 0.00122342 0.00069221 1.3405e-05 -0.000846354 -0.00192471 -0.00360379 -0.00496186 -0.0065926 -0.00850315 -0.0106845 -0.0131065 -0.0157147 -0.0184306 -0.0211548 -0.0237748 -0.026176 -0.0282306 -0.0283081 -0.0293279 -0.0296663 -0.0293133 -0.0282922 -0.0266618 -0.024517 -0.0219873 -0.0192316 -0.0164267 -0.0137503 -0.0114432 -0.0119048 -0.00964314 -0.008176 -0.00735627 -0.00702664 -0.00703753 -0.0072602 -0.0075938 -0.00796608 -0.00832965 -0.00865651 -0.00893244 -0.00915237 -0.00931695 0.00242449 0.00203975 0.0017021 0.00139614 0.00109667 0.000771364 0.000383569 -0.000105549 -0.000735584 -0.00154625 -0.0025771 -0.00387075 -0.00574356 -0.00737875 -0.00934164 -0.0116399 -0.0142607 -0.0171657 -0.0202878 -0.0235321 -0.0267807 -0.0299024 -0.0327645 -0.0352176 -0.0356661 -0.0369351 -0.0374548 -0.0372028 -0.0361891 -0.0344582 -0.0320903 -0.029203 -0.0259512 -0.0225223 -0.0191248 -0.016084 -0.0160729 -0.0128625 -0.0106242 -0.00922407 -0.00849825 -0.00827119 -0.00837793 -0.00868021 -0.00907347 -0.00948591 -0.00987297 -0.0102103 -0.0104875 -0.0107027 0.000926684 0.000540843 0.000198379 -0.000118944 -0.000440097 -0.000801765 -0.00124538 -0.00181483 -0.00255504 -0.00351141 -0.00472956 -0.00625751 -0.00836177 -0.0102937 -0.0126098 -0.0153164 -0.0183948 -0.0217956 -0.0254363 -0.0292036 -0.0329599 -0.0365553 -0.0398411 -0.0426526 -0.0435618 -0.0450538 -0.0457517 -0.0456261 -0.0446763 -0.0429334 -0.0404602 -0.0373554 -0.0337585 -0.0298528 -0.0258635 -0.0221805 -0.0212352 -0.0170377 -0.0139044 -0.0117685 -0.0104966 -0.00990884 -0.00981196 -0.0100282 -0.0104138 -0.0108644 -0.0113119 -0.0117171 -0.0120608 -0.0123372 -0.000966591 -0.0013422 -0.00168169 -0.00200606 -0.00234778 -0.00274755 -0.00325117 -0.00390717 -0.00476541 -0.00587652 -0.00729159 -0.00906411 -0.0114305 -0.0136676 -0.0163431 -0.0194601 -0.0229912 -0.0268737 -0.0310076 -0.0352597 -0.0394732 -0.0434817 -0.047124 -0.0502299 -0.0516223 -0.0532972 -0.0541543 -0.0541635 -0.0533197 -0.0516449 -0.0491863 -0.0460216 -0.0422673 -0.0380891 -0.0337097 -0.0295438 -0.0272787 -0.0221738 -0.0180999 -0.0151081 -0.0131422 -0.0120542 -0.0116431 -0.0116976 -0.0120312 -0.0124992 -0.0130021 -0.0134791 -0.0138982 -0.014247 -0.00324185 -0.0035955 -0.00392365 -0.00424989 -0.00460979 -0.00504754 -0.00561273 -0.0063579 -0.00733714 -0.00860555 -0.0102187 -0.012235 -0.0148803 -0.0174174 -0.0204415 -0.0239501 -0.0279051 -0.0322284 -0.0368015 -0.0414719 -0.0460655 -0.050403 -0.0543165 -0.057639 -0.0594691 -0.0612803 -0.0622657 -0.0624008 -0.0616834 -0.0601323 -0.0577842 -0.0546987 -0.0509672 -0.0467276 -0.0421802 -0.0377148 -0.033988 -0.0281654 -0.0232064 -0.0193062 -0.0165286 -0.0148021 -0.013951 -0.0137484 -0.0139683 -0.0144207 -0.0149663 -0.0155152 -0.0160169 -0.0164492 -0.00585805 -0.00617833 -0.00648659 -0.0068087 -0.00718284 -0.00765608 -0.00828105 -0.00911349 -0.0102108 -0.0116316 -0.0134344 -0.0156814 -0.0186029 -0.0214206 -0.0247653 -0.0286269 -0.0329553 -0.0376563 -0.0425933 -0.0475965 -0.0524781 -0.0570507 -0.0611452 -0.0646055 -0.0667818 -0.0686834 -0.0697607 -0.0699998 -0.0694068 -0.0680032 -0.0658219 -0.0629098 -0.0593359 -0.0552062 -0.0506832 -0.0460875 -0.0410744 -0.0347959 -0.0291071 -0.0243369 -0.0206909 -0.0182139 -0.0167979 -0.0162303 -0.016259 -0.0166493 -0.0172158 -0.0178312 -0.01842 -0.0189457 -0.00874775 -0.00902445 -0.0093045 -0.00961578 -0.00999856 -0.0105021 -0.0111813 -0.0120941 -0.0133003 -0.0148605 -0.0168351 -0.019288 -0.0224599 -0.0255259 -0.029148 -0.0333079 -0.0379432 -0.0429444 -0.0481588 -0.0534026 -0.0584783 -0.0631957 -0.067389 -0.0709172 -0.0733352 -0.0752868 -0.0764202 -0.0767347 -0.0762475 -0.0749867 -0.0729868 -0.0702887 -0.0669449 -0.0630317 -0.0586664 -0.0540771 -0.0482069 -0.0417541 -0.0355666 -0.030061 -0.025574 -0.0222896 -0.0202072 -0.0191674 -0.0189177 -0.0191875 -0.019743 -0.0204129 -0.0210894 -0.0217163 -0.011822 -0.0120468 -0.0122911 -0.0125844 -0.0129686 -0.0134945 -0.0142184 -0.0151998 -0.0164994 -0.0181789 -0.0202987 -0.0229224 -0.0262969 -0.0295676 -0.0334127 -0.0378057 -0.0426728 -0.0478913 -0.0532958 -0.0586925 -0.0638786 -0.0686643 -0.0728907 -0.0764323 -0.0790019 -0.0809708 -0.0821304 -0.0824917 -0.0820831 -0.080941 -0.0791052 -0.0766162 -0.0735172 -0.0698614 -0.0657244 -0.061243 -0.0550448 -0.0486719 -0.0422522 -0.036224 -0.031015 -0.0269425 -0.0241397 -0.0225402 -0.0219258 -0.0220093 -0.0225135 -0.0232189 -0.0239788 -0.0247119 -0.0149784 -0.0151453 -0.0153474 -0.0156156 -0.0159928 -0.0165306 -0.0172862 -0.0183196 -0.0196919 -0.0214641 -0.0236958 -0.0264479 -0.0299577 -0.0333816 -0.0373886 -0.0419447 -0.046967 -0.0523231 -0.0578384 -0.0633131 -0.0685426 -0.0733401 -0.0775541 -0.0810734 -0.0837316 -0.0856951 -0.0868588 -0.0872428 -0.0868846 -0.0858288 -0.0841217 -0.0818076 -0.0789275 -0.0755207 -0.071632 -0.0673266 -0.0612744 -0.0551764 -0.0487806 -0.0424842 -0.0367474 -0.0319886 -0.0284769 -0.0262688 -0.0252181 -0.0250504 -0.025458 -0.0261741 -0.0270082 -0.0278486 -0.0181104 -0.0182164 -0.0183716 -0.0186079 -0.0189687 -0.0195061 -0.0202774 -0.0213425 -0.0227619 -0.0245955 -0.0269008 -0.0297344 -0.0332978 -0.0368192 -0.0409244 -0.0455742 -0.0506797 -0.0561022 -0.0616623 -0.0671572 -0.0723831 -0.0771569 -0.0813334 -0.0848121 -0.0875242 -0.089469 -0.0906235 -0.091013 -0.0906808 -0.0896785 -0.0880592 -0.0858736 -0.0831655 -0.07997 -0.0763151 -0.0722227 -0.066644 -0.0609422 -0.0547773 -0.0484626 -0.0424332 -0.0371575 -0.0330179 -0.0302041 -0.0286746 -0.028201 -0.0284666 -0.0291648 -0.0300599 -0.0310051 -0.0211177 -0.0211626 -0.0212682 -0.0214666 -0.0218015 -0.0223247 -0.0230935 -0.0241671 -0.0256048 -0.0274649 -0.0298024 -0.0326684 -0.0361952 -0.0397565 -0.0438972 -0.0485756 -0.0537002 -0.0591298 -0.0646837 -0.070159 -0.0753534 -0.0800868 -0.0842183 -0.0876537 -0.0904065 -0.0923279 -0.0934677 -0.0938522 -0.0935279 -0.092551 -0.0909815 -0.088877 -0.0862882 -0.0832538 -0.0797981 -0.0759264 -0.0709842 -0.0657274 -0.0599292 -0.0538015 -0.0477117 -0.042125 -0.0374947 -0.0341323 -0.0321186 -0.0313032 -0.0313876 -0.0320389 -0.0329789 -0.0340231 -0.0239148 -0.0239013 -0.0239565 -0.0241124 -0.0244122 -0.0249072 -0.0256538 -0.0267104 -0.0281352 -0.0299845 -0.0323109 -0.0351598 -0.0385561 -0.0421004 -0.0462171 -0.0508653 -0.0559542 -0.0613439 -0.0668551 -0.0722867 -0.0774378 -0.0821298 -0.0862225 -0.0896235 -0.0924169 -0.0943177 -0.0954436 -0.0958188 -0.0954902 -0.0945174 -0.0929658 -0.0909007 -0.0883815 -0.0854558 -0.0821541 -0.0784854 -0.0742102 -0.0693861 -0.0640141 -0.0582096 -0.0522508 -0.0465562 -0.0416021 -0.037791 -0.0353256 -0.0341564 -0.0340309 -0.0346091 -0.0355771 -0.0367128 -0.0264368 -0.0263703 -0.0263767 -0.0264871 -0.0267436 -0.0271963 -0.0279003 -0.0289133 -0.0302921 -0.0320917 -0.0343628 -0.0371456 -0.0403176 -0.0437897 -0.0478275 -0.0523935 -0.0574012 -0.0627151 -0.0681595 -0.0735359 -0.0786443 -0.083305 -0.0873752 -0.0907594 -0.0935991 -0.0954882 -0.0966059 -0.0969723 -0.0966329 -0.095649 -0.0940906 -0.0920306 -0.0895377 -0.0866709 -0.083473 -0.0799694 -0.0763084 -0.0718599 -0.0669064 -0.061485 -0.0557835 -0.0501475 -0.0450337 -0.0408956 -0.0380401 -0.036528 -0.0361769 -0.0366608 -0.0376411 -0.0388602 -0.0286435 -0.0285313 -0.0284924 -0.0285563 -0.0287627 -0.0291598 -0.0298011 -0.0307428 -0.0320413 -0.0337509 -0.0359216 -0.0385901 -0.0414469 -0.0447941 -0.0487025 -0.0531412 -0.0580306 -0.063242 -0.0686052 -0.0739243 -0.0789991 -0.0836464 -0.0877172 -0.091108 -0.0940008 -0.0958918 -0.097011 -0.0973731 -0.0970208 -0.0960159 -0.0944324 -0.0923499 -0.0898466 -0.086993 -0.0838468 -0.0804555 -0.077318 -0.0731586 -0.0685643 -0.063517 -0.0581258 -0.0526558 -0.0475144 -0.0431671 -0.0399964 -0.0381688 -0.0375876 -0.0379618 -0.0389411 -0.0402368 -0.0305182 -0.0303696 -0.0302909 -0.030309 -0.0304603 -0.0307898 -0.0313485 -0.0321913 -0.0333741 -0.0349521 -0.0369766 -0.0394829 -0.0419381 -0.0451103 -0.0488437 -0.0531161 -0.0578574 -0.0629475 -0.0682222 -0.0734884 -0.0785443 -0.0832009 -0.0872995 -0.0907247 -0.0936746 -0.0955851 -0.0967189 -0.0970848 -0.0967215 -0.0956905 -0.0940688 -0.0919418 -0.0893964 -0.086514 -0.0833665 -0.0800247 -0.0773131 -0.0733391 -0.0690093 -0.0642716 -0.059175 -0.0539098 -0.0488206 -0.0443544 -0.0409377 -0.0388273 -0.0380185 -0.0382717 -0.0392394 -0.0406072 -0.0320666 -0.0318919 -0.0317805 -0.0317555 -0.0318486 -0.0320999 -0.0325569 -0.0332726 -0.0343035 -0.0357071 -0.0375384 -0.039835 -0.041808 -0.0447578 -0.0482752 -0.0523486 -0.0569188 -0.0618751 -0.06706 -0.0722824 -0.0773375 -0.0820284 -0.0861844 -0.0896745 -0.0926804 -0.0946317 -0.0957966 -0.0961776 -0.0958092 -0.0947512 -0.0930826 -0.0908938 -0.0882788 -0.0853282 -0.0821258 -0.0787634 -0.0763898 -0.0724888 -0.0683059 -0.0637725 -0.0588966 -0.0538077 -0.0487875 -0.044247 -0.0406296 -0.0382612 -0.0372264 -0.0373486 -0.0382956 -0.0397341 -0.0333119 -0.0331224 -0.0329868 -0.0329231 -0.0329563 -0.0331201 -0.0334568 -0.0340172 -0.0348589 -0.0360439 -0.0376343 -0.0396738 -0.0410909 -0.0437741 -0.0470398 -0.0508879 -0.0552707 -0.0600872 -0.0651858 -0.0703769 -0.0754513 -0.0802028 -0.0844468 -0.0880342 -0.0910874 -0.0931036 -0.0943195 -0.0947309 -0.0943671 -0.0932857 -0.0915662 -0.0893024 -0.0865937 -0.0835375 -0.0802261 -0.0767678 -0.0746583 -0.0707129 -0.0665448 -0.0620807 -0.0573049 -0.0523034 -0.0473042 -0.0426775 -0.0388652 -0.0362424 -0.0349733 -0.0349505 -0.0358677 -0.0373784 -0.0342902 -0.034098 -0.033948 -0.0338512 -0.0338242 -0.0338918 -0.0340896 -0.0344655 -0.0350795 -0.0360005 -0.0373016 -0.0390373 -0.0398334 -0.0422104 -0.0451948 -0.0487986 -0.0529852 -0.0576623 -0.0626834 -0.0678588 -0.0729743 -0.0778128 -0.082175 -0.0858927 -0.0889747 -0.0910828 -0.0923729 -0.0928338 -0.0924889 -0.0913924 -0.0896227 -0.0872751 -0.084452 -0.0812546 -0.0777799 -0.0741462 -0.0722376 -0.0681263 -0.0638298 -0.0592777 -0.0544444 -0.0493892 -0.0443009 -0.0395143 -0.0354629 -0.0325556 -0.0310251 -0.0308337 -0.0317086 -0.0332948 -0.035046 -0.0348643 -0.0347108 -0.0345876 -0.0345002 -0.0344624 -0.0345013 -0.034662 -0.0350078 -0.0356183 -0.0365821 -0.0379697 -0.0380904 -0.0401273 -0.0428086 -0.0461579 -0.050148 -0.0546935 -0.0596512 -0.06483 -0.0700095 -0.0749613 -0.0794708 -0.0833513 -0.0864328 -0.0886612 -0.0900515 -0.0905847 -0.0902773 -0.0891788 -0.0873648 -0.0849293 -0.081975 -0.0786033 -0.0749113 -0.0710191 -0.0692514 -0.0648478 -0.0602691 -0.0554524 -0.0503723 -0.0450768 -0.039732 -0.0346494 -0.0302572 -0.0269918 -0.0251448 -0.0247453 -0.0255584 -0.027224 -0.0356281 -0.0354719 -0.0353272 -0.0351846 -0.0350358 -0.0348811 -0.034738 -0.034649 -0.0346839 -0.0349369 -0.0355173 -0.0365168 -0.0359213 -0.0375927 -0.0399587 -0.0430533 -0.0468562 -0.051286 -0.0562001 -0.0614048 -0.0666725 -0.0717634 -0.0764476 -0.0805217 -0.0835618 -0.0859392 -0.0874576 -0.0880887 -0.0878414 -0.0867584 -0.0849105 -0.0823878 -0.0792894 -0.0757133 -0.0717512 -0.0675155 -0.0658227 -0.0609942 -0.0559683 -0.0506912 -0.0451455 -0.0393814 -0.0335589 -0.0279825 -0.0230862 -0.0193378 -0.0170833 -0.0164139 -0.0171349 -0.0188823 -0.0360877 -0.0359749 -0.035853 -0.0356978 -0.0354838 -