# vtk DataFile Version 2.0
Velocidades
ASCII

DATASET STRUCTURED_GRID
DIMENSIONS   50   50   20

POINTS   50000   double
0.00568455   0.00568455   0.025
0.0174023   0.00568455   0.025
0.0298294   0.00568455   0.025
0.0429888   0.00568455   0.025
0.0569012   0.00568455   0.025
0.0715849   0.00568455   0.025
0.0870549   0.00568455   0.025
0.103323   0.00568455   0.025
0.120395   0.00568455   0.025
0.138275   0.00568455   0.025
0.156961   0.00568455   0.025
0.176443   0.00568455   0.025
0.196707   0.00568455   0.025
0.217734   0.00568455   0.025
0.239496   0.00568455   0.025
0.261959   0.00568455   0.025
0.285082   0.00568455   0.025
0.308818   0.00568455   0.025
0.333113   0.00568455   0.025
0.357906   0.00568455   0.025
0.383132   0.00568455   0.025
0.408719   0.00568455   0.025
0.434592   0.00568455   0.025
0.460672   0.00568455   0.025
0.486877   0.00568455   0.025
0.513123   0.00568455   0.025
0.539328   0.00568455   0.025
0.565408   0.00568455   0.025
0.591281   0.00568455   0.025
0.616868   0.00568455   0.025
0.642094   0.00568455   0.025
0.666887   0.00568455   0.025
0.691182   0.00568455   0.025
0.714918   0.00568455   0.025
0.738041   0.00568455   0.025
0.760504   0.00568455   0.025
0.782266   0.00568455   0.025
0.803293   0.00568455   0.025
0.823557   0.00568455   0.025
0.843039   0.00568455   0.025
0.861725   0.00568455   0.025
0.879605   0.00568455   0.025
0.896677   0.00568455   0.025
0.912945   0.00568455   0.025
0.928415   0.00568455   0.025
0.943099   0.00568455   0.025
0.957011   0.00568455   0.025
0.970171   0.00568455   0.025
0.982598   0.00568455   0.025
0.994315   0.00568455   0.025
0.00568455   0.0174023   0.025
0.0174023   0.0174023   0.025
0.0298294   0.0174023   0.025
0.0429888   0.0174023   0.025
0.0569012   0.0174023   0.025
0.0715849   0.0174023   0.025
0.0870549   0.0174023   0.025
0.103323   0.0174023   0.025
0.120395   0.0174023   0.025
0.138275   0.0174023   0.025
0.156961   0.0174023   0.025
0.176443   0.0174023   0.025
0.196707   0.0174023   0.025
0.217734   0.0174023   0.025
0.239496   0.0174023   0.025
0.261959   0.0174023   0.025
0.285082   0.0174023   0.025
0.308818   0.0174023   0.025
0.333113   0.0174023   0.025
0.357906   0.0174023   0.025
0.383132   0.0174023   0.025
0.408719   0.0174023   0.025
0.434592   0.0174023   0.025
0.460672   0.0174023   0.025
0.486877   0.0174023   0.025
0.513123   0.0174023   0.025
0.539328   0.0174023   0.025
0.565408   0.0174023   0.025
0.591281   0.0174023   0.025
0.616868   0.0174023   0.025
0.642094   0.0174023   0.025
0.666887   0.0174023   0.025
0.691182   0.0174023   0.025
0.714918   0.0174023   0.025
0.738041   0.0174023   0.025
0.760504   0.0174023   0.025
0.782266   0.0174023   0.025
0.803293   0.0174023   0.025
0.823557   0.0174023   0.025
0.843039   0.0174023   0.025
0.861725   0.0174023   0.025
0.879605   0.0174023   0.025
0.896677   0.0174023   0.025
0.912945   0.0174023   0.025
0.928415   0.0174023   0.025
0.943099   0.0174023   0.025
0.957011   0.0174023   0.025
0.970171   0.0174023   0.025
0.982598   0.0174023   0.025
0.994315   0.0174023   0.025
0.00568455   0.0298294   0.025
0.0174023   0.0298294   0.025
0.0298294   0.0298294   0.025
0.0429888   0.0298294   0.025
0.0569012   0.0298294   0.025
0.0715849   0.0298294   0.025
0.0870549   0.0298294   0.025
0.103323   0.0298294   0.025
0.120395   0.0298294   0.025
0.138275   0.0298294   0.025
0.156961   0.0298294   0.025
0.176443   0.0298294   0.025
0.196707   0.0298294   0.025
0.217734   0.0298294   0.025
0.239496   0.0298294   0.025
0.261959   0.0298294   0.025
0.285082   0.0298294   0.025
0.308818   0.0298294   0.025
0.333113   0.0298294   0.025
0.357906   0.0298294   0.025
0.383132   0.0298294   0.025
0.408719   0.0298294   0.025
0.434592   0.0298294   0.025
0.460672   0.0298294   0.025
0.486877   0.0298294   0.025
0.513123   0.0298294   0.025
0.539328   0.0298294   0.025
0.565408   0.0298294   0.025
0.591281   0.0298294   0.025
0.616868   0.0298294   0.025
0.642094   0.0298294   0.025
0.666887   0.0298294   0.025
0.691182   0.0298294   0.025
0.714918   0.0298294   0.025
0.738041   0.0298294   0.025
0.760504   0.0298294   0.025
0.782266   0.0298294   0.025
0.803293   0.0298294   0.025
0.823557   0.0298294   0.025
0.843039   0.0298294   0.025
0.861725   0.0298294   0.025
0.879605   0.0298294   0.025
0.896677   0.0298294   0.025
0.912945   0.0298294   0.025
0.928415   0.0298294   0.025
0.943099   0.0298294   0.025
0.957011   0.0298294   0.025
0.970171   0.0298294   0.025
0.982598   0.0298294   0.025
0.994315   0.0298294   0.025
0.00568455   0.0429888   0.025
0.0174023   0.0429888   0.025
0.0298294   0.0429888   0.025
0.0429888   0.0429888   0.025
0.0569012   0.0429888   0.025
0.0715849   0.0429888   0.025
0.0870549   0.0429888   0.025
0.103323   0.0429888   0.025
0.120395   0.0429888   0.025
0.138275   0.0429888   0.025
0.156961   0.0429888   0.025
0.176443   0.0429888   0.025
0.196707   0.0429888   0.025
0.217734   0.0429888   0.025
0.239496   0.0429888   0.025
0.261959   0.0429888   0.025
0.285082   0.0429888   0.025
0.308818   0.0429888   0.025
0.333113   0.0429888   0.025
0.357906   0.0429888   0.025
0.383132   0.0429888   0.025
0.408719   0.0429888   0.025
0.434592   0.0429888   0.025
0.460672   0.0429888   0.025
0.486877   0.0429888   0.025
0.513123   0.0429888   0.025
0.539328   0.0429888   0.025
0.565408   0.0429888   0.025
0.591281   0.0429888   0.025
0.616868   0.0429888   0.025
0.642094   0.0429888   0.025
0.666887   0.0429888   0.025
0.691182   0.0429888   0.025
0.714918   0.0429888   0.025
0.738041   0.0429888   0.025
0.760504   0.0429888   0.025
0.782266   0.0429888   0.025
0.803293   0.0429888   0.025
0.823557   0.0429888   0.025
0.843039   0.0429888   0.025
0.861725   0.0429888   0.025
0.879605   0.0429888   0.025
0.896677   0.0429888   0.025
0.912945   0.0429888   0.025
0.928415   0.0429888   0.025
0.943099   0.0429888   0.025
0.957011   0.0429888   0.025
0.970171   0.0429888   0.025
0.982598   0.0429888   0.025
0.994315   0.0429888   0.025
0.00568455   0.0569012   0.025
0.0174023   0.0569012   0.025
0.0298294   0.0569012   0.025
0.0429888   0.0569012   0.025
0.0569012   0.0569012   0.025
0.0715849   0.0569012   0.025
0.0870549   0.0569012   0.025
0.103323   0.0569012   0.025
0.120395   0.0569012   0.025
0.138275   0.0569012   0.025
0.156961   0.0569012   0.025
0.176443   0.0569012   0.025
0.196707   0.0569012   0.025
0.217734   0.0569012   0.025
0.239496   0.0569012   0.025
0.261959   0.0569012   0.025
0.285082   0.0569012   0.025
0.308818   0.0569012   0.025
0.333113   0.0569012   0.025
0.357906   0.0569012   0.025
0.383132   0.0569012   0.025
0.408719   0.0569012   0.025
0.434592   0.0569012   0.025
0.460672   0.0569012   0.025
0.486877   0.0569012   0.025
0.513123   0.0569012   0.025
0.539328   0.0569012   0.025
0.565408   0.0569012   0.025
0.591281   0.0569012   0.025
0.616868   0.0569012   0.025
0.642094   0.0569012   0.025
0.666887   0.0569012   0.025
0.691182   0.0569012   0.025
0.714918   0.0569012   0.025
0.738041   0.0569012   0.025
0.760504   0.0569012   0.025
0.782266   0.0569012   0.025
0.803293   0.0569012   0.025
0.823557   0.0569012   0.025
0.843039   0.0569012   0.025
0.861725   0.0569012   0.025
0.879605   0.0569012   0.025
0.896677   0.0569012   0.025
0.912945   0.0569012   0.025
0.928415   0.0569012   0.025
0.943099   0.0569012   0.025
0.957011   0.0569012   0.025
0.970171   0.0569012   0.025
0.982598   0.0569012   0.025
0.994315   0.0569012   0.025
0.00568455   0.0715849   0.025
0.0174023   0.0715849   0.025
0.0298294   0.0715849   0.025
0.0429888   0.0715849   0.025
0.0569012   0.0715849   0.025
0.0715849   0.0715849   0.025
0.0870549   0.0715849   0.025
0.103323   0.0715849   0.025
0.120395   0.0715849   0.025
0.138275   0.0715849   0.025
0.156961   0.0715849   0.025
0.176443   0.0715849   0.025
0.196707   0.0715849   0.025
0.217734   0.0715849   0.025
0.239496   0.0715849   0.025
0.261959   0.0715849   0.025
0.285082   0.0715849   0.025
0.308818   0.0715849   0.025
0.333113   0.0715849   0.025
0.357906   0.0715849   0.025
0.383132   0.0715849   0.025
0.408719   0.0715849   0.025
0.434592   0.0715849   0.025
0.460672   0.0715849   0.025
0.486877   0.0715849   0.025
0.513123   0.0715849   0.025
0.539328   0.0715849   0.025
0.565408   0.0715849   0.025
0.591281   0.0715849   0.025
0.616868   0.0715849   0.025
0.642094   0.0715849   0.025
0.666887   0.0715849   0.025
0.691182   0.0715849   0.025
0.714918   0.0715849   0.025
0.738041   0.0715849   0.025
0.760504   0.0715849   0.025
0.782266   0.0715849   0.025
0.803293   0.0715849   0.025
0.823557   0.0715849   0.025
0.843039   0.0715849   0.025
0.861725   0.0715849   0.025
0.879605   0.0715849   0.025
0.896677   0.0715849   0.025
0.912945   0.0715849   0.025
0.928415   0.0715849   0.025
0.943099   0.0715849   0.025
0.957011   0.0715849   0.025
0.970171   0.0715849   0.025
0.982598   0.0715849   0.025
0.994315   0.0715849   0.025
0.00568455   0.0870549   0.025
0.0174023   0.0870549   0.025
0.0298294   0.0870549   0.025
0.0429888   0.0870549   0.025
0.0569012   0.0870549   0.025
0.0715849   0.0870549   0.025
0.0870549   0.0870549   0.025
0.103323   0.0870549   0.025
0.120395   0.0870549   0.025
0.138275   0.0870549   0.025
0.156961   0.0870549   0.025
0.176443   0.0870549   0.025
0.196707   0.0870549   0.025
0.217734   0.0870549   0.025
0.239496   0.0870549   0.025
0.261959   0.0870549   0.025
0.285082   0.0870549   0.025
0.308818   0.0870549   0.025
0.333113   0.0870549   0.025
0.357906   0.0870549   0.025
0.383132   0.0870549   0.025
0.408719   0.0870549   0.025
0.434592   0.0870549   0.025
0.460672   0.0870549   0.025
0.486877   0.0870549   0.025
0.513123   0.0870549   0.025
0.539328   0.0870549   0.025
0.565408   0.0870549   0.025
0.591281   0.0870549   0.025
0.616868   0.0870549   0.025
0.642094   0.0870549   0.025
0.666887   0.0870549   0.025
0.691182   0.0870549   0.025
0.714918   0.0870549   0.025
0.738041   0.0870549   0.025
0.760504   0.0870549   0.025
0.782266   0.0870549   0.025
[...]
POINT_DATA   50000
VECTORS Velocidades double

-7.45539e-05 -0.00163803 0
-0.000201862 -0.00321529 0
-0.000277716 -0.00410163 0
-0.000306546 -0.00459843 0
-0.000315342 -0.00482806 0
-0.000330464 -0.00485251 0
-0.000371883 -0.00470983 0
-0.000453564 -0.00442694 0
-0.000584888 -0.0040241 0
-0.000772189 -0.00351575 0
-0.0010208 -0.00290745 0
-0.0011446 -0.00218264 0
-0.00132125 -0.00124353 0
-0.00175521 -0.00053996 0
-0.0022629 4.49143e-05 0
-0.00281734 0.000537796 0
-0.00340931 0.00093616 0
-0.00402992 0.00122389 0
-0.00466627 0.00137931 0
-0.00529975 0.00138163 0
-0.00590536 0.00121664 0
-0.00645234 0.000881696 0
-0.00690679 0.000389102 0
-0.00722481 -0.000231499 0
-0.00736476 -0.000922439 0
-0.0072983 -0.00161637 0
-0.00700935 -0.002236 0
-0.0065018 -0.00270864 0
-0.00579931 -0.00297188 0
-0.00494584 -0.00298225 0
-0.00400158 -0.00272228 0
-0.00303503 -0.00220408 0
-0.00211312 -0.00146854 0
-0.00129142 -0.000581114 0
-0.000605828 0.000373026 0
-0.00022173 0.00128725 0
1.43658e-05 0.00200509 0
0.000279761 0.00283615 0
0.000441599 0.00362526 0
0.000505789 0.00431403 0
0.000491753 0.00487667 0
0.000419035 0.00530126 0
0.000305676 0.00558165 0
0.000168674 0.00571309 0
2.50106e-05 0.0056889 0
-0.000106922 0.00549663 0
-0.000205561 0.00511113 0
-0.000245245 0.00447875 0
-0.000201877 0.00347471 0
-7.84341e-05 0.00176725 0
-0.000249446 -0.00301132 0
-0.000657656 -0.00627182 0
-0.000870402 -0.00815234 0
-0.000928688 -0.00919304 0
-0.000934555 -0.00965482 0
-0.00096843 -0.00967916 0
-0.00108726 -0.00935388 0
-0.00133076 -0.00874024 0
-0.00172634 -0.00788348 0
-0.00229339 -0.00681473 0
-0.00304941 -0.0055446 0
-0.00338023 -0.00403529 0
-0.00393356 -0.00210724 0
-0.00533503 -0.000656283 0
-0.006916 0.000542328 0
-0.00864067 0.00154922 0
-0.0104844 0.00236059 0
-0.0124173 0.00294205 0
-0.014395 0.00324664 0
-0.0163536 0.00322867 0
-0.0182095 0.00285597 0
-0.0198624 0.00212061 0
-0.0212035 0.00104687 0
-0.022109 -0.000303712 0
-0.0224598 -0.00183374 0
-0.0221762 -0.00337428 0
-0.0212285 -0.00476707 0
-0.0196418 -0.00585679 0
-0.0174936 -0.00650671 0
-0.0149145 -0.0066184 0
-0.0120769 -0.00614834 0
-0.00917522 -0.00511664 0
-0.00640009 -0.00360649 0
-0.0039136 -0.00175591 0
-0.00182607 0.000251766 0
-0.000691459 0.00218325 0
3.57748e-05 0.0037132 0
0.000902908 0.00547344 0
0.00141475 0.00714644 0
0.0016187 0.00860754 0
0.00157548 0.00980329 0
0.00134478 0.0107095 0
0.00098246 0.0113134 0
0.000541808 0.0116036 0
7.62379e-05 0.0115637 0
-0.000356917 0.0111629 0
-0.000690731 0.0103408 0
-0.000841245 0.00897414 0
-0.000709962 0.00680053 0
-0.000280529 0.00323677 0
-0.000180228 -0.00254388 0
-0.000573463 -0.00588734 0
-0.00093857 -0.00794932 0
-0.00119676 -0.00908895 0
-0.00140767 -0.00955975 0
-0.00166048 -0.00952775 0
-0.00203601 -0.00910472 0
-0.0025983 -0.00836981 0
-0.00339575 -0.0073802 0
-0.00446531 -0.00617354 0
-0.00583842 -0.00476092 0
-0.00646003 -0.00310026 0
-0.00741471 -0.00104671 0
-0.00977003 0.000517815 0
-0.0124158 0.00179821 0
-0.0153079 0.00286528 0
-0.0184006 0.00371644 0
-0.0216353 0.00431132 0
-0.0249286 0.00459335 0
-0.0281672 0.00450618 0
-0.0312067 0.00400803 0
-0.0338785 0.00308452 0
-0.0360017 0.00175901 0
-0.0374126 9.73819e-05 0
-0.037915 -0.00182598 0
-0.0373716 -0.00377718 0
-0.0357737 -0.00558095 0
-0.0331679 -0.007056 0
-0.0296792 -0.00803522 0
-0.0255101 -0.0083913 0
-0.0209237 -0.00805879 0
-0.0162151 -0.00704715 0
-0.0116759 -0.0054425 0
-0.00755774 -0.00340021 0
-0.00403928 -0.00113552 0
-0.00210428 0.00107257 0
-0.000843714 0.00286769 0
0.000686829 0.00489529 0
0.00164209 0.00682186 0
0.00210386 0.00850727 0
0.00216607 0.00989299 0
0.00192327 0.0109527 0
0.00146771 0.0116703 0
0.000890306 0.0120292 0
0.000283136 0.0120036 0
-0.000257904 0.0115487 0
-0.000632661 0.010585 0
-0.000746799 0.00897184 0
-0.000556142 0.00646965 0
-0.000192209 0.00272284 0
-0.000114327 -0.00220512 0
-0.000440472 -0.0054241 0
-0.000883575 -0.00755252 0
-0.00135136 -0.00875221 0
-0.00185389 -0.00921417 0
-0.00245384 -0.00910246 0
-0.00322851 -0.0085455 0
-0.0042508 -0.00764093 0
-0.00558269 -0.00646071 0
-0.00727488 -0.0050521 0
-0.00936837 -0.00343112 0
-0.0103444 -0.00156222 0
-0.0117341 0.000659647 0
-0.0150686 0.00238675 0
-0.0187922 0.00379712 0
-0.0228586 0.00496075 0
-0.027201 0.00587153 0
-0.0317273 0.00647905 0
-0.0363111 0.00671258 0
-0.0407859 0.00650057 0
-0.0449467 0.00578803 0
-0.0485596 0.00455239 0
-0.0513778 0.00281638 0
-0.0532319 0.000652552 0
-0.0538478 -0.00185961 0
-0.0530281 -0.00443086 0
-0.0508122 -0.00685222 0
-0.0472645 -0.00890497 0
-0.0425478 -0.0103796 0
-0.0369201 -0.0111089 0
-0.0307144 -0.0109966 0
-0.0243055 -0.0100361 0
-0.0180677 -0.00831566 0
-0.0123316 -0.00601239 0
-0.00734475 -0.00338224 0
-0.00457678 -0.00075776 0
-0.00273795 0.00146419 0
-0.000448965 0.00390232 0
0.00106387 0.00620916 0
0.00191584 0.00823201 0
0.00222877 0.00990525 0
0.00212648 0.0111967 0
0.00173299 0.0120833 0
0.00117203 0.012539 0
0.000566203 0.0125259 0
3.38882e-05 0.0119859 0
-0.000320336 0.0108316 0
-0.000428757 0.0089398 0
-0.000304427 0.00616215 0
-9.62477e-05 0.00239211 0
-8.24884e-05 -0.00196537 0
-0.000375254 -0.0049375 0
-0.0008856 -0.0069724 0
-0.00155958 -0.00812073 0
-0.00239103 -0.00850484 0
-0.0034162 -0.00826444 0
-0.00469499 -0.007529 0
-0.00629444 -0.00640713 0
-0.00827875 -0.00498336 0
-0.0107041 -0.00331581 0
-0.0136148 -0.00143048 0
-0.014998 0.000691311 0
-0.0168585 0.00311017 0
-0.0212181 0.00504196 0
-0.0260499 0.00662797 0
-0.0313078 0.00792316 0
-0.0369055 0.0089094 0
-0.0427162 0.00952069 0
-0.0485679 0.00966765 0
-0.0542406 0.00925987 0
-0.0594712 0.00822697 0
-0.0639662 0.00653798 0
-0.0674227 0.00421708 0
-0.0696814 0.00135033 0
-0.0703978 -0.00195049 0
-0.0693236 -0.00534758 0
-0.0665559 -0.0085907 0
-0.0621687 -0.0114142 0
-0.0563484 -0.0135558 0
-0.0493911 -0.0147986 0
-0.0416807 -0.0150071 0
-0.0336539 -0.0141519 0
-0.0257555 -0.0123198 0
-0.0183899 -0.00970993 0
-0.0118779 -0.00662199 0
-0.008244 -0.00344474 0
-0.00577513 -0.000622275 0
-0.00260516 0.00237079 0
-0.000396678 0.00518243 0
0.000995914 0.00765441 0
0.00171641 0.00971337 0
0.00191106 0.0113175 0
0.00172855 0.0124327 0
0.00131687 0.0130213 0
0.000817664 0.0130354 0
0.000357169 0.012413 0
3.17044e-05 0.0110786 0
-0.000112774 0.00895477 0
-0.000101437 0.00599346 0
-3.24881e-05 0.00223672 0
-7.70986e-05 -0.00175947 0
-0.000386558 -0.00439816 0
-0.000999591 -0.0061883 0
-0.00190359 -0.00714277 0
-0.00309813 -0.0073395 0
-0.00460543 -0.00689009 0
-0.00646753 -0.00591362 0
-0.00873818 -0.0045199 0
-0.0114745 -0.00280032 0
-0.01473 -0.000822557 0
-0.0185453 0.00137407 0
-0.0203805 0.00378423 0
-0.0227467 0.00642011 0
-0.0281865 0.00859098 0
-0.0341674 0.0103918 0
-0.0406428 0.0118479 0
-0.0475069 0.0129184 0
-0.0545988 0.0135148 0
-0.0617013 0.0135246 0
-0.068544 0.0128361 0
-0.074811 0.0113629 0
-0.0801581 0.00906706 0
-0.0842383 0.00597839 0
-0.0868899 0.00220495 0
-0.087722 -0.00209087 0
-0.0864651 -0.00651408 0
-0.0832553 -0.0107819 0
-0.0781627 -0.0145741 0
-0.0713806 -0.0175666 0
-0.0632245 -0.0194834 0
-0.0541117 -0.0201401 0
-0.0445269 -0.0194756 0
-0.0349769 -0.0175676 0
-0.0259398 -0.0146327 0
-0.0178174 -0.0110122 0
-0.0132723 -0.00715134 0
-0.0101089 -0.00354889 0
-0.00590629 0.000142181 0
-0.00283613 0.00358158 0
-0.000730357 0.00661568 0
0.000568335 0.00916378 0
0.00122057 0.0111707 0
0.00139181 0.0125882 0
0.00124618 0.0133672 0
0.000936435 0.0134545 0
0.000591796 0.0127949 0
0.000304729 0.0113387 0
0.000119952 0.00905888 0
3.26078e-05 0.00597884 0
4.87267e-06 0.00220234 0
-8.93171e-05 -0.00153264 0
-0.000460867 -0.00373681 0
-0.00122907 -0.00513664 0
-0.00240938 -0.00574561 0
-0.00401234 -0.00562313 0
-0.00605501 -0.00486031 0
-0.00856579 -0.00356217 0
-0.0115837 -0.00183228 0
-0.0151538 0.000237551 0
-0.0193203 0.00257318 0
-0.0241161 0.00512098 0
-0.0264405 0.0078478 0
-0.0293439 0.0107154 0
-0.0359206 0.0131532 0
-0.0430962 0.0152 0
-0.0508196 0.0168377 0
-0.0589657 0.0179917 0
-0.0673404 0.0185438 0
-0.0756856 0.0183546 0
-0.0836856 0.0172894 0
-0.0909806 0.0152472 0
-0.0971874 0.0121864 0
-0.101926 0.00814691 0
-0.104987 0.00326577 0
-0.10598 -0.00223758 0
-0.104671 -0.00788071 0
-0.101179 -0.013378 0
-0.0955527 -0.0183481 0
-0.0879738 -0.0223965 0
-0.0787587 -0.0251781 0
-0.0683408 -0.0264482 0
-0.057241 -0.0261011 0
-0.046023 -0.0241935 0
-0.0352413 -0.0209489 0
-0.0253884 -0.0167435 0
-0.0198685 -0.0120769 0
-0.0159279 -0.00751161 0
-0.0105051 -0.0029849 0
-0.00637292 0.00120395 0
-0.00335358 0.00491887 0
-0.00128783 0.00807179 0
-9.25201e-06 0.0105898 0
0.000657895 0.0124074 0
0.000889166 0.0134643 0
0.000846666 0.0137068 0
0.000666229 0.0130926 0
0.000447798 0.0116001 0
0.000252157 0.00924278 0
0.000107203 0.00608369 0
2.45983e-05 0.00224313 0
-0.000113597 -0.00124147 0
-0.000584424 -0.00287224 0
-0.00156134 -0.00372594 0
-0.00307378 -0.00383165 0
-0.0051392 -0.00324706 0
-0.0077718 -0.00205218 0
-0.0109895 -0.000338823 0
-0.0148172 0.00179986 0
-0.0192864 0.00427708 0
-0.024429 0.00701606 0
-0.0302666 0.0099498 0
-0.0331091 0.0130164 0
-0.0365766 0.0161275 0
-0.0443426 0.0188551 0
-0.0527568 0.0211704 0
-0.0617594 0.0230003 0
-0.0712049 0.0242266 0
-0.0808694 0.024695 0
-0.0904591 0.024236 0
-0.0996224 0.0226928 0
-0.107967 0.0199518 0
-0.115082 0.0159716 0
-0.120566 0.0108068 0
-0.124077 0.00462526 0
-0.125307 -0.00230095 0
-0.124137 -0.00935181 0
-0.120574 -0.0162898 0
-0.114627 -0.022665 0
-0.106446 -0.0280038 0
-0.0963307 -0.0318819 0
-0.0847135 -0.0339801 0
-0.0721389 -0.0341314 0
-0.0592225 -0.032353 0
-0.0465985 -0.0288588 0
-0.0348608 -0.0240474 0
-0.0282828 -0.0184681 0
-0.0234607 -0.0127555 0
-0.0165853 -0.0072662 0
-0.0111475 -0.00220639 0
-0.00697897 0.00232014 0
-0.00393276 0.00621483 0
-0.00184459 0.00938012 0
-0.000532056 0.0117281 0
0.000191578 0.0131864 0
0.000501252 0.0137016 0
0.000547172 0.0132449 0
0.000447747 0.011818 0
0.000289683 0.00946111 0
0.000135008 0.00625662 0
3.25247e-05 0.00232515 0
-0.000146682 -0.000849483 0
-0.000746607 -0.00172234 0
-0.00198026 -0.00185165 0
-0.00388004 -0.00128614 0
-0.0064634 -8.96104e-05 0
-0.00973939 0.00166307 0
-0.0137157 0.00389177 0
-0.0184044 0.00651637 0
-0.0238227 0.00945943 0
-0.0299896 0.0126454 0
-0.0369147 0.0159963 0
-0.0402952 0.0194223 0
-0.0443469 0.0227882 0
-0.0533453 0.0258243 0
-0.0630347 0.0284227 0
-0.0733429 0.0304455 0
-0.0841039 0.0317229 0
-0.0950681 0.03206 0
-0.105914 0.0312564 0
-0.116265 0.0291346 0
-0.125707 0.025572 0
-0.133816 0.0205312 0
-0.140176 0.0140829 0
-0.144195 0.00642258 0
-0.145761 -0.0021375 0
-0.144977 -0.01078 0
-0.141603 -0.019381 0
-0.135588 -0.027411 0
-0.127038 -0.0343108 0
-0.116215 -0.039566 0
-0.103532 -0.0427674 0
-0.0895441 -0.0436653 0
-0.0749079 -0.0422131 0
-0.0603371 -0.0385907 0
-0.0465364 -0.0331994 0
-0.0388052 -0.0266274 0
-0.0329745 -0.0195875 0
-0.0243592 -0.0130261 0
-0.0173195 -0.00697149 0
-0.0117234 -0.0014818 0
-0.00745195 0.00332375 0
-0.00434943 0.00731061 0
-0.00222702 0.0103601 0
-0.000883097 0.012383 0
-0.000123224 0.0133238 0
0.000225835 0.013163 0
0.000309387 0.011919 0
0.000244842 0.00964845 0
0.00012652 0.00644316 0
3.22327e-05 0.0024224 0
-0.000186441 -0.000324212 0
-0.000939003 -0.000208091 0
-0.00246931 0.000593464 0
-0.00480465 0.00201239 0
-0.00795563 0.00397697 0
-0.0119219 0.00641602 0
-0.0166995 0.00926166 0
-0.0222871 0.0124496 0
-0.0286886 0.0159159 0
-0.0359103 0.0195903 0
-0.0439505 0.0233865 0
-0.0478791 0.0271901 0
-0.0525268 0.0308231 0
-0.0627861 0.0341836 0
-0.0737745 0.0370723 0
-0.0854041 0.0392792 0
-0.0974899 0.0405784 0
-0.109762 0.0407326 0
-0.12188 0.0395108 0
-0.133454 0.0367177 0
-0.14406 0.0322256 0
-0.153268 0.0260031 0
-0.160658 0.0181358 0
-0.165247 0.00883886 0
-0.167261 -0.00155014 0
-0.167148 -0.0119678 0
-0.164254 -0.0224663 0
-0.158462 -0.0324231 0
-0.149819 -0.0411902 0
-0.138533 -0.048155 0
-0.124977 -0.0528017 0
-0.109691 -0.0547739 0
-0.0933587 -0.0539309 0
-0.0767633 -0.0503855 0
-0.060723 -0.0445118 0
-0.0517483 -0.0369164 0
-0.044764 -0.0283887 0
-0.0340598 -0.0206728 0
-0.0250625 -0.0134924 0
-0.0177119 -0.00685619 0
-0.0119342 -0.00092652 0
-0.00758539 0.00410508 0
-0.00446768 0.00807595 0
-0.00235826 0.0108717 0
-0.00103515 0.0124288 0
-0.000293837 0.0127319 0
4.43192e-05 0.0118096 0
0.000130359 0.00972941 0
8.98055e-05 0.00659022 0
2.60404e-05 0.00251383 0
-0.000231158 0.000363646 0
-0.00115396 0.00174372 0
-0.00301114 0.00371165 0
-0.00581902 0.0061818 0
-0.00957551 0.00907659 0
-0.0142665 0.012331 0
-0.0198739 0.015893 0
-0.0263822 0.0197186 0
-0.0337825 0.0237622 0
-0.0420695 0.027963 0
-0.051232 0.0322305 0
-0.0557082 0.036429 0
-0.0609535 0.0403443 0
-0.0724818 0.0440419 0
-0.0847728 0.0472213 0
-0.0977216 0.0495962 0
-0.111127 0.0508828 0
-0.124704 0.0508017 0
-0.138103 0.0490942 0
-0.15093 0.0455505 0
-0.162761 0.0400404 0
-0.173168 0.0325393 0
-0.181729 0.0231441 0
-0.186935 0.0120809 0
-0.189505 -0.000300467 0
-0.190354 -0.0126789 0
-0.188242 -0.025316 0
-0.18299 -0.0374846 0
-0.174579 -0.0484516 0
-0.163144 -0.0575021 0
-0.148994 -0.064001 0
-0.132626 -0.0674617 0
-0.114717 -0.0676145 0
-0.0960971 -0.0644627 0
-0.0776866 -0.0583104 0
-0.0674139 -0.0497472 0
-0.0591243 -0.0396226 0
-0.0459227 -0.0307086 0
-0.0345549 -0.0222571 0
-0.0250769 -0.0142476 0
-0.0174743 -0.00692472 0
-0.0116171 -0.000566055 0
-0.00729371 0.00460318 0
-0.00425323 0.0084318 0
-0.00223802 0.0108404 0
-0.00100475 0.0118119 0
-0.000335743 0.0113809 0
-4.31516e-05 0.00962339 0
3.08241e-05 0.00664706 0
1.55212e-05 0.00258177 0
-0.000279112 0.00123966 0
-0.00138343 0.0041971 0
-0.00358638 0.00759284 0
-0.00688903 0.0113262 0
-0.0112722 0.0153181 0
-0.0167044 0.0195156 0
-0.0231507 0.0238887 0
-0.030581 0.0284206 0
-0.0389738 0.0330901 0
-0.0483134 0.0378513 0
-0.0585808 0.0426134 0
-0.0635928 0.0472242 0
-0.0694245 0.0514401 0
-0.0822027 0.0554842 0
-0.0957719 0.0589485 0
-0.11001 0.0614689 0
-0.124702 0.0627054 0
-0.139556 0.062339 0
-0.154218 0.0600867 0
-0.168297 0.0557274 0
-0.181377 0.0491307 0
-0.193036 0.0402779 0
-0.202858 0.0292747 0
-0.208691 0.0163509 0
-0.211896 0.00186356 0
-0.21396 -0.0126621 0
-0.212912 -0.0276694 0
-0.208526 -0.0423263 0
-0.200714 -0.0558282 0
-0.189526 -0.0673625 0
-0.175179 -0.0761703 0
-0.158087 -0.0816154 0
-0.138876 -0.0832647 0
-0.118376 -0.0809631 0
-0.097577 -0.0748869 0
-0.0860331 -0.0655529 0
-0.0763039 -0.0538312 0
-0.0601581 -0.0437253 0
-0.0459707 -0.0338362 0
-0.0339597 -0.0241753 0
-0.0241823 -0.0151271 0
-0.0165237 -0.00709232 0
-0.0107563 -0.000382389 0
-0.00659568 0.00479953 0
-0.00374163 0.00834841 0
-0.00190527 0.0102394 0
-0.000824094 0.0105101 0
-0.000269061 0.00924534 0
-4.66706e-05 0.00656438 0
1.66146e-06 0.00261074 0
-0.000328343 0.00232403 0
-0.00161816 0.00720203 0
-0.00417243 0.0123067 0
-0.00797414 0.0175253 0
-0.0129841 0.0227835 0
-0.0191508 0.0280484 0
-0.0264212 0.0333214 0
-0.0347496 0.0386211 0
-0.0441022 0.0439587 0
-0.0544543 0.049309 0
-0.0657811 0.0545862 0
-0.0713038 0.0596265 0
-0.0776954 0.0641634 0
-0.091669 0.0685587 0
-0.106454 0.0722948 0
-0.121912 0.0749321 0
-0.137817 0.0760781 0
-0.153872 0.0753781 0
-0.169727 0.0725282 0
-0.184995 0.0672991 0
-0.19927 0.0595616 0
-0.212144 0.049304 0
-0.223215 0.03664 0
-0.229629 0.0218042 0
-0.233494 0.00516348 0
-0.236941 -0.0116867 0
-0.237177 -0.0292578 0
-0.233959 -0.0466381 0
-0.22714 -0.0629742 0
-0.216673 -0.0773737 0
-0.202656 -0.0889619 0
-0.185374 -0.0969464 0
-0.165343 -0.100702 0
-0.143327 -0.0998663 0
-0.120321 -0.0944182 0
-0.107672 -0.0847246 0
-0.0964272 -0.0716025 0
-0.0769085 -0.0603678 0
-0.0594656 -0.0488551 0
-0.0445147 -0.0372197 0
-0.0321947 -0.0260552 0
-0.0224141 -0.0159278 0
-0.0149337 -0.00726414 0
-0.00943564 -0.000339439 0
-0.00557354 0.00470276 0
-0.00300736 0.00782262 0
-0.00142375 0.00905794 0
-0.000546741 0.00850288 0
-0.000141642 0.0062916 0
-1.51825e-05 0.00258608 0
-0.000376528 0.00362919 0
-0.0018473 0.0107884 0
-0.00474282 0.0178936 0
-0.00902681 0.0248236 0
-0.0146388 0.0315158 0
-0.0215064 0.0379672 0
-0.0295574 0.0442211 0
-0.0387306 0.0503423 0
-0.0489802 0.0563826 0
-0.0602731 0.0623451 0
-0.0725802 0.0681541 0
-0.0785739 0.0736392 0
-0.0854803 0.0785179 0
-0.10055 0.083261 0
-0.11644 0.0872464 0
-0.132995 0.089964 0
-0.149979 0.090973 0
-0.167093 0.0898876 0
-0.183988 0.0863863 0
-0.200285 0.0802347 0
-0.21559 0.0713076 0
-0.229514 0.0596041 0
-0.241684 0.0452521 0
-0.24856 0.0284991 0
-0.253038 0.00973384 0
-0.257893 -0.00958592 0
-0.25953 -0.0298401 0
-0.257724 -0.0500948 0
-0.252279 -0.0694793 0
-0.243052 -0.0870542 0
-0.230001 -0.101855 0
-0.213242 -0.112944 0
-0.193114 -0.119494 0
-0.170227 -0.120893 0
-0.145489 -0.116854 0
-0.132099 -0.107501 0
-0.11938 -0.0934842 0
-0.0961862 -0.0812462 0
-0.0751518 -0.067933 0
-0.0569035 -0.0539901 0
-0.0416796 -0.0402842 0
-0.0294365 -0.027592 0
-0.0199427 -0.0164919 0
-0.0128567 -0.00735936 0
-0.00778827 -0.000395679 0
-0.00434308 0.00433319 0
-0.00215136 0.00686054 0
-0.000883404 0.00728963 0
-0.000256385 0.00577197 0
-3.53902e-05 0.00249189 0
-0.000420969 0.00515704 0
-0.00205833 0.0149592 0
-0.00526732 0.0243552 0
-0.00999309 0.0332189 0
-0.0161546 0.0415071 0
-0.023659 0.0492566 0
-0.0324154 0.0565643 0
-0.0423473 0.0635519 0
-0.053397 0.0703218 0
-0.0655238 0.0769123 0
-0.078694 0.0832641 0
-0.0851027 0.0892051 0
-0.0924574 0.0944419 0
-0.108471 0.0995175 0
-0.125296 0.103716 0
-0.142758 0.106464 0
-0.160612 0.107277 0
-0.178554 0.105742 0
-0.196235 0.101523 0
-0.213283 0.0943857 0
-0.229319 0.0842142 0
-0.243979 0.071028 0
-0.256936 0.0549815 0
-0.264088 0.0363518 0
-0.269043 0.0155647 0
-0.275159 -0.00630238 0
-0.278173 -0.0292472 0
-0.277912 -0.0523998 0
-0.274152 -0.0749087 0
-0.266667 -0.0958348 0
-0.255271 -0.114169 0
-0.239879 -0.128864 0
-0.220594 -0.138905 0
-0.197786 -0.143414 0
-0.172155 -0.141784 0
-0.158619 -0.133804 0
-0.144659 -0.119817 0
-0.117782 -0.106784 0
-0.09304 -0.0915829 0
-0.0712589 -0.0750669 0
-0.0528165 -0.0584157 0
-0.0377699 -0.0426619 0
-0.0259368 -0.0285852 0
-0.0169777 -0.0167036 0
-0.01047 -0.00730685 0
-0.00596701 -0.000505947 0
-0.00303867 0.00371841 0
-0.00129485 0.0054757 0
-0.000396786 0.00493582 0
-6.01243e-05 0.00230829 0
-0.00045867 0.00689609 0
-0.00223748 0.0196841 0
-0.0057129 0.0316457 0
-0.0108144 0.0426526 0
-0.0174431 0.0526879 0
-0.0254878 0.0618377 0
-0.0348408 0.070263 0
-0.0454105 0.0781534 0
-0.0571276 0.0856709 0
-0.069943 0.0928968 0
-0.0838179 0.0997939 0
-0.0905683 0.106193 0
-0.0982806 0.111794 0
-0.115027 0.117169 0
-0.132548 0.121525 0
-0.150654 0.124233 0
-0.169085 0.124769 0
-0.187529 0.122697 0
-0.205635 0.117672 0
-0.223035 0.109463 0
-0.239371 0.0979775 0
-0.254317 0.0832694 0
-0.267605 0.0655383 0
-0.274787 0.0451103 0
-0.280003 0.0224616 0
-0.287049 -0.00192175 0
-0.291256 -0.0274272 0
-0.292524 -0.0533411 0
-0.290627 -0.0788684 0
-0.285285 -0.103128 0
-0.276181 -0.125128 0
-0.263028 -0.143772 0
-0.245657 -0.157905 0
-0.224126 -0.166405 0
-0.198815 -0.168325 0
-0.185928 -0.163054 0
-0.171219 -0.150476 0
-0.141141 -0.137014 0
-0.112932 -0.120072 0
-0.0875983 -0.10091 0
-0.0657345 -0.0810208 0
-0.0475835 -0.0617426 0
-0.0330818 -0.0441233 0
-0.0219384 -0.0288866 0
-0.0137245 -0.01646 0
-0.00795183 -0.00703206 0
-0.00413024 -0.000615599 0
-0.00180427 0.00289718 0
-0.000571843 0.00369297 0
-9.12266e-05 0.00200833 0
-0.000486523 0.00881921 0
-0.00237054 0.024894 0
-0.00604563 0.0396643 0
-0.0114308 0.0530017 0
-0.0184143 0.0649196 0
-0.0268706 0.0755604 0
-0.0366773 0.0851578 0
-0.0477291 0.0939782 0
-0.0599446 0.102252 0
-0.0732649 0.11011 0
-0.0876441 0.117543 0
-0.0946452 0.124388 0
-0.1026 0.130343 0
-0.119806 0.135961 0
-0.137723 0.140394 0
-0.156136 0.142963 0
-0.174771 0.143113 0
-0.193304 0.140385 0
-0.211381 0.134432 0
-0.228643 0.12504 0
-0.244756 0.112154 0
-0.259444 0.0958808 0
-0.272512 0.0764865 0
-0.279451 0.0543641 0
-0.284655 0.0300459 0
-0.292158 0.00331858 0
-0.297228 -0.0244755 0
-0.29984 -0.0528434 0
-0.299804 -0.0810834 0
-0.296817 -0.108431 0
-0.290472 -0.13398 0
-0.280308 -0.156666 0
-0.265894 -0.175272 0
-0.246943 -0.188498 0