# vtk DataFile Version 2.0
Presion
ASCII

DATASET STRUCTURED_GRID
DIMENSIONS   50   50   20

POINTS   50000   double
0.00568455   0.00568455   0.025
0.0174023   0.00568455   0.025
0.0298294   0.00568455   0.025
0.0429888   0.00568455   0.025
0.0569012   0.00568455   0.025
0.0715849   0.00568455   0.025
0.0870549   0.00568455   0.025
0.103323   0.00568455   0.025
0.120395   0.00568455   0.025
0.138275   0.00568455   0.025
0.156961   0.00568455   0.025
0.176443   0.00568455   0.025
0.196707   0.00568455   0.025
0.217734   0.00568455   0.025
0.239496   0.00568455   0.025
0.261959   0.00568455   0.025
0.285082   0.00568455   0.025
0.308818   0.00568455   0.025
0.333113   0.00568455   0.025
0.357906   0.00568455   0.025
0.383132   0.00568455   0.025
0.408719   0.00568455   0.025
0.434592   0.00568455   0.025
0.460672   0.00568455   0.025
0.486877   0.00568455   0.025
0.513123   0.00568455   0.025
0.539328   0.00568455   0.025
0.565408   0.00568455   0.025
0.591281   0.00568455   0.025
0.616868   0.00568455   0.025
0.642094   0.00568455   0.025
0.666887   0.00568455   0.025
0.691182   0.00568455   0.025
0.714918   0.00568455   0.025
0.738041   0.00568455   0.025
0.760504   0.00568455   0.025
0.782266   0.00568455   0.025
0.803293   0.00568455   0.025
0.823557   0.00568455   0.025
0.843039   0.00568455   0.025
0.861725   0.00568455   0.025
0.879605   0.00568455   0.025
0.896677   0.00568455   0.025
0.912945   0.00568455   0.025
0.928415   0.00568455   0.025
0.943099   0.00568455   0.025
0.957011   0.00568455   0.025
0.970171   0.00568455   0.025
0.982598   0.00568455   0.025
0.994315   0.00568455   0.025
0.00568455   0.0174023   0.025
0.0174023   0.0174023   0.025
0.0298294   0.0174023   0.025
0.0429888   0.0174023   0.025
0.0569012   0.0174023   0.025
0.0715849   0.0174023   0.025
0.0870549   0.0174023   0.025
0.103323   0.0174023   0.025
0.120395   0.0174023   0.025
0.138275   0.0174023   0.025
0.156961   0.0174023   0.025
0.176443   0.0174023   0.025
0.196707   0.0174023   0.025
0.217734   0.0174023   0.025
0.239496   0.0174023   0.025
0.261959   0.0174023   0.025
0.285082   0.0174023   0.025
0.308818   0.0174023   0.025
0.333113   0.0174023   0.025
0.357906   0.0174023   0.025
0.383132   0.0174023   0.025
0.408719   0.0174023   0.025
0.434592   0.0174023   0.025
0.460672   0.0174023   0.025
0.486877   0.0174023   0.025
0.513123   0.0174023   0.025
0.539328   0.0174023   0.025
0.565408   0.0174023   0.025
0.591281   0.0174023   0.025
0.616868   0.0174023   0.025
0.642094   0.0174023   0.025
0.666887   0.0174023   0.025
0.691182   0.0174023   0.025
0.714918   0.0174023   0.025
0.738041   0.0174023   0.025
0.760504   0.0174023   0.025
0.782266   0.0174023   0.025
0.803293   0.0174023   0.025
0.823557   0.0174023   0.025
0.843039   0.0174023   0.025
0.861725   0.0174023   0.025
0.879605   0.0174023   0.025
0.896677   0.0174023   0.025
0.912945   0.0174023   0.025
0.928415   0.0174023   0.025
0.943099   0.0174023   0.025
0.957011   0.0174023   0.025
0.970171   0.0174023   0.025
0.982598   0.0174023   0.025
0.994315   0.0174023   0.025
0.00568455   0.0298294   0.025
0.0174023   0.0298294   0.025
0.0298294   0.0298294   0.025
0.0429888   0.0298294   0.025
0.0569012   0.0298294   0.025
0.0715849   0.0298294   0.025
0.0870549   0.0298294   0.025
0.103323   0.0298294   0.025
0.120395   0.0298294   0.025
0.138275   0.0298294   0.025
0.156961   0.0298294   0.025
0.176443   0.0298294   0.025
0.196707   0.0298294   0.025
0.217734   0.0298294   0.025
0.239496   0.0298294   0.025
0.261959   0.0298294   0.025
0.285082   0.0298294   0.025
0.308818   0.0298294   0.025
0.333113   0.0298294   0.025
0.357906   0.0298294   0.025
0.383132   0.0298294   0.025
0.408719   0.0298294   0.025
0.434592   0.0298294   0.025
0.460672   0.0298294   0.025
0.486877   0.0298294   0.025
0.513123   0.0298294   0.025
0.539328   0.0298294   0.025
0.565408   0.0298294   0.025
0.591281   0.0298294   0.025
0.616868   0.0298294   0.025
0.642094   0.0298294   0.025
0.666887   0.0298294   0.025
0.691182   0.0298294   0.025
0.714918   0.0298294   0.025
0.738041   0.0298294   0.025
0.760504   0.0298294   0.025
0.782266   0.0298294   0.025
0.803293   0.0298294   0.025
0.823557   0.0298294   0.025
0.843039   0.0298294   0.025
0.861725   0.0298294   0.025
0.879605   0.0298294   0.025
0.896677   0.0298294   0.025
0.912945   0.0298294   0.025
0.928415   0.0298294   0.025
0.943099   0.0298294   0.025
0.957011   0.0298294   0.025
0.970171   0.0298294   0.025
0.982598   0.0298294   0.025
0.994315   0.0298294   0.025
0.00568455   0.0429888   0.025
0.0174023   0.0429888   0.025
0.0298294   0.0429888   0.025
0.0429888   0.0429888   0.025
0.0569012   0.0429888   0.025
0.0715849   0.0429888   0.025
0.0870549   0.0429888   0.025
0.103323   0.0429888   0.025
0.120395   0.0429888   0.025
0.138275   0.0429888   0.025
0.156961   0.0429888   0.025
0.176443   0.0429888   0.025
0.196707   0.0429888   0.025
0.217734   0.0429888   0.025
0.239496   0.0429888   0.025
0.261959   0.0429888   0.025
0.285082   0.0429888   0.025
0.308818   0.0429888   0.025
0.333113   0.0429888   0.025
0.357906   0.0429888   0.025
0.383132   0.0429888   0.025
0.408719   0.0429888   0.025
0.434592   0.0429888   0.025
0.460672   0.0429888   0.025
0.486877   0.0429888   0.025
0.513123   0.0429888   0.025
0.539328   0.0429888   0.025
0.565408   0.0429888   0.025
0.591281   0.0429888   0.025
0.616868   0.0429888   0.025
0.642094   0.0429888   0.025
0.666887   0.0429888   0.025
0.691182   0.0429888   0.025
0.714918   0.0429888   0.025
0.738041   0.0429888   0.025
0.760504   0.0429888   0.025
0.782266   0.0429888   0.025
0.803293   0.0429888   0.025
0.823557   0.0429888   0.025
0.843039   0.0429888   0.025
0.861725   0.0429888   0.025
0.879605   0.0429888   0.025
0.896677   0.0429888   0.025
0.912945   0.0429888   0.025
0.928415   0.0429888   0.025
0.943099   0.0429888   0.025
0.957011   0.0429888   0.025
0.970171   0.0429888   0.025
0.982598   0.0429888   0.025
0.994315   0.0429888   0.025
0.00568455   0.0569012   0.025
0.0174023   0.0569012   0.025
0.0298294   0.0569012   0.025
0.0429888   0.0569012   0.025
0.0569012   0.0569012   0.025
0.0715849   0.0569012   0.025
0.0870549   0.0569012   0.025
0.103323   0.0569012   0.025
0.120395   0.0569012   0.025
0.138275   0.0569012   0.025
0.156961   0.0569012   0.025
0.176443   0.0569012   0.025
0.196707   0.0569012   0.025
0.217734   0.0569012   0.025
0.239496   0.0569012   0.025
0.261959   0.0569012   0.025
0.285082   0.0569012   0.025
0.308818   0.0569012   0.025
0.333113   0.0569012   0.025
0.357906   0.0569012   0.025
0.383132   0.0569012   0.025
0.408719   0.0569012   0.025
0.434592   0.0569012   0.025
0.460672   0.0569012   0.025
0.486877   0.0569012   0.025
0.513123   0.0569012   0.025
0.539328   0.0569012   0.025
0.565408   0.0569012   0.025
0.591281   0.0569012   0.025
0.616868   0.0569012   0.025
0.642094   0.0569012   0.025
0.666887   0.0569012   0.025
0.691182   0.0569012   0.025
0.714918   0.0569012   0.025
0.738041   0.0569012   0.025
0.760504   0.0569012   0.025
0.782266   0.0569012   0.025
0.803293   0.0569012   0.025
0.823557   0.0569012   0.025
0.843039   0.0569012   0.025
0.861725   0.0569012   0.025
0.879605   0.0569012   0.025
0.896677   0.0569012   0.025
0.912945   0.0569012   0.025
0.928415   0.0569012   0.025
0.943099   0.0569012   0.025
0.957011   0.0569012   0.025
0.970171   0.0569012   0.025
0.982598   0.0569012   0.025
0.994315   0.0569012   0.025
0.00568455   0.0715849   0.025
0.0174023   0.0715849   0.025
0.0298294   0.0715849   0.025
0.0429888   0.0715849   0.025
0.0569012   0.0715849   0.025
0.0715849   0.0715849   0.025
0.0870549   0.0715849   0.025
0.103323   0.0715849   0.025
0.120395   0.0715849   0.025
0.138275   0.0715849   0.025
0.156961   0.0715849   0.025
0.176443   0.0715849   0.025
0.196707   0.0715849   0.025
0.217734   0.0715849   0.025
0.239496   0.0715849   0.025
0.261959   0.0715849   0.025
0.285082   0.0715849   0.025
0.308818   0.0715849   0.025
0.333113   0.0715849   0.025
0.357906   0.0715849   0.025
0.383132   0.0715849   0.025
0.408719   0.0715849   0.025
0.434592   0.0715849   0.025
0.460672   0.0715849   0.025
0.486877   0.0715849   0.025
0.513123   0.0715849   0.025
0.539328   0.0715849   0.025
0.565408   0.0715849   0.025
0.591281   0.0715849   0.025
0.616868   0.0715849   0.025
0.642094   0.0715849   0.025
0.666887   0.0715849   0.025
0.691182   0.0715849   0.025
0.714918   0.0715849   0.025
0.738041   0.0715849   0.025
0.760504   0.0715849   0.025
0.782266   0.0715849   0.025
0.803293   0.0715849   0.025
0.823557   0.0715849   0.025
0.843039   0.0715849   0.025
0.861725   0.0715849   0.025
0.879605   0.0715849   0.025
0.896677   0.0715849   0.025
0.912945   0.0715849   0.025
0.928415   0.0715849   0.025
0.943099   0.0715849   0.025
0.957011   0.0715849   0.025
0.970171   0.0715849   0.025
0.982598   0.0715849   0.025
0.994315   0.0715849   0.025
0.00568455   0.0870549   0.025
0.0174023   0.0870549   0.025
0.0298294   0.0870549   0.025
0.0429888   0.0870549   0.025
0.0569012   0.0870549   0.025
0.0715849   0.0870549   0.025
0.0870549   0.0870549   0.025
0.103323   0.0870549   0.025
0.120395   0.0870549   0.025
0.138275   0.0870549   0.025
0.156961   0.0870549   0.025
0.176443   0.0870549   0.025
0.196707   0.0870549   0.025
0.217734   0.0870549   0.025
0.239496   0.0870549   0.025
0.261959   0.0870549   0.025
0.285082   0.0870549   0.025
0.308818   0.0870549   0.025
0.333113   0.0870549   0.025
0.357906   0.0870549   0.025
0.383132   0.0870549   0.025
0.408719   0.0870549   0.025
0.434592   0.0870549   0.025
0.460672   0.0870549   0.025
0.486877   0.0870549   0.025
0.513123   0.0870549   0.025
0.539328   0.0870549   0.025
0.565408   0.0870549   0.025
0.591281   0.0870549   0.025
0.616868   0.0870549   0.025
0.642094   0.0870549   0.025
0.666887   0.0870549   0.025
0.691182   0.0870549   0.025
0.714918   0.0870549   0.025
0.738041   0.0870549   0.025
0.760504   0.0870549   0.025
0.782266   0.0870549   0.025
[...]
POINT_DATA   50000
SCALARS Presion double
LOOKUP_TABLE   Presion

0 0 0 0 0 0 0 0 0 0 0 0 0 0 0 0 0 0 0 0 0 0 0 0 0 0 0 0 0 0 0 0 0 0 0 0 0 0 0 0 0 0 0 0 0 0 0 0 0 0 0.00152089 0.00165474 0.00181586 0.00193171 0.00198949 0.00199063 0.00193964 0.00184136 0.00170025 0.00152 0.0013033 0.00105118 0.000627455 0.000375978 0.000153562 -3.84616e-05 -0.000195981 -0.00031178 -0.000377219 -0.000384419 -0.000328516 -0.00020956 -3.34758e-05 0.000188098 0.0004237 0.000655913 0.000854459 0.000994085 0.0010546 0.00102294 0.000894733 0.00067501 0.000377896 2.55163e-05 -0.000353832 -0.000727038 -0.000966334 -0.00131408 -0.00163839 -0.00192219 -0.00215517 -0.00233165 -0.00244871 -0.00250492 -0.00249957 -0.00243222 -0.00230302 -0.00211543 -0.00188914 -0.00171303 0.00199952 0.00198828 0.00203254 0.00207754 0.00209642 0.0020783 0.00202003 0.001922 0.00178626 0.00161558 0.00141369 0.00118381 0.000701365 0.000474583 0.000264923 7.8549e-05 -7.82497e-05 -0.000197618 -0.000270962 -0.000290651 -0.000251979 -0.000154892 -4.97911e-06 0.000185058 0.000394652 0.000597402 0.000768479 0.000884015 0.000924973 0.000879128 0.000742584 0.000520379 0.000226049 -0.000119827 -0.000492159 -0.000862183 -0.00103295 -0.0013781 -0.00169221 -0.00196401 -0.00218624 -0.00235513 -0.00246934 -0.00252929 -0.00253698 -0.00249659 -0.00241626 -0.00231272 -0.00222073 -0.00220702 0.00232589 0.00227864 0.00226368 0.00225726 0.00223996 0.00219958 0.00212976 0.00202807 0.00189457 0.00173111 0.00154155 0.00132845 0.000778878 0.00057297 0.000374791 0.000192444 3.36584e-05 -9.30636e-05 -0.000178905 -0.000216074 -0.0001995 -0.000128457 -7.75949e-06 0.000148802 0.000336642 0.000515537 0.00066608 0.000765319 0.000794371 0.00074068 0.000599781 0.000376045 8.22088e-05 -0.000262385 -0.000634779 -0.00100758 -0.00110554 -0.00145306 -0.00176243 -0.0020268 -0.0022422 -0.00240713 -0.00252209 -0.00258936 -0.00261318 -0.00260038 -0.00256187 -0.00251473 -0.00248389 -0.00249911 0.00259844 0.00254165 0.00249715 0.00245707 0.0024109 0.00234954 0.00226671 0.00215891 0.00202501 0.00186604 0.00168547 0.00148406 0.000862041 0.00067142 0.000481006 0.000299061 0.000133913 -5.47341e-06 -0.000109876 -0.000170918 -0.000182571 -0.000142749 -5.47753e-05 6.71417e-05 0.000235128 0.000395869 0.000533055 0.000624351 0.000650126 0.000596365 0.000456947 0.000234756 -5.86783e-05 -0.000405088 -0.000782735 -0.00116363 -0.00118818 -0.00154216 -0.00185122 -0.00211231 -0.00232461 -0.00248894 -0.00260755 -0.00268418 -0.00272419 -0.00273494 -0.00272628 -0.00271063 -0.00270168 -0.00271012 0.0028619 0.00279686 0.00273376 0.00267055 0.00260214 0.00252269 0.00242714 0.00231199 0.00217554 0.0020181 0.00184255 0.00164726 0.000950077 0.000767775 0.000579067 0.000391521 0.000213397 5.38905e-05 -7.72279e-05 -0.000170557 -0.000218445 -0.000216625 -0.000165977 -8.00804e-05 6.8423e-05 0.000216053 0.000347016 0.000439372 0.00047191 0.000428028 0.00029875 8.44158e-05 -0.00020535 -0.000553504 -0.00093895 -0.00133171 -0.00128544 -0.00164881 -0.00196077 -0.00222195 -0.00243447 -0.00260119 -0.00272574 -0.00281264 -0.00286742 -0.00289659 -0.00290761 -0.00290825 -0.00290526 -0.00290216 0.00313388 0.0030557 0.00297596 0.00289423 0.00280787 0.00271302 0.00260571 0.00248262 0.00234171 0.00218263 0.00200742 0.00181181 0.00103898 0.000856509 0.000661025 0.000459105 0.000258538 6.85798e-05 -0.000100288 -0.000237165 -0.000332047 -0.000377551 -0.000370972 -0.000324033 -0.00019455 -5.67213e-05 7.46721e-05 0.000177811 0.0002291 0.000208168 0.00010178 -9.36729e-05 -0.000371606 -0.0007168 -0.00110869 -0.00151437 -0.00140325 -0.00177687 -0.00209316 -0.0023567 -0.0025722 -0.00274399 -0.00287646 -0.00297429 -0.00304248 -0.00308624 -0.00311074 -0.00312064 -0.00311937 -0.00310838 0.00341777 0.00332084 0.00322292 0.0031238 0.00302158 0.00291314 0.00279487 0.00266336 0.002516 0.00235162 0.00217122 0.00196769 0.00112055 0.000927565 0.000714148 0.000485866 0.000249857 1.53957e-05 -0.000206101 -0.00040171 -0.000558283 -0.000664306 -0.000712228 -0.000710572 -0.000597255 -0.000469078 -0.000331775 -0.000207469 -0.00012295 -0.000103643 -0.000168736 -0.000327659 -0.000578595 -0.000909386 -0.0013005 -0.0017157 -0.0015499 -0.00193102 -0.00225042 -0.00251711 -0.00273771 -0.00291713 -0.0030597 -0.00316962 -0.00325099 -0.00330773 -0.00334333 -0.00336073 -0.00336202 -0.00334836 0.00370795 0.0035873 0.00346866 0.00335162 0.00323416 0.00311295 0.00298398 0.00284313 0.00268683 0.00251273 0.00232043 0.00209987 0.00118109 0.000964959 0.000719401 0.000449025 0.000160296 -0.000137406 -0.000431412 -0.000706196 -0.000944624 -0.00112999 -0.00124857 -0.00130424 -0.00119932 -0.00108559 -0.000939127 -0.000782979 -0.000647905 -0.000565774 -0.000563745 -0.000659514 -0.00085852 -0.00115374 -0.00152797 -0.00194208 -0.00173771 -0.00211763 -0.00243506 -0.00270366 -0.00293071 -0.00312038 -0.00327584 -0.0034001 -0.00349608 -0.00356648 -0.00361373 -0.00363986 -0.00364657 -0.00363527 0.0039914 0.00384296 0.00370112 0.00356508 0.00343218 0.00329822 0.00315804 0.00300618 0.00283755 0.00264812 0.00243568 0.00218711 0.00119989 0.00094525 0.000649823 0.000317277 -4.65434e-05 -0.000431961 -0.000824659 -0.00120587 -0.00155359 -0.00184482 -0.00205839 -0.00219186 -0.00208086 -0.00199329 -0.00183818 -0.00164012 -0.00143446 -0.0012609 -0.00115684 -0.00115128 -0.00126028 -0.00148508 -0.00181321 -0.00220421 -0.00198585 -0.00234653 -0.00265125 -0.00291764 -0.00315148 -0.00335408 -0.00352602 -0.00366819 -0.00378192 -0.00386874 -0.00393025 -0.00396805 -0.00398381 -0.00397928 0.00424783 0.00406854 0.00390151 0.0037454 0.00359651 0.00344916 0.00329645 0.0031309 0.0029453 0.0027334 0.00249064 0.00220079 0.00114779 0.00083608 0.00046904 4.92757e-05 -0.000417924 -0.00092234 -0.00144755 -0.00197083 -0.00246442 -0.00289788 -0.00324137 -0.0034841 -0.00334637 -0.00330552 -0.00314797 -0.00290017 -0.00260224 -0.00230282 -0.00205186 -0.00189306 -0.00185731 -0.0019585 -0.00219264 -0.00252151 -0.00232495 -0.00263436 -0.00290743 -0.00316321 -0.00340225 -0.00362014 -0.00381276 -0.00397765 -0.00411385 -0.0042215 -0.00430139 -0.00435485 -0.00438358 -0.00438968 0.00444937 0.00423726 0.00404379 0.00386685 0.00370127 0.00353941 0.00337194 0.00318882 0.0029801 0.00273669 0.00245115 0.00210411 0.00098596 0.000595102 0.000130245 -0.000407298 -0.00101278 -0.00167518 -0.00237543 -0.00308614 -0.00377275 -0.00439623 -0.00491684 -0.00531292 -0.00512643 -0.00516283 -0.0050168 -0.00471603 -0.00430489 -0.00384133 -0.00338958 -0.00301137 -0.00275711 -0.00265884 -0.00272645 -0.00293038 -0.00280426 -0.00301024 -0.00322089 -0.00345082 -0.00368987 -0.00392385 -0.0041412 -0.00433431 -0.00449889 -0.00463306 -0.0047366 -0.00481043 -0.00485629 -0.00487656 0.00456038 0.00431476 0.00409447 0.00389638 0.0037134 0.00353537 0.00335002 0.00314412 0.00290439 0.00261836 0.00227502 0.00185191 0.000665602 0.000169761 -0.000423804 -0.00111548 -0.00190109 -0.00276851 -0.00369549 -0.00464903 -0.00558666 -0.00645941 -0.00721648 -0.00782201 -0.00757373 -0.00772735 -0.00761597 -0.00726652 -0.00672596 -0.00606065 -0.00534947 -0.00467446 -0.00410994 -0.00371212 -0.00351169 -0.00349808 -0.00350117 -0.00352442 -0.00362484 -0.00380259 -0.00402951 -0.00427649 -0.00452092 -0.00474746 -0.0049468 -0.00511403 -0.00524732 -0.00534688 -0.00541435 -0.00545233 0.00453791 0.00425951 0.00401305 0.00379399 0.00359289 0.00339654 0.0031892 0.00295389 0.00267348 0.00233151 0.0019128 0.00139168 0.000128765 -0.000501473 -0.00125914 -0.00214678 -0.00316086 -0.00428778 -0.00550132 -0.00676182 -0.00801742 -0.00920769 -0.0102693 -0.0111483 -0.0108495 -0.0111665 -0.0111218 -0.0107381 -0.010062 -0.00916549 -0.00814029 -0.00708873 -0.00611161 -0.00529483 -0.00469747 -0.00434263 -0.00453101 -0.00425866 -0.00417723 -0.00425889 -0.00444933 -0.00469855 -0.00496811 -0.00523132 -0.00547126 -0.00567835 -0.00584808 -0.0059794 -0.00607354 -0.00613316 0.00433305 0.00402429 0.0037534 0.00351409 0.00329413 0.0030768 0.00284238 0.0025697 0.00223723 0.00182398 0.00130996 0.000666056 -0.000688829 -0.00148578 -0.00244653 -0.00357627 -0.00487197 -0.00631801 -0.00788314 -0.0095195 -0.0111641 -0.012743 -0.0141786 -0.015395 -0.0150964 -0.0156227 -0.0156828 -0.0152906 -0.0144885 -0.0133492 -0.0119727 -0.0104782 -0.00899215 -0.00763312 -0.00649552 -0.00565429 -0.00605122 -0.00533461 -0.00496857 -0.00488454 -0.00499508 -0.0052229 -0.00550774 -0.00580655 -0.00609104 -0.00634426 -0.00655741 -0.00672718 -0.00685386 -0.00694 0.00389373 0.00355882 0.00326642 0.00300814 0.00276858 0.00252712 0.00225969 0.0019405 0.00154323 0.00104181 0.00041085 -0.000382579 -0.00185257 -0.00285004 -0.00405462 -0.00547434 -0.00710631 -0.0089319 -0.0109133 -0.0129923 -0.0150926 -0.0171245 -0.0189943 -0.0206005 -0.0203994 -0.0211721 -0.0213752 -0.0210102 -0.0201104 -0.0187436 -0.017011 -0.0150412 -0.0129812 -0.0109805 -0.00917304 -0.00770442 -0.00824985 -0.00691251 -0.00612443 -0.00577248 -0.00573346 -0.00589737 -0.00617534 -0.00650144 -0.00683065 -0.00713479 -0.00739817 -0.00761368 -0.00777985 -0.00789868 0.00316874 0.00281378 0.00250401 0.00222863 0.00196881 0.00169976 0.00139281 0.00101728 0.000541706 -6.54382e-05 -0.000835439 -0.00180564 -0.00342118 -0.00465225 -0.00614017 -0.0078956 -0.00991491 -0.0121748 -0.0146288 -0.017206 -0.0198138 -0.0223447 -0.0246867 -0.0267124 -0.0267417 -0.0277805 -0.0281576 -0.02786 -0.0269089 -0.0253613 -0.0233114 -0.0208876 -0.0182472 -0.0155638 -0.0130105 -0.0108171 -0.0113109 -0.00917331 -0.00779828 -0.00704264 -0.00675353 -0.00678658 -0.00701834 -0.00735256 -0.00772058 -0.00807758 -0.0083972 -0.00866616 -0.00887987 -0.00903918 0.00211319 0.00174612 0.00142429 0.00113431 0.000853808 0.000553697 0.000200627 -0.000241089 -0.000808215 -0.00153798 -0.00246786 -0.00364025 -0.00543682 -0.00693087 -0.0087365 -0.0108661 -0.0133138 -0.0160495 -0.0190151 -0.0221242 -0.0252655 -0.028312 -0.0311327 -0.0335762 -0.0339741 -0.0352765 -0.0358443 -0.0356516 -0.034706 -0.0330511 -0.0307671 -0.0279723 -0.0248216 -0.0215013 -0.0182162 -0.0152822 -0.0153617 -0.0122836 -0.0101532 -0.00883472 -0.0081651 -0.0079725 -0.00809691 -0.00840515 -0.00879707 -0.00920421 -0.00958426 -0.00991431 -0.0101846 -0.0103937 0.000694685 0.000324977 -2.52177e-06 -0.00030386 -0.000604994 -0.000939177 -0.00134436 -0.00186114 -0.00253155 -0.0033985 -0.00450564 -0.00590095 -0.00791474 -0.00969407 -0.0118421 -0.0143716 -0.0172721 -0.020504 -0.0239949 -0.0276398 -0.0313075 -0.0348506 -0.0381201 -0.0409472 -0.0418166 -0.0433584 -0.0441154 -0.0440534 -0.0431694 -0.0414936 -0.0390897 -0.0360579 -0.0325394 -0.0287185 -0.0248185 -0.0212238 -0.0204252 -0.0163534 -0.0133345 -0.0112934 -0.0100924 -0.00955246 -0.00948359 -0.00971289 -0.0101014 -0.0105488 -0.0109902 -0.011388 -0.0117243 -0.0119939 -0.00110066 -0.00146237 -0.00178824 -0.00209695 -0.00241784 -0.00278807 -0.0032499 -0.00384853 -0.00463095 -0.00564545 -0.00694143 -0.00857262 -0.0108345 -0.0129111 -0.0154126 -0.01835 -0.0217059 -0.0254283 -0.0294277 -0.0335794 -0.0377312 -0.0417173 -0.0453735 -0.0485227 -0.0498995 -0.0516409 -0.0525681 -0.0526455 -0.0518655 -0.0502493 -0.047845 -0.0447325 -0.0410313 -0.0369094 -0.0325904 -0.0284891 -0.0264016 -0.0214013 -0.017436 -0.0145439 -0.0126598 -0.0116321 -0.01126 -0.0113359 -0.011678 -0.0121461 -0.0126443 -0.0131144 -0.0135259 -0.0138672 -0.0032633 -0.00360585 -0.00392215 -0.0042334 -0.00457202 -0.00497864 -0.0054993 -0.00618332 -0.00708207 -0.00824855 -0.00973709 -0.0116067 -0.0141355 -0.0165084 -0.019358 -0.0226911 -0.0264807 -0.0306605 -0.0351223 -0.0397209 -0.0442852 -0.0486339 -0.0525931 -0.0559864 -0.0578336 -0.0597266 -0.0607919 -0.0609997 -0.0603448 -0.0588454 -0.0565393 -0.0534884 -0.0497875 -0.045578 -0.0410636 -0.0366397 -0.0330827 -0.027334 -0.0224657 -0.0186597 -0.0159677 -0.0143101 -0.013508 -0.0133357 -0.0135706 -0.0140272 -0.0145705 -0.0151135 -0.0156078 -0.0160322 -0.0057577 -0.00607011 -0.00636864 -0.00667682 -0.00702968 -0.0074708 -0.00804939 -0.00881811 -0.00983194 -0.0111476 -0.0128233 -0.014922 -0.0177184 -0.0203728 -0.0235477 -0.0272437 -0.0314228 -0.0360028 -0.0408568 -0.0458209 -0.0507076 -0.0553251 -0.0594956 -0.0630514 -0.0652791 -0.0672755 -0.0684406 -0.0687558 -0.0682246 -0.0668679 -0.06472 -0.0618301 -0.0582705 -0.0541515 -0.0496403 -0.0450668 -0.0401812 -0.0339429 -0.0283182 -0.0236261 -0.0200601 -0.0176546 -0.0162944 -0.0157648 -0.0158152 -0.0162146 -0.0167817 -0.0173929 -0.0179749 -0.0184927 -0.00852303 -0.00879525 -0.00906798 -0.00936676 -0.00972878 -0.0101999 -0.0108319 -0.0116798 -0.0128013 -0.0142557 -0.0161034 -0.01841 -0.0214529 -0.0243603 -0.0278218 -0.0318307 -0.0363371 -0.0412432 -0.0464052 -0.0516429 -0.0567571 -0.0615502 -0.0658458 -0.0694899 -0.0719894 -0.0740457 -0.0752727 -0.0756655 -0.0752393 -0.0740223 -0.0720506 -0.0693673 -0.0660282 -0.0621137 -0.0577464 -0.0531644 -0.0473629 -0.0409196 -0.034766 -0.0293141 -0.0248923 -0.0216738 -0.0196486 -0.0186517 -0.0184294 -0.0187132 -0.0192728 -0.0199406 -0.0206113 -0.0212308 -0.0114772 -0.0117008 -0.0119403 -0.0122229 -0.0125875 -0.0130815 -0.0137585 -0.0146751 -0.0158907 -0.0174657 -0.0194615 -0.0219439 -0.02519 -0.02831 -0.032007 -0.0362663 -0.0410268 -0.0461771 -0.051559 -0.0569804 -0.0622343 -0.0671218 -0.0714716 -0.0751448 -0.0778185 -0.0798997 -0.0811564 -0.0815968 -0.0812481 -0.0801477 -0.0783368 -0.0758587 -0.0727597 -0.0690965 -0.0649497 -0.0604644 -0.0542793 -0.0478925 -0.0414779 -0.0354755 -0.0303096 -0.0262893 -0.0235384 -0.0219823 -0.0213987 -0.0215004 -0.0220122 -0.022718 -0.0234737 -0.0242002 -0.0145238 -0.0146929 -0.0148929 -0.0151523 -0.0155114 -0.0160187 -0.0167287 -0.0176989 -0.0189891 -0.0206602 -0.0227727 -0.0253908 -0.0287766 -0.0320602 -0.0359331 -0.0403738 -0.0453117 -0.0506245 -0.0561438 -0.0616694 -0.0669908 -0.0719105 -0.0762638 -0.0799259 -0.0827033 -0.0847842 -0.086047 -0.08651 -0.0862102 -0.0851939 -0.0835095 -0.0812042 -0.0783219 -0.0749052 -0.0710027 -0.0666854 -0.0606065 -0.0544793 -0.0480656 -0.0417685 -0.0360497 -0.0313237 -0.027852 -0.0256825 -0.0246628 -0.0245156 -0.0249338 -0.0256527 -0.0264846 -0.0273196 -0.0175617 -0.0176727 -0.0178283 -0.0180581 -0.0184029 -0.0189118 -0.0196396 -0.0206443 -0.0219851 -0.0237221 -0.0259145 -0.0286226 -0.0320692 -0.0354614 -0.0394468 -0.0439986 -0.0490396 -0.0544405 -0.0600263 -0.0655928 -0.0709288 -0.0758395 -0.0801662 -0.0837953 -0.0866357 -0.0887012 -0.0899557 -0.0904233 -0.0901479 -0.089183 -0.0875845 -0.085406 -0.0826944 -0.079488 -0.0758174 -0.071708 -0.0660811 -0.0603425 -0.0541448 -0.0478085 -0.0417734 -0.0365088 -0.0323927 -0.029608 -0.0281057 -0.0276527 -0.0279306 -0.028634 -0.0295287 -0.0304701 -0.0204939 -0.0205463 -0.0206546 -0.0208489 -0.0211701 -0.0216675 -0.0223958 -0.0234124 -0.024776 -0.026545 -0.0287765 -0.0315259 -0.0349446 -0.0383878 -0.042422 -0.0470176 -0.052094 -0.0575188 -0.0631146 -0.0686762 -0.0739929 -0.0788729 -0.0831616 -0.0867518 -0.0896379 -0.0916819 -0.092922 -0.0933838 -0.0931146 -0.0921732 -0.0906225 -0.0885235 -0.0859302 -0.0828841 -0.079412 -0.0755206 -0.0705235 -0.0652285 -0.0593905 -0.0532279 -0.0471141 -0.0415183 -0.0368937 -0.0335474 -0.0315537 -0.0307564 -0.0308535 -0.0315115 -0.032453 -0.0334952 -0.0232365 -0.0232326 -0.0232927 -0.0234468 -0.0237356 -0.0242078 -0.0249174 -0.0259213 -0.0272769 -0.0290412 -0.0312689 -0.0340097 -0.037307 -0.0407434 -0.044765 -0.0493422 -0.0543951 -0.0597915 -0.0653549 -0.0708815 -0.0761619 -0.0810056 -0.0852589 -0.088817 -0.091746 -0.0937703 -0.0949966 -0.0954485 -0.0951739 -0.0942349 -0.0927004 -0.0906393 -0.0881145 -0.0851765 -0.0818582 -0.0781692 -0.0738416 -0.0689821 -0.0635698 -0.0577246 -0.0517306 -0.0460116 -0.0410469 -0.037238 -0.0347833 -0.0336275 -0.0335134 -0.0340991 -0.0350703 -0.0362056 -0.025725 -0.0256696 -0.0256826 -0.0257935 -0.0260418 -0.026475 -0.0271462 -0.0281112 -0.0294262 -0.031147 -0.0333263 -0.036009 -0.0390909 -0.0424638 -0.0464152 -0.0509185 -0.0558976 -0.0612243 -0.0667257 -0.0722003 -0.07744 -0.0822537 -0.0864853 -0.090027 -0.0930025 -0.0950154 -0.0962337 -0.0966766 -0.0963906 -0.0954396 -0.0938971 -0.0918399 -0.0893406 -0.0864613 -0.0832472 -0.0797244 -0.0760179 -0.0715391 -0.0665494 -0.061088 -0.0553471 -0.0496777 -0.0445411 -0.0403927 -0.0375379 -0.0360332 -0.035691 -0.0361823 -0.0371669 -0.0383872 -0.0279174 -0.0278174 -0.0277867 -0.0278532 -0.0280542 -0.0284355 -0.0290483 -0.0299471 -0.0311876 -0.0328246 -0.0349102 -0.0374855 -0.0402607 -0.0435156 -0.0473437 -0.0517244 -0.056588 -0.0618133 -0.0672328 -0.0726483 -0.0778522 -0.0826503 -0.0868808 -0.0904283 -0.0934549 -0.0954695 -0.0966896 -0.0971286 -0.09683 -0.095858 -0.0942901 -0.09221 -0.0897 -0.0868342 -0.083673 -0.0802649 -0.0770904 -0.072907 -0.0682832 -0.0632011 -0.0577722 -0.0522659 -0.0470947 -0.0427279 -0.0395491 -0.0377225 -0.0371471 -0.0375277 -0.038512 -0.0398102 -0.0297952 -0.0296594 -0.0295901 -0.0296127 -0.0297615 -0.0300789 -0.0306136 -0.0314188 -0.0325497 -0.0340614 -0.0360071 -0.0384262 -0.0408081 -0.0438933 -0.0475498 -0.0517654 -0.0564797 -0.06158 -0.0669057 -0.0722621 -0.0774409 -0.0822429 -0.0864975 -0.0900771 -0.0931566 -0.0951903 -0.0964254 -0.0968691 -0.0965605 -0.0955633 -0.0939579 -0.091834 -0.0892828 -0.0863895 -0.083229 -0.0798736 -0.077134 -0.0731429 -0.0687916 -0.0640269 -0.0588984 -0.0535993 -0.0484784 -0.0439876 -0.0405563 -0.0384413 -0.0376348 -0.0378934 -0.0388662 -0.0402376 -0.031361 -0.0311993 -0.0310983 -0.0310795 -0.0311726 -0.0314155 -0.0318534 -0.0325373 -0.0335224 -0.0348662 -0.036625 -0.0388397 -0.040748 -0.0436146 -0.0470563 -0.051071 -0.0556092 -0.0605682 -0.0657946 -0.071097 -0.0762654 -0.0810936 -0.0853997 -0.0890407 -0.0921694 -0.0942429 -0.0955097 -0.09597 -0.095658 -0.0946357 -0.0929853 -0.0908015 -0.0881827 -0.0852236 -0.0820112 -0.0786395 -0.0762468 -0.0723358 -0.06814 -0.0635886 -0.0586892 -0.0535724 -0.0485231 -0.043957 -0.0403215 -0.0379444 -0.0369087 -0.0370349 -0.0379871 -0.03943 -0.0326349 -0.0324584 -0.0323339 -0.0322777 -0.0323135 -0.0324726 -0.032795 -0.0333296 -0.0341323 -0.0352643 -0.0367885 -0.0387509 -0.0401131 -0.0427157 -0.045905 -0.0496901 -0.0540331 -0.0588412 -0.0639686 -0.0692261 -0.0744012 -0.0792792 -0.0836655 -0.0873989 -0.0905651 -0.0927025 -0.0940208 -0.0945132 -0.0942083 -0.0931654 -0.0914671 -0.0892114 -0.0865021 -0.0834409 -0.0801237 -0.0766611 -0.0745418 -0.0705936 -0.0664212 -0.0619487 -0.0571591 -0.0521381 -0.0471155 -0.0424656 -0.0386345 -0.0360006 -0.0347284 -0.0347084 -0.0356307 -0.0371463 -0.0336502 -0.0334709 -0.0333323 -0.0332443 -0.033222 -0.0332884 -0.033477 -0.0338335 -0.0344156 -0.035291 -0.0365325 -0.0381962 -0.0389487 -0.0412469 -0.0441529 -0.0476876 -0.0518242 -0.0564795 -0.0615136 -0.0667394 -0.0719401 -0.0768923 -0.0813869 -0.0852445 -0.0884268 -0.0906544 -0.0920474 -0.0925913 -0.0923085 -0.0912541 -0.0895097 -0.0871744 -0.0843551 -0.0811576 -0.0776821 -0.0740497 -0.072141 -0.0680344 -0.0637421 -0.0591914 -0.0543543 -0.049289 -0.044185 -0.03938 -0.0353115 -0.0323924 -0.0308575 -0.0306679 -0.0315477 -0.0331393 -0.0344487 -0.0342796 -0.0341376 -0.0340241 -0.0339435 -0.033908 -0.0339429 -0.0340907 -0.0344125 -0.0349855 -0.035897 -0.0372179 -0.0373085 -0.0392681 -0.0418682 -0.0451408 -0.0490692 -0.0535777 -0.0585308 -0.0637417 -0.068989 -0.0740395 -0.0786698 -0.0826829 -0.085849 -0.088195 -0.0896886 -0.0903069 -0.0900652 -0.0890132 -0.0872294 -0.0848115 -0.0818665 -0.0785004 -0.0748136 -0.0709291 -0.0691712 -0.0647799 -0.0602142 -0.0554084 -0.0503345 -0.0450386 -0.0396866 -0.0345917 -0.0301857 -0.0269093 -0.0250573 -0.0246589 -0.0254768 -0.0271482 -0.0350773 -0.0349332 -0.0348 -0.0346678 -0.0345276 -0.0343785 -0.0342365 -0.0341418 -0.0341612 -0.0343857 -0.034922 -0.0358606 -0.0352509 -0.0368464 -0.0391278 -0.0421375 -0.0458659 -0.0502422 -0.055133 -0.06035 -0.0656667 -0.0708397 -0.0756318 -0.0798298 -0.0829364 -0.085429 -0.0870508 -0.0877695 -0.0875916 -0.0865601 -0.0847481 -0.0822491 -0.0791666 -0.0756026 -0.0716526 -0.0674316 -0.0657581 -0.0609499 -0.0559457 -0.0506889 -0.0451592 -0.0394042 -0.033583 -0.0280008 -0.0230948 -0.019337 -0.0170773 -0.0164084 -0.0171341 -0.0188878 -0.0355855 -0.0354844 -0.0353738 -0.0352294 -0.0350255 -0.0347462 -0.03439