# vtk DataFile Version 2.0
Presion
ASCII

DATASET STRUCTURED_GRID
DIMENSIONS   50   50   20

POINTS   50000   double
0.00568455   0.00568455   0.025
0.0174023   0.00568455   0.025
0.0298294   0.00568455   0.025
0.0429888   0.00568455   0.025
0.0569012   0.00568455   0.025
0.0715849   0.00568455   0.025
0.0870549   0.00568455   0.025
0.103323   0.00568455   0.025
0.120395   0.00568455   0.025
0.138275   0.00568455   0.025
0.156961   0.00568455   0.025
0.176443   0.00568455   0.025
0.196707   0.00568455   0.025
0.217734   0.00568455   0.025
0.239496   0.00568455   0.025
0.261959   0.00568455   0.025
0.285082   0.00568455   0.025
0.308818   0.00568455   0.025
0.333113   0.00568455   0.025
0.357906   0.00568455   0.025
0.383132   0.00568455   0.025
0.408719   0.00568455   0.025
0.434592   0.00568455   0.025
0.460672   0.00568455   0.025
0.486877   0.00568455   0.025
0.513123   0.00568455   0.025
0.539328   0.00568455   0.025
0.565408   0.00568455   0.025
0.591281   0.00568455   0.025
0.616868   0.00568455   0.025
0.642094   0.00568455   0.025
0.666887   0.00568455   0.025
0.691182   0.00568455   0.025
0.714918   0.00568455   0.025
0.738041   0.00568455   0.025
0.760504   0.00568455   0.025
0.782266   0.00568455   0.025
0.803293   0.00568455   0.025
0.823557   0.00568455   0.025
0.843039   0.00568455   0.025
0.861725   0.00568455   0.025
0.879605   0.00568455   0.025
0.896677   0.00568455   0.025
0.912945   0.00568455   0.025
0.928415   0.00568455   0.025
0.943099   0.00568455   0.025
0.957011   0.00568455   0.025
0.970171   0.00568455   0.025
0.982598   0.00568455   0.025
0.994315   0.00568455   0.025
0.00568455   0.0174023   0.025
0.0174023   0.0174023   0.025
0.0298294   0.0174023   0.025
0.0429888   0.0174023   0.025
0.0569012   0.0174023   0.025
0.0715849   0.0174023   0.025
0.0870549   0.0174023   0.025
0.103323   0.0174023   0.025
0.120395   0.0174023   0.025
0.138275   0.0174023   0.025
0.156961   0.0174023   0.025
0.176443   0.0174023   0.025
0.196707   0.0174023   0.025
0.217734   0.0174023   0.025
0.239496   0.0174023   0.025
0.261959   0.0174023   0.025
0.285082   0.0174023   0.025
0.308818   0.0174023   0.025
0.333113   0.0174023   0.025
0.357906   0.0174023   0.025
0.383132   0.0174023   0.025
0.408719   0.0174023   0.025
0.434592   0.0174023   0.025
0.460672   0.0174023   0.025
0.486877   0.0174023   0.025
0.513123   0.0174023   0.025
0.539328   0.0174023   0.025
0.565408   0.0174023   0.025
0.591281   0.0174023   0.025
0.616868   0.0174023   0.025
0.642094   0.0174023   0.025
0.666887   0.0174023   0.025
0.691182   0.0174023   0.025
0.714918   0.0174023   0.025
0.738041   0.0174023   0.025
0.760504   0.0174023   0.025
0.782266   0.0174023   0.025
0.803293   0.0174023   0.025
0.823557   0.0174023   0.025
0.843039   0.0174023   0.025
0.861725   0.0174023   0.025
0.879605   0.0174023   0.025
0.896677   0.0174023   0.025
0.912945   0.0174023   0.025
0.928415   0.0174023   0.025
0.943099   0.0174023   0.025
0.957011   0.0174023   0.025
0.970171   0.0174023   0.025
0.982598   0.0174023   0.025
0.994315   0.0174023   0.025
0.00568455   0.0298294   0.025
0.0174023   0.0298294   0.025
0.0298294   0.0298294   0.025
0.0429888   0.0298294   0.025
0.0569012   0.0298294   0.025
0.0715849   0.0298294   0.025
0.0870549   0.0298294   0.025
0.103323   0.0298294   0.025
0.120395   0.0298294   0.025
0.138275   0.0298294   0.025
0.156961   0.0298294   0.025
0.176443   0.0298294   0.025
0.196707   0.0298294   0.025
0.217734   0.0298294   0.025
0.239496   0.0298294   0.025
0.261959   0.0298294   0.025
0.285082   0.0298294   0.025
0.308818   0.0298294   0.025
0.333113   0.0298294   0.025
0.357906   0.0298294   0.025
0.383132   0.0298294   0.025
0.408719   0.0298294   0.025
0.434592   0.0298294   0.025
0.460672   0.0298294   0.025
0.486877   0.0298294   0.025
0.513123   0.0298294   0.025
0.539328   0.0298294   0.025
0.565408   0.0298294   0.025
0.591281   0.0298294   0.025
0.616868   0.0298294   0.025
0.642094   0.0298294   0.025
0.666887   0.0298294   0.025
0.691182   0.0298294   0.025
0.714918   0.0298294   0.025
0.738041   0.0298294   0.025
0.760504   0.0298294   0.025
0.782266   0.0298294   0.025
0.803293   0.0298294   0.025
0.823557   0.0298294   0.025
0.843039   0.0298294   0.025
0.861725   0.0298294   0.025
0.879605   0.0298294   0.025
0.896677   0.0298294   0.025
0.912945   0.0298294   0.025
0.928415   0.0298294   0.025
0.943099   0.0298294   0.025
0.957011   0.0298294   0.025
0.970171   0.0298294   0.025
0.982598   0.0298294   0.025
0.994315   0.0298294   0.025
0.00568455   0.0429888   0.025
0.0174023   0.0429888   0.025
0.0298294   0.0429888   0.025
0.0429888   0.0429888   0.025
0.0569012   0.0429888   0.025
0.0715849   0.0429888   0.025
0.0870549   0.0429888   0.025
0.103323   0.0429888   0.025
0.120395   0.0429888   0.025
0.138275   0.0429888   0.025
0.156961   0.0429888   0.025
0.176443   0.0429888   0.025
0.196707   0.0429888   0.025
0.217734   0.0429888   0.025
0.239496   0.0429888   0.025
0.261959   0.0429888   0.025
0.285082   0.0429888   0.025
0.308818   0.0429888   0.025
0.333113   0.0429888   0.025
0.357906   0.0429888   0.025
0.383132   0.0429888   0.025
0.408719   0.0429888   0.025
0.434592   0.0429888   0.025
0.460672   0.0429888   0.025
0.486877   0.0429888   0.025
0.513123   0.0429888   0.025
0.539328   0.0429888   0.025
0.565408   0.0429888   0.025
0.591281   0.0429888   0.025
0.616868   0.0429888   0.025
0.642094   0.0429888   0.025
0.666887   0.0429888   0.025
0.691182   0.0429888   0.025
0.714918   0.0429888   0.025
0.738041   0.0429888   0.025
0.760504   0.0429888   0.025
0.782266   0.0429888   0.025
0.803293   0.0429888   0.025
0.823557   0.0429888   0.025
0.843039   0.0429888   0.025
0.861725   0.0429888   0.025
0.879605   0.0429888   0.025
0.896677   0.0429888   0.025
0.912945   0.0429888   0.025
0.928415   0.0429888   0.025
0.943099   0.0429888   0.025
0.957011   0.0429888   0.025
0.970171   0.0429888   0.025
0.982598   0.0429888   0.025
0.994315   0.0429888   0.025
0.00568455   0.0569012   0.025
0.0174023   0.0569012   0.025
0.0298294   0.0569012   0.025
0.0429888   0.0569012   0.025
0.0569012   0.0569012   0.025
0.0715849   0.0569012   0.025
0.0870549   0.0569012   0.025
0.103323   0.0569012   0.025
0.120395   0.0569012   0.025
0.138275   0.0569012   0.025
0.156961   0.0569012   0.025
0.176443   0.0569012   0.025
0.196707   0.0569012   0.025
0.217734   0.0569012   0.025
0.239496   0.0569012   0.025
0.261959   0.0569012   0.025
0.285082   0.0569012   0.025
0.308818   0.0569012   0.025
0.333113   0.0569012   0.025
0.357906   0.0569012   0.025
0.383132   0.0569012   0.025
0.408719   0.0569012   0.025
0.434592   0.0569012   0.025
0.460672   0.0569012   0.025
0.486877   0.0569012   0.025
0.513123   0.0569012   0.025
0.539328   0.0569012   0.025
0.565408   0.0569012   0.025
0.591281   0.0569012   0.025
0.616868   0.0569012   0.025
0.642094   0.0569012   0.025
0.666887   0.0569012   0.025
0.691182   0.0569012   0.025
0.714918   0.0569012   0.025
0.738041   0.0569012   0.025
0.760504   0.0569012   0.025
0.782266   0.0569012   0.025
0.803293   0.0569012   0.025
0.823557   0.0569012   0.025
0.843039   0.0569012   0.025
0.861725   0.0569012   0.025
0.879605   0.0569012   0.025
0.896677   0.0569012   0.025
0.912945   0.0569012   0.025
0.928415   0.0569012   0.025
0.943099   0.0569012   0.025
0.957011   0.0569012   0.025
0.970171   0.0569012   0.025
0.982598   0.0569012   0.025
0.994315   0.0569012   0.025
0.00568455   0.0715849   0.025
0.0174023   0.0715849   0.025
0.0298294   0.0715849   0.025
0.0429888   0.0715849   0.025
0.0569012   0.0715849   0.025
0.0715849   0.0715849   0.025
0.0870549   0.0715849   0.025
0.103323   0.0715849   0.025
0.120395   0.0715849   0.025
0.138275   0.0715849   0.025
0.156961   0.0715849   0.025
0.176443   0.0715849   0.025
0.196707   0.0715849   0.025
0.217734   0.0715849   0.025
0.239496   0.0715849   0.025
0.261959   0.0715849   0.025
0.285082   0.0715849   0.025
0.308818   0.0715849   0.025
0.333113   0.0715849   0.025
0.357906   0.0715849   0.025
0.383132   0.0715849   0.025
0.408719   0.0715849   0.025
0.434592   0.0715849   0.025
0.460672   0.0715849   0.025
0.486877   0.0715849   0.025
0.513123   0.0715849   0.025
0.539328   0.0715849   0.025
0.565408   0.0715849   0.025
0.591281   0.0715849   0.025
0.616868   0.0715849   0.025
0.642094   0.0715849   0.025
0.666887   0.0715849   0.025
0.691182   0.0715849   0.025
0.714918   0.0715849   0.025
0.738041   0.0715849   0.025
0.760504   0.0715849   0.025
0.782266   0.0715849   0.025
0.803293   0.0715849   0.025
0.823557   0.0715849   0.025
0.843039   0.0715849   0.025
0.861725   0.0715849   0.025
0.879605   0.0715849   0.025
0.896677   0.0715849   0.025
0.912945   0.0715849   0.025
0.928415   0.0715849   0.025
0.943099   0.0715849   0.025
0.957011   0.0715849   0.025
0.970171   0.0715849   0.025
0.982598   0.0715849   0.025
0.994315   0.0715849   0.025
0.00568455   0.0870549   0.025
0.0174023   0.0870549   0.025
0.0298294   0.0870549   0.025
0.0429888   0.0870549   0.025
0.0569012   0.0870549   0.025
0.0715849   0.0870549   0.025
0.0870549   0.0870549   0.025
0.103323   0.0870549   0.025
0.120395   0.0870549   0.025
0.138275   0.0870549   0.025
0.156961   0.0870549   0.025
0.176443   0.0870549   0.025
0.196707   0.0870549   0.025
0.217734   0.0870549   0.025
0.239496   0.0870549   0.025
0.261959   0.0870549   0.025
0.285082   0.0870549   0.025
0.308818   0.0870549   0.025
0.333113   0.0870549   0.025
0.357906   0.0870549   0.025
0.383132   0.0870549   0.025
0.408719   0.0870549   0.025
0.434592   0.0870549   0.025
0.460672   0.0870549   0.025
0.486877   0.0870549   0.025
0.513123   0.0870549   0.025
0.539328   0.0870549   0.025
0.565408   0.0870549   0.025
0.591281   0.0870549   0.025
0.616868   0.0870549   0.025
0.642094   0.0870549   0.025
0.666887   0.0870549   0.025
0.691182   0.0870549   0.025
0.714918   0.0870549   0.025
0.738041   0.0870549   0.025
0.760504   0.0870549   0.025
0.782266   0.0870549   0.025
[...]
POINT_DATA   50000
SCALARS Presion double
LOOKUP_TABLE   Presion

0 0 0 0 0 0 0 0 0 0 0 0 0 0 0 0 0 0 0 0 0 0 0 0 0 0 0 0 0 0 0 0 0 0 0 0 0 0 0 0 0 0 0 0 0 0 0 0 0 0 0.00166003 0.00180725 0.00198496 0.0021135 0.00217839 0.00218077 0.00212525 0.00201694 0.0018607 0.00166079 0.00142059 0.00114183 0.000682756 0.000403999 0.00015523 -6.14975e-05 -0.00024108 -0.000375136 -0.000453877 -0.000468512 -0.000413676 -0.000289449 -0.000102328 0.000135084 0.000385678 0.00063519 0.000849952 0.00100303 0.00107296 0.00104588 0.000917157 0.000691975 0.000385075 1.95667e-05 -0.000374944 -0.000763713 -0.00101229 -0.00137418 -0.00171103 -0.00200535 -0.00224667 -0.00242931 -0.00255034 -0.00260834 -0.00260253 -0.00253243 -0.00239809 -0.00220301 -0.00196766 -0.00178458 0.00217911 0.00216798 0.00221791 0.00226873 0.00229075 0.00227174 0.00220797 0.00209973 0.00194924 0.0017597 0.00153546 0.00128053 0.000760495 0.000508351 0.000273487 6.3056e-05 -0.00011556 -0.000253323 -0.000340501 -0.000368553 -0.000332246 -0.000231499 -7.23791e-05 0.000131421 0.000354152 0.000572373 0.000758114 0.000885878 0.000935389 0.000893637 0.000756416 0.000528913 0.000225231 -0.000133145 -0.000519987 -0.000905176 -0.00108195 -0.0014409 -0.00176689 -0.00204849 -0.00227846 -0.00245309 -0.00257107 -0.00263289 -0.00264064 -0.0025986 -0.00251521 -0.00240782 -0.00231258 -0.00229901 0.00253093 0.00248103 0.00246646 0.00246108 0.00244341 0.00239984 0.0023232 0.00221072 0.00206246 0.00188057 0.00166949 0.00143249 0.000842848 0.000613138 0.000390655 0.000184598 3.84223e-06 -0.000141913 -0.000242708 -0.000289808 -0.000277542 -0.000205046 -7.74772e-05 9.02864e-05 0.000289801 0.00048271 0.000646939 0.000757907 0.000795431 0.000746068 0.000604928 0.00037644 7.38284e-05 -0.000282723 -0.000669229 -0.00105705 -0.00115803 -0.00151914 -0.00183982 -0.00211338 -0.00233601 -0.00250633 -0.00262497 -0.00269436 -0.00271886 -0.00270558 -0.00266582 -0.00261731 -0.00258599 -0.00260283 0.00282374 0.0027641 0.00271766 0.00267567 0.00262645 0.00255984 0.00246878 0.00234936 0.00220038 0.00202306 0.00182141 0.00159676 0.000932228 0.000718781 0.000504455 0.000298612 0.000110729 -4.90355e-05 -0.000170295 -0.000243657 -0.000262362 -0.000223998 -0.000132041 -1.83221e-06 0.000176395 0.000350095 0.000500584 0.000603875 0.000638903 0.000590572 0.000452134 0.000226352 -7.48743e-05 -0.00043252 -0.000823883 -0.00121973 -0.0012449 -0.00161222 -0.00193205 -0.00220175 -0.00242083 -0.0025903 -0.0027126 -0.00279164 -0.00283297 -0.00284424 -0.00283565 -0.00282008 -0.00281175 -0.00282176 0.00310696 0.003039 0.00297272 0.00290576 0.00283237 0.00274596 0.00264086 0.00251315 0.00236103 0.00218497 0.00198828 0.00176981 0.00102801 0.000823047 0.000610027 0.000397575 0.00019506 1.28562e-05 -0.000138057 -0.00024714 -0.000305811 -0.00030921 -0.000258088 -0.000167101 -1.00452e-05 0.000149848 0.000294321 0.000399746 0.00044329 0.000406998 0.000280965 6.5142e-05 -0.000230674 -0.000588801 -0.000987232 -0.00139465 -0.0013475 -0.00172371 -0.00204577 -0.00231496 -0.00253385 -0.00270553 -0.00283384 -0.00292348 -0.00298017 -0.00301065 -0.00302262 -0.00302413 -0.00302217 -0.00302036 0.00340027 0.00331862 0.0032347 0.00314789 0.0030551 0.00295193 0.00283386 0.00269725 0.00253987 0.00236148 0.00216451 0.00194498 0.00112604 0.000920005 0.000698711 0.000469728 0.000241888 2.56182e-05 -0.000167315 -0.000324692 -0.000435298 -0.000490806 -0.000488011 -0.000439525 -0.000303524 -0.000153909 -8.25217e-06 0.000109877 0.000175031 0.000165136 6.56319e-05 -0.000127856 -0.000408877 -0.000761769 -0.00116513 -0.00158458 -0.00147221 -0.00185766 -0.00218305 -0.0024539 -0.00267536 -0.002852 -0.00298837 -0.00308929 -0.00315991 -0.0032056 -0.00323167 -0.00324292 -0.00324289 -0.00323302 0.00370779 0.00360629 0.00350307 0.0033977 0.00328787 0.00316998 0.00303989 0.00289381 0.00272894 0.00254412 0.0023406 0.00211144 0.00121752 0.000998741 0.000756597 0.000497583 0.000229824 -3.62207e-05 -0.000287719 -0.000510176 -0.000688873 -0.000810924 -0.000867816 -0.000868672 -0.000751069 -0.000611606 -0.000458838 -0.00031676 -0.00021428 -0.000178943 -0.000231757 -0.000383424 -0.000632703 -0.000967303 -0.00136699 -0.00179399 -0.00162797 -0.00201899 -0.00234597 -0.00261902 -0.00284515 -0.00302937 -0.00317605 -0.00328946 -0.00337378 -0.00343298 -0.00347066 -0.00348978 -0.00349249 -0.00347996 0.00402373 0.00389694 0.00377167 0.00364723 0.00352111 0.00338945 0.00324763 0.00309107 0.0029159 0.00271962 0.00250199 0.0022529 0.00128757 0.00104182 0.000762877 0.000456228 0.000129298 -0.000207279 -0.000539219 -0.000849091 -0.00111775 -0.00132663 -0.00146053 -0.00152357 -0.00141645 -0.00129225 -0.00112884 -0.000951318 -0.000792866 -0.000687937 -0.0006661 -0.000746961 -0.000937134 -0.00122994 -0.00160774 -0.00202985 -0.00182801 -0.00221445 -0.00253713 -0.0028108 -0.00304287 -0.00323733 -0.00339722 -0.00352545 -0.00362492 -0.00369834 -0.00374814 -0.00377637 -0.00378476 -0.00377472 0.00433418 0.0041777 0.00402773 0.0038831 0.00374054 0.00359515 0.00344104 0.00327212 0.0030828 0.00286876 0.00262769 0.0023463 0.00131358 0.00102365 0.000688154 0.000311593 -9.9192e-05 -0.000533118 -0.000973959 -0.00140062 -0.0017886 -0.00211247 -0.00234908 -0.00249583 -0.00238426 -0.00228767 -0.00211404 -0.00189032 -0.00165457 -0.00144956 -0.00131576 -0.00128481 -0.00137472 -0.00158774 -0.0019114 -0.00230397 -0.00209286 -0.00245461 -0.0027611 -0.00303075 -0.0032689 -0.0034763 -0.00365305 -0.00379978 -0.00391763 -0.00400808 -0.00407267 -0.00411302 -0.00413079 -0.00412776 0.0046173 0.00442788 0.00425112 0.00408519 0.00392562 0.00376584 0.00359796 0.00341365 0.00320496 0.00296511 0.00268916 0.00236063 0.00126369 0.000909007 0.00049295 1.89853e-05 -0.000506493 -0.00107159 -0.00165758 -0.0022389 -0.00278472 -0.00326162 -0.0036373 -0.00390043 -0.00376333 -0.00371563 -0.00353812 -0.00325991 -0.00292411 -0.00258288 -0.00228983 -0.00209214 -0.0020235 -0.00209968 -0.00231738 -0.00263775 -0.00245523 -0.00275743 -0.00302723 -0.00328365 -0.00352596 -0.00374851 -0.00394634 -0.00411641 -0.00425747 -0.00436943 -0.00445303 -0.00450954 -0.00454069 -0.00454861 0.00484296 0.00461858 0.00441378 0.00422581 0.00404853 0.0038731 0.00368897 0.00348491 0.00324996 0.00297421 0.00264953 0.0022562 0.00109565 0.000652003 0.000126827 -0.000477645 -0.00115533 -0.00189312 -0.00266913 -0.00345251 -0.00420503 -0.00488414 -0.00544723 -0.00587171 -0.00568735 -0.00571958 -0.0055524 -0.00521635 -0.00475897 -0.00424206 -0.003734 -0.00330067 -0.00299623 -0.00285554 -0.00289014 -0.00307102 -0.00296743 -0.00315431 -0.00335458 -0.00358128 -0.00382181 -0.00405994 -0.00428273 -0.00448163 -0.00465181 -0.00479106 -0.00489899 -0.00497645 -0.0050252 -0.00504766 0.00497266 0.00471273 0.00447962 0.00426935 0.0040736 0.0038807 0.00367682 0.0034472 0.00317725 0.00285332 0.00246342 0.00198466 0.000756688 0.00019616 -0.000471314 -0.00124505 -0.00211917 -0.00307891 -0.0040985 -0.00514082 -0.00615905 -0.00710022 -0.00791028 -0.00855214 -0.00830927 -0.00846123 -0.00832761 -0.00793821 -0.00734326 -0.00661299 -0.00583062 -0.00508278 -0.00444822 -0.00398701 -0.00373256 -0.00367668 -0.0037109 -0.00369893 -0.00377914 -0.00394788 -0.00417318 -0.00442298 -0.00467261 -0.00490532 -0.00511092 -0.00528398 -0.00542239 -0.00552625 -0.00559715 -0.00563772 0.00496003 0.00466559 0.00440501 0.00417272 0.00395774 0.003745 0.00351682 0.00325438 0.00293883 0.00255222 0.00207806 0.00149024 0.000184731 -0.000523922 -0.00137105 -0.00235787 -0.00347856 -0.00471615 -0.0060401 -0.0074058 -0.0087564 -0.0100269 -0.0111507 -0.0120722 -0.0117855 -0.0121019 -0.0120336 -0.0116057 -0.0108683 -0.00989669 -0.00878681 -0.0076455 -0.00657829 -0.00567564 -0.00500051 -0.00458076 -0.00480541 -0.00447743 -0.00436251 -0.00442662 -0.00461029 -0.00485962 -0.00513325 -0.0054025 -0.00564913 -0.0058627 -0.00603827 -0.00617457 -0.00627273 -0.00633546 0.00475259 0.00442648 0.00414048 0.00388703 0.00365203 0.00341653 0.00315852 0.00285458 0.00248116 0.00201545 0.00143583 0.000712786 -0.00068814 -0.00157859 -0.00264572 -0.00389289 -0.00531406 -0.00688929 -0.00858202 -0.0103386 -0.0120902 -0.0137582 -0.0152615 -0.0165224 -0.0162469 -0.0167709 -0.0168047 -0.0163648 -0.0154963 -0.0142751 -0.0128044 -0.0112073 -0.00961454 -0.00814953 -0.00691141 -0.00598255 -0.00641138 -0.00561555 -0.00519901 -0.00508538 -0.00518122 -0.00540439 -0.00569086 -0.00599478 -0.00628589 -0.00654603 -0.00676565 -0.00694108 -0.00707245 -0.00716228 0.00429478 0.00394181 0.00363371 0.00336055 0.00310475 0.0028431 0.00254888 0.00219371 0.00174893 0.00118637 0.00047877 -0.000407169 -0.00192974 -0.00303644 -0.0043647 -0.00592006 -0.00769562 -0.00966728 -0.0117908 -0.0140012 -0.0162159 -0.0183402 -0.020277 -0.0219236 -0.0217589 -0.0225235 -0.0226957 -0.0222797 -0.0213112 -0.0198603 -0.0180302 -0.0159523 -0.0137767 -0.0116573 -0.00973315 -0.00815944 -0.00871563 -0.00727527 -0.00641677 -0.00601967 -0.00595483 -0.00610686 -0.00638223 -0.00671133 -0.00704641 -0.00735751 -0.00762783 -0.00784965 -0.0080212 -0.00814444 0.00353263 0.0031596 0.00283397 0.00254318 0.00226592 0.00197447 0.00163718 0.0012205 0.000690377 1.29601e-05 -0.000845068 -0.00192134 -0.00359922 -0.00495489 -0.00658297 -0.00849066 -0.0106691 -0.0130882 -0.0156938 -0.0184073 -0.0211297 -0.0237484 -0.0261488 -0.0282032 -0.0282798 -0.0293002 -0.0296395 -0.0292876 -0.0282678 -0.0266389 -0.0244957 -0.0219678 -0.019214 -0.0164111 -0.0137368 -0.0114316 -0.0118942 -0.0096347 -0.00816919 -0.00735062 -0.00702174 -0.00703305 -0.00725591 -0.00758955 -0.00796176 -0.00832523 -0.00865197 -0.00892778 -0.00914759 -0.00931207 0.00241965 0.00203523 0.00169787 0.00139222 0.0010931 0.000768288 0.000381165 -0.000107034 -0.000735855 -0.00154496 -0.00257389 -0.00386524 -0.0057366 -0.00736917 -0.00932917 -0.0116244 -0.0142421 -0.0171442 -0.0202637 -0.0235059 -0.0267529 -0.0298736 -0.0327355 -0.0351888 -0.0356364 -0.0369064 -0.037427 -0.0371762 -0.0361638 -0.0344342 -0.0320677 -0.0291818 -0.0259316 -0.0225044 -0.0191086 -0.0160696 -0.0160605 -0.0128522 -0.0106158 -0.00921709 -0.00849227 -0.00826585 -0.00837294 -0.00867535 -0.0090686 -0.00948097 -0.00986792 -0.0102051 -0.0104822 -0.0106973 0.00092345 0.000537898 0.000195706 -0.000121321 -0.000442095 -0.000803236 -0.00124611 -0.00181455 -0.00255342 -0.0035081 -0.00472415 -0.00624961 -0.00835219 -0.0102814 -0.0125944 -0.0152979 -0.0183732 -0.0217712 -0.0254096 -0.0291751 -0.0329303 -0.0365253 -0.0398113 -0.0426236 -0.0435322 -0.0450254 -0.0457247 -0.0456003 -0.0446516 -0.0429098 -0.0404377 -0.0373339 -0.0337381 -0.0298336 -0.0258455 -0.0221637 -0.0212214 -0.0170259 -0.0138944 -0.0117601 -0.0104894 -0.00990249 -0.00980613 -0.0100227 -0.0104083 -0.0108589 -0.0113063 -0.0117114 -0.0120549 -0.0123312 -0.000967885 -0.00134326 -0.00168251 -0.00200659 -0.00234792 -0.00274713 -0.00324995 -0.00390486 -0.00476166 -0.00587096 -0.00728381 -0.00905373 -0.0114182 -0.0136524 -0.0163248 -0.0194387 -0.022967 -0.026847 -0.0309789 -0.0352298 -0.0394429 -0.0434516 -0.0470948 -0.050202 -0.0515944 -0.0532708 -0.0541294 -0.0541399 -0.0532973 -0.0516233 -0.0491655 -0.0460014 -0.0422476 -0.03807 -0.0336912 -0.0295261 -0.0272643 -0.0221608 -0.0180885 -0.0150983 -0.0131337 -0.0120468 -0.0116363 -0.0116913 -0.012025 -0.012493 -0.0129959 -0.0134728 -0.0138917 -0.0142404 -0.00324096 -0.00359443 -0.00392237 -0.00424834 -0.00460785 -0.00504502 -0.00560937 -0.00635339 -0.00733113 -0.00859765 -0.0102085 -0.0122221 -0.0148654 -0.0173996 -0.0204207 -0.0239263 -0.0278788 -0.0322001 -0.0367718 -0.0414416 -0.0460354 -0.0503739 -0.0542889 -0.0576134 -0.059444 -0.0612571 -0.0622442 -0.0623807 -0.0616644 -0.0601139 -0.0577664 -0.0546811 -0.0509496 -0.0467101 -0.0421628 -0.0376976 -0.0339738 -0.028152 -0.0231941 -0.0192953 -0.016519 -0.0147935 -0.0139432 -0.0137412 -0.0139613 -0.0144138 -0.0149595 -0.0155083 -0.0160099 -0.0164421 -0.00585484 -0.00617501 -0.00648311 -0.00680497 -0.00717872 -0.00765137 -0.00827548 -0.00910674 -0.0102026 -0.0116214 -0.0134219 -0.0156663 -0.0185855 -0.0214005 -0.0247423 -0.0286013 -0.0329276 -0.0376271 -0.0425634 -0.0475667 -0.0524492 -0.0570235 -0.0611202 -0.0645829 -0.0667605 -0.0686642 -0.0697433 -0.0699838 -0.0693919 -0.0679889 -0.0658079 -0.0628957 -0.0593216 -0.0551916 -0.0506682 -0.0460723 -0.0410612 -0.0347827 -0.0290945 -0.0243253 -0.0206803 -0.0182044 -0.0167893 -0.0162223 -0.0162514 -0.0166419 -0.0172083 -0.0178237 -0.0184125 -0.0189381 -0.00874223 -0.00901888 -0.00929881 -0.00960988 -0.00999229 -0.0104952 -0.0111735 -0.0120852 -0.0132899 -0.0148482 -0.0168205 -0.0192708 -0.0224406 -0.0255039 -0.0291235 -0.0332812 -0.0379148 -0.042915 -0.0481294 -0.053374 -0.0584514 -0.0631711 -0.0673671 -0.0708981 -0.0733181 -0.0752719 -0.0764072 -0.0767232 -0.076237 -0.0749768 -0.072977 -0.0702787 -0.0669345 -0.0630206 -0.0586546 -0.0540649 -0.0481954 -0.041742 -0.0355545 -0.0300492 -0.025563 -0.0222794 -0.0201979 -0.0191587 -0.0189095 -0.0191794 -0.019735 -0.0204049 -0.0210813 -0.0217082 -0.0118143 -0.0120391 -0.0122833 -0.0125765 -0.0129603 -0.0134856 -0.0142087 -0.0151889 -0.0164871 -0.0181647 -0.0202824 -0.0229037 -0.0262761 -0.0295443 -0.0333873 -0.0377784 -0.0426443 -0.0478625 -0.0532676 -0.0586657 -0.0638541 -0.0686427 -0.0728722 -0.0764169 -0.0789889 -0.0809603 -0.0821219 -0.0824847 -0.082077 -0.0809354 -0.0790996 -0.0766102 -0.0735107 -0.0698541 -0.0657163 -0.0612341 -0.0550354 -0.0486616 -0.0422413 -0.0362129 -0.0310041 -0.0269321 -0.0241299 -0.022531 -0.021917 -0.0220008 -0.0225051 -0.0232106 -0.0239705 -0.0247035 -0.0149687 -0.0151357 -0.0153378 -0.0156059 -0.0159827 -0.01652 -0.0172748 -0.0183071 -0.0196779 -0.0214484 -0.0236781 -0.026428 -0.0299358 -0.0333576 -0.0373627 -0.0419174 -0.0469391 -0.0522953 -0.0578118 -0.0632885 -0.0685208 -0.0733216 -0.077539 -0.0810616 -0.0837226 -0.0856887 -0.0868544 -0.0872399 -0.0868826 -0.0858272 -0.08412 -0.0818055 -0.0789247 -0.075517 -0.0716273 -0.067321 -0.0612675 -0.0551683 -0.0487714 -0.0424743 -0.0367372 -0.0319784 -0.0284671 -0.0262593 -0.0252091 -0.0250417 -0.0254494 -0.0261656 -0.0269997 -0.0278401 -0.0180991 -0.0182052 -0.0183605 -0.0185967 -0.0189572 -0.0194941 -0.0202646 -0.0213287 -0.0227468 -0.0245787 -0.0268822 -0.0297138 -0.0332754 -0.0367949 -0.0408985 -0.0455474 -0.0506526 -0.0560757 -0.0616374 -0.0671349 -0.0723639 -0.0771412 -0.0813215 -0.0848038 -0.0875188 -0.0894662 -0.0906228 -0.0910137 -0.0906825 -0.0896804 -0.088061 -0.0858749 -0.083166 -0.0799695 -0.0763136 -0.0722201 -0.0666396 -0.0609364 -0.0547702 -0.0484544 -0.0424242 -0.0371482 -0.0330085 -0.0301949 -0.0286656 -0.0281922 -0.028458 -0.0291564 -0.0300515 -0.0309966 -0.0211052 -0.0211502 -0.0212559 -0.0214543 -0.0217889 -0.0223117 -0.0230798 -0.0241524 -0.0255889 -0.0274475 -0.0297833 -0.0326475 -0.0361727 -0.0397324 -0.0438718 -0.0485496 -0.0536742 -0.0591048 -0.0646607 -0.0701388 -0.0753366 -0.0800738 -0.0842092 -0.0876483 -0.0904041 -0.0923283 -0.0934701 -0.0938561 -0.0935326 -0.092556 -0.0909862 -0.0888811 -0.0862914 -0.083256 -0.0797991 -0.0759263 -0.0709822 -0.0657239 -0.0599243 -0.0537953 -0.0477044 -0.0421169 -0.0374861 -0.0341236 -0.03211 -0.0312947 -0.0313792 -0.0320307 -0.0329708 -0.034015 -0.0239013 -0.0238881 -0.0239434 -0.0240993 -0.0243989 -0.0248935 -0.0256395 -0.0266952 -0.0281189 -0.0299669 -0.0322917 -0.035139 -0.0385339 -0.0420768 -0.0461925 -0.0508403 -0.0559295 -0.0613205 -0.0668338 -0.0722684 -0.0774231 -0.082119 -0.0862157 -0.0896205 -0.092417 -0.0943206 -0.0954485 -0.0958252 -0.0954974 -0.0945248 -0.0929729 -0.0909071 -0.088387 -0.0854601 -0.0821572 -0.0784873 -0.0742102 -0.0693847 -0.0640112 -0.0582052 -0.0522452 -0.0465495 -0.0415946 -0.0377831 -0.0353176 -0.0341484 -0.034023 -0.0346013 -0.0355695 -0.0367052 -0.026423 -0.0263567 -0.0263631 -0.0264736 -0.02673 -0.0271823 -0.0278859 -0.028898 -0.0302758 -0.0320742 -0.0343439 -0.0371253 -0.0402961 -0.0437669 -0.0478038 -0.0523696 -0.0573778 -0.0626931 -0.0681398 -0.0735192 -0.0786312 -0.0832959 -0.0873701 -0.0907581 -0.0936011 -0.0954929 -0.0966127 -0.0969806 -0.096642 -0.0956582 -0.0940994 -0.0920387 -0.0895448 -0.0866768 -0.0834776 -0.0799728 -0.07631 -0.0718602 -0.0669052 -0.0614824 -0.0557795 -0.0501424 -0.0450276 -0.0408889 -0.038033 -0.0365208 -0.0361696 -0.0366536 -0.0376341 -0.0388533 -0.0286294 -0.0285175 -0.0284787 -0.0285427 -0.0287491 -0.0291459 -0.0297867 -0.0307278 -0.0320254 -0.0337339 -0.0359033 -0.0385705 -0.0414262 -0.0447723 -0.04868 -0.0531184 -0.0580084 -0.0632213 -0.0685867 -0.0739088 -0.0789872 -0.0836385 -0.0877133 -0.0911079 -0.0940039 -0.0958976 -0.097019 -0.0973826 -0.0970311 -0.0960263 -0.0944424 -0.0923591 -0.0898547 -0.0869999 -0.0838524 -0.0804599 -0.0773207 -0.07316 -0.0685644 -0.0635158 -0.0581233 -0.0526521 -0.0475097 -0.0431616 -0.0399904 -0.0381625 -0.0375813 -0.0379554 -0.0389349 -0.0402306 -0.0305044 -0.030356 -0.0302774 -0.0302956 -0.030447 -0.0307763 -0.0313346 -0.0321768 -0.0333588 -0.0349358 -0.0369591 -0.0394643 -0.0419185 -0.0450896 -0.0488223 -0.0530945 -0.0578364 -0.0629278 -0.0682047 -0.0734738 -0.0785332 -0.0831936 -0.0872962 -0.0907251 -0.0936782 -0.0955915 -0.0967274 -0.0970948 -0.0967323 -0.0957015 -0.0940793 -0.0919515 -0.089405 -0.0865214 -0.0833726 -0.0800295 -0.0773164 -0.0733413 -0.0690103 -0.0642715 -0.0591738 -0.0539074 -0.0488172 -0.0443501 -0.0409328 -0.038822 -0.0380131 -0.0382663 -0.039234 -0.0406019 -0.0320532 -0.0318787 -0.0317674 -0.0317426 -0.0318357 -0.0320869 -0.0325436 -0.0332588 -0.0342891 -0.0356917 -0.037522 -0.0398175 -0.0417896 -0.0447384 -0.0482551 -0.0523282 -0.0568988 -0.0618563 -0.0670432 -0.0722683 -0.0773267 -0.0820213 -0.0861812 -0.089675 -0.0926839 -0.094638 -0.095805 -0.0961875 -0.0958199 -0.0947621 -0.0930931 -0.0909035 -0.0882874 -0.0853356 -0.0821319 -0.0787684 -0.0763934 -0.0724913 -0.0683075 -0.0637731 -0.0588961 -0.0538063 -0.0487851 -0.0442438 -0.0406257 -0.038257 -0.0372219 -0.0373441 -0.0382911 -0.0397298 -0.033299 -0.0331097 -0.0329744 -0.0329108 -0.0329441 -0.0331078 -0.0334443 -0.0340043 -0.0348455 -0.0360296 -0.0376191 -0.0396575 -0.0410739 -0.0437561 -0.0470211 -0.0508687 -0.0552517 -0.0600691 -0.0651695 -0.070363 -0.0754405 -0.0801955 -0.0844432 -0.0880342 -0.0910902 -0.0931092 -0.0943272 -0.0947402 -0.0943773 -0.0932961 -0.0915762 -0.0893117 -0.0866019 -0.0835445 -0.0802319 -0.0767725 -0.0746618 -0.0707154 -0.0665465 -0.0620816 -0.057305 -0.0523028 -0.0473027 -0.0426753 -0.0388624 -0.0362391 -0.0349698 -0.034947 -0.0358642 -0.037375 -0.034278 -0.0340861 -0.0339363 -0.0338396 -0.0338127 -0.0338803 -0.034078 -0.0344537 -0.0350672 -0.0359874 -0.0372877 -0.0390224 -0.0398179 -0.0421939 -0.0451774 -0.0487807 -0.0529672 -0.0576449 -0.0626674 -0.0678449 -0.0729632 -0.077805 -0.0821707 -0.0858919 -0.0889765 -0.0910873 -0.0923796 -0.092842 -0.092498 -0.0914017 -0.0896318 -0.0872835 -0.0844594 -0.0812609 -0.0777851 -0.0741503 -0.0722408 -0.0681287 -0.0638314 -0.0592787 -0.0544448 -0.049389 -0.0443001 -0.0395129 -0.035461 -0.0325532 -0.0310225 -0.0308311 -0.0317059 -0.0332923 -0.0350346 -0.0348532 -0.0346999 -0.0345768 -0.0344895 -0.0344517 -0.0344907 -0.0346512 -0.0349967 -0.0356066 -0.0365696 -0.0379563 -0.0380765 -0.0401124 -0.0427927 -0.0461412 -0.050131 -0.0546768 -0.0596354 -0.064816 -0.0699979 -0.0749527 -0.0794655 -0.0833495 -0.0864332 -0.0886643 -0.0900568 -0.0905915 -0.0902852 -0.0891869 -0.0873727 -0.0849367 -0.0819814 -0.0786087 -0.0749156 -0.0710224 -0.0692541 -0.0648497 -0.0602705 -0.0554533 -0.0503728 -0.0450769 -0.0397316 -0.0346486 -0.030256 -0.0269903 -0.0251431 -0.0247435 -0.0255566 -0.0272223 -0.0356176 -0.0354616 -0.035317 -0.0351746 -0.035026 -0.0348714 -0.0347283 -0.0346392 -0.034674 -0.0349265 -0.0355062 -0.0365048 -0.0359092 -0.0375795 -0.0399444 -0.0430379 -0.0468402 -0.0512699 -0.0561847 -0.0613907 -0.0666604 -0.071754 -0.0764413 -0.0805186 -0.0835605 -0.0859407 -0.0874612 -0.088094 -0.0878477 -0.0867651 -0.0849171 -0.0823939 -0.0792947 -0.0757176 -0.0717546 -0.067518 -0.0658249 -0.0609957 -0.0559693 -0.050692 -0.0451461 -0.0393817 -0.033559 -0.0279823 -0.0230858 -0.0193371 -0.0170824 -0.016413 -0.017134 -0.0188814 -0.036078 -0.0359654 -0.0358436 -0.0356886 -0.0354