# vtk DataFile Version 2.0
Velocidades
ASCII

DATASET STRUCTURED_GRID
DIMENSIONS   50   50   20

POINTS   50000   double
0.00568455   0.00568455   0.025
0.0174023   0.00568455   0.025
0.0298294   0.00568455   0.025
0.0429888   0.00568455   0.025
0.0569012   0.00568455   0.025
0.0715849   0.00568455   0.025
0.0870549   0.00568455   0.025
0.103323   0.00568455   0.025
0.120395   0.00568455   0.025
0.138275   0.00568455   0.025
0.156961   0.00568455   0.025
0.176443   0.00568455   0.025
0.196707   0.00568455   0.025
0.217734   0.00568455   0.025
0.239496   0.00568455   0.025
0.261959   0.00568455   0.025
0.285082   0.00568455   0.025
0.308818   0.00568455   0.025
0.333113   0.00568455   0.025
0.357906   0.00568455   0.025
0.383132   0.00568455   0.025
0.408719   0.00568455   0.025
0.434592   0.00568455   0.025
0.460672   0.00568455   0.025
0.486877   0.00568455   0.025
0.513123   0.00568455   0.025
0.539328   0.00568455   0.025
0.565408   0.00568455   0.025
0.591281   0.00568455   0.025
0.616868   0.00568455   0.025
0.642094   0.00568455   0.025
0.666887   0.00568455   0.025
0.691182   0.00568455   0.025
0.714918   0.00568455   0.025
0.738041   0.00568455   0.025
0.760504   0.00568455   0.025
0.782266   0.00568455   0.025
0.803293   0.00568455   0.025
0.823557   0.00568455   0.025
0.843039   0.00568455   0.025
0.861725   0.00568455   0.025
0.879605   0.00568455   0.025
0.896677   0.00568455   0.025
0.912945   0.00568455   0.025
0.928415   0.00568455   0.025
0.943099   0.00568455   0.025
0.957011   0.00568455   0.025
0.970171   0.00568455   0.025
0.982598   0.00568455   0.025
0.994315   0.00568455   0.025
0.00568455   0.0174023   0.025
0.0174023   0.0174023   0.025
0.0298294   0.0174023   0.025
0.0429888   0.0174023   0.025
0.0569012   0.0174023   0.025
0.0715849   0.0174023   0.025
0.0870549   0.0174023   0.025
0.103323   0.0174023   0.025
0.120395   0.0174023   0.025
0.138275   0.0174023   0.025
0.156961   0.0174023   0.025
0.176443   0.0174023   0.025
0.196707   0.0174023   0.025
0.217734   0.0174023   0.025
0.239496   0.0174023   0.025
0.261959   0.0174023   0.025
0.285082   0.0174023   0.025
0.308818   0.0174023   0.025
0.333113   0.0174023   0.025
0.357906   0.0174023   0.025
0.383132   0.0174023   0.025
0.408719   0.0174023   0.025
0.434592   0.0174023   0.025
0.460672   0.0174023   0.025
0.486877   0.0174023   0.025
0.513123   0.0174023   0.025
0.539328   0.0174023   0.025
0.565408   0.0174023   0.025
0.591281   0.0174023   0.025
0.616868   0.0174023   0.025
0.642094   0.0174023   0.025
0.666887   0.0174023   0.025
0.691182   0.0174023   0.025
0.714918   0.0174023   0.025
0.738041   0.0174023   0.025
0.760504   0.0174023   0.025
0.782266   0.0174023   0.025
0.803293   0.0174023   0.025
0.823557   0.0174023   0.025
0.843039   0.0174023   0.025
0.861725   0.0174023   0.025
0.879605   0.0174023   0.025
0.896677   0.0174023   0.025
0.912945   0.0174023   0.025
0.928415   0.0174023   0.025
0.943099   0.0174023   0.025
0.957011   0.0174023   0.025
0.970171   0.0174023   0.025
0.982598   0.0174023   0.025
0.994315   0.0174023   0.025
0.00568455   0.0298294   0.025
0.0174023   0.0298294   0.025
0.0298294   0.0298294   0.025
0.0429888   0.0298294   0.025
0.0569012   0.0298294   0.025
0.0715849   0.0298294   0.025
0.0870549   0.0298294   0.025
0.103323   0.0298294   0.025
0.120395   0.0298294   0.025
0.138275   0.0298294   0.025
0.156961   0.0298294   0.025
0.176443   0.0298294   0.025
0.196707   0.0298294   0.025
0.217734   0.0298294   0.025
0.239496   0.0298294   0.025
0.261959   0.0298294   0.025
0.285082   0.0298294   0.025
0.308818   0.0298294   0.025
0.333113   0.0298294   0.025
0.357906   0.0298294   0.025
0.383132   0.0298294   0.025
0.408719   0.0298294   0.025
0.434592   0.0298294   0.025
0.460672   0.0298294   0.025
0.486877   0.0298294   0.025
0.513123   0.0298294   0.025
0.539328   0.0298294   0.025
0.565408   0.0298294   0.025
0.591281   0.0298294   0.025
0.616868   0.0298294   0.025
0.642094   0.0298294   0.025
0.666887   0.0298294   0.025
0.691182   0.0298294   0.025
0.714918   0.0298294   0.025
0.738041   0.0298294   0.025
0.760504   0.0298294   0.025
0.782266   0.0298294   0.025
0.803293   0.0298294   0.025
0.823557   0.0298294   0.025
0.843039   0.0298294   0.025
0.861725   0.0298294   0.025
0.879605   0.0298294   0.025
0.896677   0.0298294   0.025
0.912945   0.0298294   0.025
0.928415   0.0298294   0.025
0.943099   0.0298294   0.025
0.957011   0.0298294   0.025
0.970171   0.0298294   0.025
0.982598   0.0298294   0.025
0.994315   0.0298294   0.025
0.00568455   0.0429888   0.025
0.0174023   0.0429888   0.025
0.0298294   0.0429888   0.025
0.0429888   0.0429888   0.025
0.0569012   0.0429888   0.025
0.0715849   0.0429888   0.025
0.0870549   0.0429888   0.025
0.103323   0.0429888   0.025
0.120395   0.0429888   0.025
0.138275   0.0429888   0.025
0.156961   0.0429888   0.025
0.176443   0.0429888   0.025
0.196707   0.0429888   0.025
0.217734   0.0429888   0.025
0.239496   0.0429888   0.025
0.261959   0.0429888   0.025
0.285082   0.0429888   0.025
0.308818   0.0429888   0.025
0.333113   0.0429888   0.025
0.357906   0.0429888   0.025
0.383132   0.0429888   0.025
0.408719   0.0429888   0.025
0.434592   0.0429888   0.025
0.460672   0.0429888   0.025
0.486877   0.0429888   0.025
0.513123   0.0429888   0.025
0.539328   0.0429888   0.025
0.565408   0.0429888   0.025
0.591281   0.0429888   0.025
0.616868   0.0429888   0.025
0.642094   0.0429888   0.025
0.666887   0.0429888   0.025
0.691182   0.0429888   0.025
0.714918   0.0429888   0.025
0.738041   0.0429888   0.025
0.760504   0.0429888   0.025
0.782266   0.0429888   0.025
0.803293   0.0429888   0.025
0.823557   0.0429888   0.025
0.843039   0.0429888   0.025
0.861725   0.0429888   0.025
0.879605   0.0429888   0.025
0.896677   0.0429888   0.025
0.912945   0.0429888   0.025
0.928415   0.0429888   0.025
0.943099   0.0429888   0.025
0.957011   0.0429888   0.025
0.970171   0.0429888   0.025
0.982598   0.0429888   0.025
0.994315   0.0429888   0.025
0.00568455   0.0569012   0.025
0.0174023   0.0569012   0.025
0.0298294   0.0569012   0.025
0.0429888   0.0569012   0.025
0.0569012   0.0569012   0.025
0.0715849   0.0569012   0.025
0.0870549   0.0569012   0.025
0.103323   0.0569012   0.025
0.120395   0.0569012   0.025
0.138275   0.0569012   0.025
0.156961   0.0569012   0.025
0.176443   0.0569012   0.025
0.196707   0.0569012   0.025
0.217734   0.0569012   0.025
0.239496   0.0569012   0.025
0.261959   0.0569012   0.025
0.285082   0.0569012   0.025
0.308818   0.0569012   0.025
0.333113   0.0569012   0.025
0.357906   0.0569012   0.025
0.383132   0.0569012   0.025
0.408719   0.0569012   0.025
0.434592   0.0569012   0.025
0.460672   0.0569012   0.025
0.486877   0.0569012   0.025
0.513123   0.0569012   0.025
0.539328   0.0569012   0.025
0.565408   0.0569012   0.025
0.591281   0.0569012   0.025
0.616868   0.0569012   0.025
0.642094   0.0569012   0.025
0.666887   0.0569012   0.025
0.691182   0.0569012   0.025
0.714918   0.0569012   0.025
0.738041   0.0569012   0.025
0.760504   0.0569012   0.025
0.782266   0.0569012   0.025
0.803293   0.0569012   0.025
0.823557   0.0569012   0.025
0.843039   0.0569012   0.025
0.861725   0.0569012   0.025
0.879605   0.0569012   0.025
0.896677   0.0569012   0.025
0.912945   0.0569012   0.025
0.928415   0.0569012   0.025
0.943099   0.0569012   0.025
0.957011   0.0569012   0.025
0.970171   0.0569012   0.025
0.982598   0.0569012   0.025
0.994315   0.0569012   0.025
0.00568455   0.0715849   0.025
0.0174023   0.0715849   0.025
0.0298294   0.0715849   0.025
0.0429888   0.0715849   0.025
0.0569012   0.0715849   0.025
0.0715849   0.0715849   0.025
0.0870549   0.0715849   0.025
0.103323   0.0715849   0.025
0.120395   0.0715849   0.025
0.138275   0.0715849   0.025
0.156961   0.0715849   0.025
0.176443   0.0715849   0.025
0.196707   0.0715849   0.025
0.217734   0.0715849   0.025
0.239496   0.0715849   0.025
0.261959   0.0715849   0.025
0.285082   0.0715849   0.025
0.308818   0.0715849   0.025
0.333113   0.0715849   0.025
0.357906   0.0715849   0.025
0.383132   0.0715849   0.025
0.408719   0.0715849   0.025
0.434592   0.0715849   0.025
0.460672   0.0715849   0.025
0.486877   0.0715849   0.025
0.513123   0.0715849   0.025
0.539328   0.0715849   0.025
0.565408   0.0715849   0.025
0.591281   0.0715849   0.025
0.616868   0.0715849   0.025
0.642094   0.0715849   0.025
0.666887   0.0715849   0.025
0.691182   0.0715849   0.025
0.714918   0.0715849   0.025
0.738041   0.0715849   0.025
0.760504   0.0715849   0.025
0.782266   0.0715849   0.025
0.803293   0.0715849   0.025
0.823557   0.0715849   0.025
0.843039   0.0715849   0.025
0.861725   0.0715849   0.025
0.879605   0.0715849   0.025
0.896677   0.0715849   0.025
0.912945   0.0715849   0.025
0.928415   0.0715849   0.025
0.943099   0.0715849   0.025
0.957011   0.0715849   0.025
0.970171   0.0715849   0.025
0.982598   0.0715849   0.025
0.994315   0.0715849   0.025
0.00568455   0.0870549   0.025
0.0174023   0.0870549   0.025
0.0298294   0.0870549   0.025
0.0429888   0.0870549   0.025
0.0569012   0.0870549   0.025
0.0715849   0.0870549   0.025
0.0870549   0.0870549   0.025
0.103323   0.0870549   0.025
0.120395   0.0870549   0.025
0.138275   0.0870549   0.025
0.156961   0.0870549   0.025
0.176443   0.0870549   0.025
0.196707   0.0870549   0.025
0.217734   0.0870549   0.025
0.239496   0.0870549   0.025
0.261959   0.0870549   0.025
0.285082   0.0870549   0.025
0.308818   0.0870549   0.025
0.333113   0.0870549   0.025
0.357906   0.0870549   0.025
0.383132   0.0870549   0.025
0.408719   0.0870549   0.025
0.434592   0.0870549   0.025
0.460672   0.0870549   0.025
0.486877   0.0870549   0.025
0.513123   0.0870549   0.025
0.539328   0.0870549   0.025
0.565408   0.0870549   0.025
0.591281   0.0870549   0.025
0.616868   0.0870549   0.025
0.642094   0.0870549   0.025
0.666887   0.0870549   0.025
0.691182   0.0870549   0.025
0.714918   0.0870549   0.025
0.738041   0.0870549   0.025
0.760504   0.0870549   0.025
0.782266   0.0870549   0.025
[...]
POINT_DATA   50000
VECTORS Velocidades double

-7.68555e-05 -0.00168912 0
-0.000207939 -0.00331772 0
-0.00028552 -0.00423473 0
-0.000313955 -0.00475002 0
-0.000321018 -0.00498912 0
-0.000333962 -0.00501546 0
-0.000373535 -0.00486805 0
-0.000454321 -0.00457456 0
-0.000586155 -0.00415613 0
-0.000775654 -0.00362804 0
-0.00102825 -0.00299675 0
-0.00115407 -0.00224623 0
-0.00133395 -0.00127784 0
-0.00177622 -0.000549327 0
-0.00229382 5.82673e-05 0
-0.0028593 0.000571726 0
-0.00346326 0.000987927 0
-0.00409664 0.00128991 0
-0.0047463 0.00145519 0
-0.00539328 0.00146229 0
-0.0060122 0.00129666 0
-0.00657178 0.000955657 0
-0.00703763 0.000452032 0
-0.00736388 -0.000183579 0
-0.00750869 -0.000890804 0
-0.00744402 -0.00160259 0
-0.00715238 -0.00223947 0
-0.00663748 -0.00272697 0
-0.00592329 -0.00300123 0
-0.00505457 -0.00301774 0
-0.00409271 -0.00275859 0
-0.00310766 -0.00223602 0
-0.00216778 -0.00149163 0
-0.00132987 -0.000592035 0
-0.000630649 0.000376065 0
-0.000238755 0.00130409 0
2.02268e-06 0.00203251 0
0.000272497 0.00287548 0
0.000437748 0.00367521 0
0.000503969 0.00437278 0
0.000490936 0.00494233 0
0.000418458 0.00537202 0
0.000304782 0.00565577 0
0.000167083 0.00578882 0
2.25207e-05 0.00576442 0
-0.000110305 0.0055699 0
-0.000209566 0.00517969 0
-0.00024926 0.00453934 0
-0.000204944 0.00352217 0
-7.95915e-05 0.00179165 0
-0.000257138 -0.00310533 0
-0.000677376 -0.00647234 0
-0.000894651 -0.00841835 0
-0.000950728 -0.00949835 0
-0.000950669 -0.00997989 0
-0.000977582 -0.0100078 0
-0.00109059 -0.00967211 0
-0.00133116 -0.00903589 0
-0.00172804 -0.00814624 0
-0.00230152 -0.00703629 0
-0.00306955 -0.0057185 0
-0.0034058 -0.00415625 0
-0.00396952 -0.00216862 0
-0.00539806 -0.000666735 0
-0.00701044 0.00057815 0
-0.00877035 0.00162688 0
-0.0106526 0.00247444 0
-0.0126267 0.00308471 0
-0.0146471 0.00340901 0
-0.0166486 0.00340027 0
-0.0185459 0.00302556 0
-0.0202369 0.00227695 0
-0.0216109 0.00117965 0
-0.0225385 -0.000202741 0
-0.0229007 -0.00176856 0
-0.0226188 -0.00334785 0
-0.0216594 -0.00477825 0
-0.020048 -0.00590068 0
-0.0178632 -0.00657525 0
-0.015238 -0.00670125 0
-0.0123484 -0.00623403 0
-0.00939231 -0.00519392 0
-0.00656428 -0.00366553 0
-0.00402969 -0.00178932 0
-0.00190129 0.000248116 0
-0.000743886 0.00220928 0
-2.42972e-06 0.0037625 0
0.000881099 0.00554823 0
0.00140364 0.00724384 0
0.00161395 0.0087236 0
0.00157385 0.00993404 0
0.00134381 0.0108512 0
0.000980289 0.0114623 0
0.00053717 0.0117562 0
6.84435e-05 0.0117161 0
-0.00036789 0.0113107 0
-0.000704055 0.0104787 0
-0.000854949 0.00909486 0
-0.00072068 0.00689291 0
-0.000284628 0.00328122 0
-0.000185442 -0.00262384 0
-0.000589101 -0.00607799 0
-0.000961412 -0.00821313 0
-0.00122067 -0.00939727 0
-0.00142817 -0.00988999 0
-0.00167606 -0.00986123 0
-0.0020481 -0.00942558 0
-0.00261097 -0.0086646 0
-0.00341518 -0.0076379 0
-0.00449918 -0.00638557 0
-0.00589526 -0.00492096 0
-0.00652761 -0.00320347 0
-0.00750042 -0.0010878 0
-0.0099015 0.000530399 0
-0.0126001 0.00185941 0
-0.0155515 0.00297022 0
-0.018709 0.00385893 0
-0.0220123 0.00448325 0
-0.0253762 0.00478477 0
-0.0286845 0.00470562 0
-0.0317902 0.00420315 0
-0.0345213 0.00326296 0
-0.0366937 0.00190939 0
-0.0381368 0.000210483 0
-0.0386537 -0.00175687 0
-0.0381083 -0.00375491 0
-0.0364878 -0.00560441 0
-0.0338396 -0.00711987 0
-0.0302911 -0.00813044 0
-0.0260485 -0.00850595 0
-0.0213796 -0.00817946 0
-0.0165848 -0.00716038 0
-0.0119613 -0.00553625 0
-0.00776546 -0.00346515 0
-0.00417981 -0.00116606 0
-0.00220695 0.00107711 0
-0.000922173 0.00290132 0
0.000637155 0.00495892 0
0.00161212 0.00691169 0
0.00208666 0.00861863 0
0.00215625 0.0100214 0
0.00191669 0.0110939 0
0.00146125 0.0118204 0
0.000881897 0.012184 0
0.000271778 0.0121586 0
-0.000272034 0.0116988 0
-0.000648089 0.0107238 0
-0.000760783 0.00909055 0
-0.000565351 0.00655609 0
-0.000195204 0.00275958 0
-0.000117117 -0.00227587 0
-0.000450303 -0.00560443 0
-0.00090076 -0.00781103 0
-0.00137305 -0.00905998 0
-0.00187744 -0.00954617 0
-0.00247871 -0.00943723 0
-0.00325699 -0.00886481 0
-0.00428808 -0.00792958 0
-0.00563647 -0.00670653 0
-0.00735478 -0.00524603 0
-0.00948512 -0.00356696 0
-0.0104788 -0.00163593 0
-0.0118952 0.000651371 0
-0.0152948 0.00243613 0
-0.0190928 0.00389876 0
-0.0232422 0.00510902 0
-0.0276747 0.00605919 0
-0.0322957 0.00669672 0
-0.0369754 0.0069488 0
-0.0415435 0.0067422 0
-0.045791 0.00602097 0
-0.0494793 0.00476253 0
-0.0523574 0.00299071 0
-0.0542499 0.00078029 0
-0.054881 -0.00178739 0
-0.0540524 -0.00441726 0
-0.0518018 -0.006896 0
-0.0481949 -0.00900002 0
-0.0433977 -0.0105154 0
-0.0376725 -0.0112713 0
-0.0313581 -0.0111697 0
-0.0248354 -0.0102034 0
-0.0184854 -0.00846217 0
-0.0126447 -0.00612602 0
-0.00756548 -0.00345519 0
-0.00474515 -0.000787857 0
-0.00287192 0.00147213 0
-0.000540528 0.00394695 0
0.00100282 0.00628527 0
0.00187609 0.00833399 0
0.00220297 0.0100279 0
0.00210878 0.0113353 0
0.00171899 0.0122331 0
0.00115878 0.0126951 0
0.000552245 0.0126827 0
1.92413e-05 0.0121372 0
-0.000334314 0.0109696 0
-0.000439859 0.00905477 0
-0.000310726 0.00624209 0
-9.80219e-05 0.00242335 0
-8.39433e-05 -0.00203094 0
-0.000381468 -0.00510913 0
-0.000899012 -0.00722325 0
-0.00158083 -0.00842292 0
-0.00242055 -0.00883205 0
-0.00345576 -0.00859301 0
-0.00474861 -0.00783841 0
-0.00636876 -0.00668027 0
-0.00838291 -0.00520676 0
-0.0108493 -0.00347977 0
-0.0138133 -0.00152896 0
-0.0152225 0.000661242 0
-0.0171191 0.00314921 0
-0.0215637 0.00514362 0
-0.0264916 0.0067866 0
-0.0318558 0.00813203 0
-0.0375675 0.00915964 0
-0.0434965 0.00980094 0
-0.0494662 0.0099642 0
-0.0552517 0.00955721 0
-0.0605844 0.00850858 0
-0.0651654 0.00678744 0
-0.0686869 0.00441934 0
-0.0709872 0.00149287 0
-0.0717171 -0.0018779 0
-0.0706253 -0.00534848 0
-0.0678107 -0.00866349 0
-0.0633493 -0.0115516 0
-0.0574309 -0.0137456 0
-0.0503563 -0.0150242 0
-0.0425154 -0.0152494 0
-0.0343517 -0.0143911 0
-0.0263168 -0.0125372 0
-0.018822 -0.00989009 0
-0.012194 -0.00675409 0
-0.00849403 -0.00352417 0
-0.00598054 -0.000651702 0
-0.00275323 0.00238665 0
-0.000501496 0.00523654 0
0.000923185 0.00774015 0
0.00166653 0.00982482 0
0.00187646 0.011449 0
0.00170339 0.0125787 0
0.00129705 0.0131758 0
0.000800872 0.0131917 0
0.000342653 0.0125633 0
1.99139e-05 0.011214 0
-0.000120896 0.00906524 0
-0.000105452 0.00606789 0
-3.34816e-05 0.0022646 0
-7.80881e-05 -0.00182188 0
-0.000391703 -0.0045619 0
-0.00101301 -0.00642875 0
-0.00192899 -0.00743311 0
-0.0031393 -0.00765299 0
-0.00466706 -0.00720167 0
-0.00655597 -0.006201 0
-0.0088619 -0.00476431 0
-0.0116442 -0.00298704 0
-0.0149581 -0.000941304 0
-0.0188454 0.00132904 0
-0.0207161 0.00381441 0
-0.0231282 0.00652309 0
-0.0286736 0.00876217 0
-0.0347721 0.0106254 0
-0.0413758 0.0121355 0
-0.0483758 0.0132489 0
-0.0556063 0.0138741 0
-0.0628449 0.013896 0
-0.0698147 0.013201 0
-0.0761936 0.0117018 0
-0.0816319 0.00936099 0
-0.0857772 0.00621013 0
-0.0884706 0.00236045 0
-0.0893132 -0.00202225 0
-0.0880294 -0.00653602 0
-0.0847621 -0.0108923 0
-0.0795832 -0.0147645 0
-0.0726895 -0.0178227 0
-0.0644011 -0.0197862 0
-0.055141 -0.0204673 0
-0.0454003 -0.0198036 0
-0.0356931 -0.0178739 0
-0.0265049 -0.0148977 0
-0.0182442 -0.0112212 0
-0.0136204 -0.00729631 0
-0.0104022 -0.0036292 0
-0.00612581 0.000117244 0
-0.00299756 0.00360292 0
-0.000846538 0.00667577 0
0.00048628 0.009256 0
0.00116319 0.0112886 0
0.00135153 0.012725 0
0.00121741 0.0135156 0
0.00091548 0.0136065 0
0.00057659 0.0129415 0
0.000294315 0.0114699 0
0.000113813 0.00916464 0
2.99773e-05 0.00604899 0
4.30278e-06 0.00222821 0
-9.04312e-05 -0.00159214 0
-0.000467064 -0.00389134 0
-0.00124638 -0.00536217 0
-0.00244436 -0.00601594 0
-0.00407195 -0.00591154 0
-0.00614696 -0.00514112 0
-0.00869901 -0.00381201 0
-0.0117687 -0.0020312 0
-0.0154027 0.000105181 0
-0.0196468 0.002518 0
-0.0245344 0.0051482 0
-0.0269044 0.00795714 0
-0.029864 0.0109009 0
-0.0365669 0.0134127 0
-0.0438807 0.0155273 0
-0.0517527 0.0172224 0
-0.0600534 0.0184197 0
-0.0685831 0.0189974 0
-0.077077 0.0188133 0
-0.0852128 0.0177312 0
-0.092624 0.0156494 0
-0.0989217 0.0125273 0
-0.103722 0.00840746 0
-0.106822 0.00343093 0
-0.107823 -0.00217816 0
-0.106478 -0.00793012 0
-0.102921 -0.0135337 0
-0.0972001 -0.0186005 0
-0.0895011 -0.0227294 0
-0.0801439 -0.0255701 0
-0.0695671 -0.0268742 0
-0.0582973 -0.0265339 0
-0.0469053 -0.0246063 0
-0.0359533 -0.0213173 0
-0.0259414 -0.0170482 0
-0.0203312 -0.0123052 0
-0.0163256 -0.0076584 0
-0.0108109 -0.00306535 0
-0.00660349 0.00117883 0
-0.00352328 0.00494101 0
-0.00140982 0.00813408 0
-9.51437e-05 0.010685 0
0.000598436 0.0125274 0
0.000848616 0.0136004 0
0.00081954 0.0138497 0
0.000648739 0.013232 0
0.000437355 0.0117254 0
0.000246812 0.00934353 0
0.000105208 0.00615033 0
2.42215e-05 0.00226772 0
-0.00011524 -0.00129698 0
-0.000593312 -0.00301378 0
-0.00158594 -0.00392938 0
-0.00312344 -0.0040712 0
-0.0052239 -0.00349637 0
-0.0079021 -0.00228555 0
-0.0111767 -0.00053256 0
-0.0150739 0.00166625 0
-0.0196261 0.00421966 0
-0.0248661 0.00704543 0
-0.0308159 0.0100703 0
-0.0337143 0.0132256 0
-0.037248 0.0164157 0
-0.04516 0.0192228 0
-0.0537314 0.0216106 0
-0.0628998 0.0235001 0
-0.0725146 0.0247678 0
-0.0823453 0.0252557 0
-0.0920908 0.0247917 0
-0.101392 0.0232175 0
-0.109851 0.0204199 0
-0.117053 0.0163592 0
-0.122592 0.0110936 0
-0.126138 0.00479602 0
-0.127372 -0.00225594 0
-0.126161 -0.00943409 0
-0.122528 -0.0164968 0
-0.116483 -0.022986 0
-0.10818 -0.0284212 0
-0.0979182 -0.0323726 0
-0.0861362 -0.0345164 0
-0.0733828 -0.0346829 0
-0.0602801 -0.0328885 0
-0.0474699 -0.029349 0
-0.0355546 -0.0244673 0
-0.0288761 -0.018799 0
-0.0239787 -0.0129868 0
-0.0169914 -0.00741998 0
-0.0114587 -0.00229499 0
-0.00721127 0.00228885 0
-0.00410162 0.00623364 0
-0.00196418 0.00944096 0
-0.000614514 0.0118218 0
0.000136413 0.0133026 0
0.000465763 0.0138295 0
0.000525623 0.013373 0
0.000435837 0.0119349 0
0.000284098 0.00955605 0
0.000133106 0.00631989 0
3.21979e-05 0.00234873 0
-0.000149138 -0.000898763 0
-0.000759416 -0.00184467 0
-0.00201484 -0.00202293 0
-0.00394866 -0.00148118 0
-0.00657886 -0.000282888 0
-0.0099148 0.00149656 0
-0.0139647 0.00377537 0
-0.0187408 0.0064704 0
-0.0242613 0.00949981 0
-0.0305454 0.0127822 0
-0.0376023 0.0162325 0
-0.0410486 0.0197532 0
-0.0451759 0.0232001 0
-0.0543383 0.0263203 0
-0.0642011 0.0289944 0
-0.0746885 0.0310763 0
-0.0856285 0.0323903 0
-0.096764 0.0327375 0
-0.107767 0.031915 0
-0.118252 0.0297447 0
-0.127802 0.0261054 0
-0.135988 0.0209627 0
-0.142394 0.0143921 0
-0.146443 0.00659457 0
-0.148009 -0.00211126 0
-0.147181 -0.0108989 0
-0.143737 -0.0196427 0
-0.137626 -0.0278039 0
-0.128956 -0.0348167 0
-0.11799 -0.0401609 0
-0.105144 -0.043422 0
-0.0909747 -0.0443465 0
-0.0761456 -0.0428857 0
-0.0613772 -0.0392201 0
-0.0473831 -0.0337542 0
-0.039543 -0.0270819 0
-0.0336269 -0.0199239 0
-0.0248777 -0.0132746 0
-0.0177209 -0.00714417 0
-0.0120256 -0.00158525 0
-0.00767329 0.00328269 0
-0.00450696 0.00732325 0
-0.00233569 0.010416 0
-0.000955355 0.0124703 0
-0.000169039 0.0134298 0
0.000198664 0.0132751 0
0.000294826 0.0120247 0
0.000238247 0.00973615 0
0.000124346 0.00650259 0
3.18703e-05 0.00244493 0
-0.000189909 -0.000364096 0
-0.0009566 -0.000302792 0
-0.0025158 0.000467257 0
-0.00489533 0.00187849 0
-0.00810592 0.00385937 0
-0.0121472 0.00633825 0
-0.0170149 0.0092459 0
-0.0227079 0.0125153 0
-0.0292301 0.0160782 0
-0.0365875 0.0198583 0
-0.0447776 0.0237614 0
-0.0487809 0.0276643 0
-0.0535124 0.0313796 0
-0.0639506 0.0348268 0
-0.0751245 0.0377918 0
-0.0869416 0.0400542 0
-0.09921 0.0413814 0
-0.111652 0.0415319 0
-0.123921 0.0402734 0
-0.13562 0.0374111 0
-0.146322 0.0328199 0
-0.155595 0.026473 0
-0.163018 0.0184617 0
-0.16763 0.00900758 0
-0.169641 -0.00154573 0
-0.169484 -0.0121249 0
-0.166522 -0.022783 0
-0.160641 -0.0328876 0
-0.151888 -0.0417843 0
-0.140468 -0.0488547 0
-0.126757 -0.0535774 0
-0.111296 -0.0555909 0
-0.0947721 -0.0547511 0
-0.0779743 -0.051169 0
-0.0617293 -0.0452205 0
-0.0526406 -0.0375165 0
-0.0455612 -0.0288537 0
-0.0346992 -0.0210411 0
-0.0255607 -0.0137733 0
-0.0180893 -0.00705362 0
-0.0122119 -0.00104643 0
-0.00778389 0.00405346 0
-0.00460495 0.00808075 0
-0.00244951 0.0109194 0
-0.0010928 0.012505 0
-0.000327809 0.0128223 0
2.62662e-05 0.0119004 0
0.000122247 0.00980777 0
8.71435e-05 0.00664485 0
2.55953e-05 0.00253508 0
-0.000235754 0.000337101 0
-0.00117685 0.00168689 0
-0.00307065 0.00364575 0
-0.00593343 0.00612812 0
-0.00976266 0.00905647 0
-0.0145436 0.0123656 0
-0.0202572 0.0160024 0
-0.0268877 0.0199207 0
-0.0344255 0.0240707 0
-0.0428645 0.0283855 0
-0.052192 0.032766 0
-0.0567507 0.037067 0
-0.0620862 0.0410643 0
-0.073804 0.044849 0
-0.0862875 0.0481018 0
-0.0994261 0.0505241 0
-0.11301 0.0518254 0
-0.126749 0.0517226 0
-0.140286 0.0499568 0
-0.153221 0.0463202 0
-0.165131 0.0406871 0
-0.175586 0.0330388 0
-0.184166 0.0234793 0
-0.189386 0.012241 0
-0.191948 -0.000320024 0
-0.192754 -0.0128744 0
-0.19058 -0.0256857 0
-0.18525 -0.0380163 0
-0.176742 -0.0491282 0
-0.165191 -0.0583009 0
-0.150904 -0.0648937 0
-0.134377 -0.0684138 0
-0.116287 -0.0685861 0
-0.0974692 -0.0654103 0
-0.0788502 -0.0591893 0
-0.0684632 -0.0505147 0
-0.0600705 -0.0402425 0
-0.0466863 -0.031225 0
-0.0351527 -0.0226731 0
-0.0255317 -0.0145632 0
-0.0178106 -0.00714451 0
-0.0118585 -0.000699745 0
-0.00746122 0.00454226 0
-0.00436485 0.00842822 0
-0.00230861 0.0108779 0
-0.00104635 0.0118742 0
-0.000357842 0.0114524 0
-5.30873e-05 0.00968976 0
2.75539e-05 0.00669555 0
1.49706e-05 0.00260138 0
-0.000284872 0.00123095 0
-0.00141174 0.00418965 0
-0.00365909 0.0076041 0
-0.00702725 0.0113733 0
-0.0114958 0.0154185 0
-0.0170319 0.0196867 0
-0.0235992 0.024148 0
-0.0311665 0.0287834 0
-0.0397109 0.0335681 0
-0.0492155 0.0384499 0
-0.0596596 0.0433293 0
-0.0647599 0.0480438 0
-0.0706859 0.0523397 0
-0.0836589 0.0564679 0
-0.0974212 0.059998 0
-0.111844 0.0625526 0
-0.126705 0.0637852 0
-0.141704 0.0633746 0
-0.156483 0.0610387 0
-0.170648 0.0565606 0
-0.183783 0.0498161 0
-0.195467 0.0407942 0
-0.20529 0.0296082 0
-0.211123 0.016495 0
-0.214315 0.00181743 0
-0.216336 -0.012896 0
-0.215232 -0.0280879 0
-0.210779 -0.0429172 0
-0.20289 -0.056576 0
-0.191611 -0.0682474 0
-0.177155 -0.077167 0
-0.159931 -0.082692 0
-0.140563 -0.0843821 0
-0.119882 -0.0820761 0
-0.0988817 -0.0759458 0
-0.0872305 -0.0665069 0
-0.0773935 -0.0546333 0
-0.0610422 -0.0444195 0
-0.0466662 -0.0344154 0
-0.0344917 -0.0246343 0
-0.024578 -0.015469 0
-0.0168093 -0.00732718 0
-0.0109554 -0.000524958 0
-0.00672883 0.00473186 0
-0.0038261 0.00833717 0
-0.00195517 0.0102662 0
-0.000850667 0.0105573 0
-0.000281039 0.00929658 0
-5.06262e-05 0.00660511 0
9.92286e-07 0.00262825 0
-0.00033521 0.00233792 0
-0.0016516 0.00725601 0
-0.00425752 0.0124125 0
-0.00813445 0.0176942 0
-0.0132412 0.0230273 0
-0.019524 0.0283798 0
-0.0269278 0.0337537 0
-0.0354049 0.0391667 0
-0.0449198 0.0446266 0
-0.0554459 0.0501021 0
-0.0669562 0.0554983 0
-0.0725709 0.0606409 0
-0.0790582 0.0652539 0
-0.0932253 0.0697258 0
-0.108197 0.0735147 0
-0.123827 0.0761674 0
-0.139882 0.0772856 0
-0.156059 0.076514 0
-0.172003 0.073552 0
-0.187326 0.0681763 0
-0.201626 0.060266 0
-0.214496 0.0498184 0
-0.225543 0.0369561 0
-0.231941 0.0219208 0
-0.235785 0.00508545 0
-0.239183 -0.0119604 0
-0.239366 -0.0297204 0
-0.236096 -0.0472772 0
-0.229222 -0.0637766 0
-0.218695 -0.0783238 0
-0.204605 -0.0900395 0
-0.18723 -0.0981249 0
-0.167081 -0.101947 0
-0.144916 -0.101133 0
-0.121732 -0.0956563 0
-0.108993 -0.0858768 0
-0.0976409 -0.0726118 0
-0.0779003 -0.0612668 0
-0.0602521 -0.0496234 0
-0.0451215 -0.0378466 0
-0.0326498 -0.0265415 0
-0.0227449 -0.0162836 0
-0.0151659 -0.00750529 0
-0.00959176 -0.000485114 0
-0.00567306 0.00463187 0
-0.00306639 0.00780569 0
-0.00145532 0.00907499 0
-0.000561025 0.00853532 0
-0.000146378 0.00632264 0
-1.59874e-05 0.00260094 0
-0.00038435 0.00367034 0
-0.00188513 0.0109155 0
-0.00483841 0.0181106 0
-0.00920568 0.025134 0
-0.0149237 0.0319242 0
-0.0219168 0.0384801 0
-0.0301103 0.0448468 0
-0.0394403 0.0510893 0
-0.0498585 0.0572568 0
-0.0613296 0.0633462 0
-0.0738217 0.0692729 0
-0.0799086 0.074856 0
-0.0869091 0.0798039 0
-0.102164 0.0846111 0
-0.118226 0.0886301 0
-0.134932 0.091338 0
-0.15204 0.0922899 0
-0.169243 0.0911013 0
-0.186193 0.0874563 0
-0.202508 0.0811287 0
-0.2178 0.0720037 0
-0.231684 0.0600912 0
-0.243797 0.0455284 0
-0.250638 0.028571 0
-0.255083 0.00961345 0
-0.259879 -0.00990384 0
-0.261463 -0.0303427 0
-0.259616 -0.0507695 0
-0.25414 -0.0703156 0
-0.244886 -0.0880415 0
-0.231806 -0.10298 0
-0.215004 -0.114189 0
-0.194809 -0.120832 0
-0.171823 -0.122286 0
-0.146948 -0.118254 0
-0.133497 -0.108849 0
-0.12068 -0.094717 0
-0.0972619 -0.0823681 0
-0.0760169 -0.06891 0
-0.0575802 -0.0548055 0
-0.0421933 -0.0409359 0
-0.0298138 -0.0280886 0
-0.0202099 -0.0168493 0
-0.0130378 -0.00759804 0
-0.00790445 -0.000538339 0
-0.00441245 0.00426331 0
-0.00218867 0.00684086 0
-0.0009004 0.00729897 0
-0.000262061 0.00579103 0
-3.6363e-05 0.00250345 0
-0.000429495 0.00522956 0
-0.00209936 0.0151697 0
-0.00537052 0.0246979 0
-0.0101852 0.0336877 0
-0.0164589 0.0420978 0
-0.0240949 0.0499683 0
-0.0329989 0.0573992 0
-0.0430911 0.0645139 0
-0.054311 0.0714129 0
-0.0666147 0.0781288 0
-0.0799657 0.0845935 0
-0.0864663 0.0906245 0
-0.0939101 0.0959203 0
-0.110093 0.101042 0
-0.127067 0.105248 0
-0.144652 0.107955 0
-0.162596 0.108676 0
-0.180588 0.107002 0
-0.198282 0.102605 0
-0.215304 0.0952612 0
-0.231282 0.0848673 0
-0.245861 0.0714549 0
-0.258723 0.0551893 0
-0.265818 0.0363555 0
-0.270725 0.0153849 0
-0.276766 -0.00667281 0
-0.279723 -0.0297879 0
-0.27943 -0.0530981 0
-0.275659 -0.0757563 0
-0.268181 -0.096827 0
-0.2568 -0.115301 0
-0.24142 -0.130128 0
-0.22213 -0.140286 0
-0.199287 -0.144886 0
-0.173579 -0.143307 0
-0.160021 -0.135325 0
-0.145986 -0.12127 0
-0.118904 -0.108129 0
-0.0939631 -0.092776 0
-0.0719957 -0.0760845 0
-0.0533855 -0.0592501 0
-0.0381939 -0.0433178 0
-0.0262406 -0.0290767 0
-0.0171858 -0.0170512 0
-0.0106048 -0.00753456 0
-0.00604821 -0.000639246 0
-0.00308275 0.0036543 0
-0.00131512 0.00545681 0
-0.000403634 0.00494004 0
-6.1315e-05 0.0023157 0
-0.000467562 0.00700309 0
-0.00228016 0.0199856 0
-0.00581991 0.0321248 0
-0.0110129 0.0432922 0
-0.0177564 0.0534736 0
-0.0259347 0.0627598 0
-0.0354359 0.0713169 0
-0.0461646 0.0793374 0
-0.0580482 0.0869827 0
-0.0710338 0.0943289 0
-0.0850793 0.10133 0
-0.0919177 0.107807 0
-0.0997109 0.113453 0
-0.116603 0.118849 0
-0.134245 0.123181 0
-0.152438 0.125811 0
-0.170918 0.126215 0
-0.189368 0.123964 0
-0.207438 0.118724 0
-0.224764 0.110278 0
-0.240996 0.0985464 0
-0.255816 0.083598 0
-0.268968 0.0656436 0
-0.276072 0.0450172 0
-0.281223 0.0221995 0
-0.288175 -0.00235637 0
-0.292317 -0.0280071 0
-0.293557 -0.0540531 0
-0.291665 -0.0797065 0
-0.286358 -0.104093 0
-0.277309 -0.126224 0
-0.264221 -0.145003 0
-0.24691 -0.159269 0
-0.225416 -0.167892 0
-0.200103 -0.169909 0
-0.187239 -0.164695 0
-0.17249 -0.152116 0
-0.142256 -0.138559 0
-0.11388 -0.121471 0
-0.0883768 -0.102132 0
-0.0663499 -0.0820483 0
-0.048051 -0.0625729 0
-0.0334222 -0.0447654 0
-0.0221748 -0.029359 0
-0.0138796 -0.0167869 0
-0.00804633 -0.00724038 0
-0.00418215 -0.000732979 0
-0.00182845 0.00284396 0
-0.000580132 0.00367886 0
-9.26949e-05 0.00201047 0
-0.000495376 0.00896236 0
-0.002413 0.0252907 0
-0.006152 0.0402857 0
-0.0116279 0.0538185 0
-0.0187246 0.0659063 0
-0.0273119 0.0766977 0
-0.0372628 0.0864333 0
-0.0484675 0.095384 0
-0.0608406 0.103781 0
-0.0743192 0.11175 0
-0.0888531 0.119274 0
-0.0959357 0.126181 0
-0.103961 0.132161 0
-0.121283 0.137769 0
-0.139285 0.14214 0
-0.157745 0.144589 0
-0.176384 0.144563 0
-0.194875 0.141613 0
-0.212867 0.135407 0
-0.230006 0.125748 0
-0.245968 0.112594 0
-0.260488 0.096071 0
-0.273383 0.0764543 0
-0.280225 0.0541447 0
-0.28535 0.0296764 0
-0.29274 0.00280682 0
-0.297738 -0.0250982 0
-0.300323 -0.053563 0
-0.300301 -0.0818957 0
-0.297368 -0.109341 0
-0.291108 -0.135 0
-0.281052 -0.157811 0
-0.266753 -0.176556 0
-0.247908 -0.189925 0
-0.224483 -0.196652 0
-0.213194 -0.195693 0