# vtk DataFile Version 2.0
Presion
ASCII

DATASET STRUCTURED_GRID
DIMENSIONS   50   50   20

POINTS   50000   double
0.00568455   0.00568455   0.025
0.0174023   0.00568455   0.025
0.0298294   0.00568455   0.025
0.0429888   0.00568455   0.025
0.0569012   0.00568455   0.025
0.0715849   0.00568455   0.025
0.0870549   0.00568455   0.025
0.103323   0.00568455   0.025
0.120395   0.00568455   0.025
0.138275   0.00568455   0.025
0.156961   0.00568455   0.025
0.176443   0.00568455   0.025
0.196707   0.00568455   0.025
0.217734   0.00568455   0.025
0.239496   0.00568455   0.025
0.261959   0.00568455   0.025
0.285082   0.00568455   0.025
0.308818   0.00568455   0.025
0.333113   0.00568455   0.025
0.357906   0.00568455   0.025
0.383132   0.00568455   0.025
0.408719   0.00568455   0.025
0.434592   0.00568455   0.025
0.460672   0.00568455   0.025
0.486877   0.00568455   0.025
0.513123   0.00568455   0.025
0.539328   0.00568455   0.025
0.565408   0.00568455   0.025
0.591281   0.00568455   0.025
0.616868   0.00568455   0.025
0.642094   0.00568455   0.025
0.666887   0.00568455   0.025
0.691182   0.00568455   0.025
0.714918   0.00568455   0.025
0.738041   0.00568455   0.025
0.760504   0.00568455   0.025
0.782266   0.00568455   0.025
0.803293   0.00568455   0.025
0.823557   0.00568455   0.025
0.843039   0.00568455   0.025
0.861725   0.00568455   0.025
0.879605   0.00568455   0.025
0.896677   0.00568455   0.025
0.912945   0.00568455   0.025
0.928415   0.00568455   0.025
0.943099   0.00568455   0.025
0.957011   0.00568455   0.025
0.970171   0.00568455   0.025
0.982598   0.00568455   0.025
0.994315   0.00568455   0.025
0.00568455   0.0174023   0.025
0.0174023   0.0174023   0.025
0.0298294   0.0174023   0.025
0.0429888   0.0174023   0.025
0.0569012   0.0174023   0.025
0.0715849   0.0174023   0.025
0.0870549   0.0174023   0.025
0.103323   0.0174023   0.025
0.120395   0.0174023   0.025
0.138275   0.0174023   0.025
0.156961   0.0174023   0.025
0.176443   0.0174023   0.025
0.196707   0.0174023   0.025
0.217734   0.0174023   0.025
0.239496   0.0174023   0.025
0.261959   0.0174023   0.025
0.285082   0.0174023   0.025
0.308818   0.0174023   0.025
0.333113   0.0174023   0.025
0.357906   0.0174023   0.025
0.383132   0.0174023   0.025
0.408719   0.0174023   0.025
0.434592   0.0174023   0.025
0.460672   0.0174023   0.025
0.486877   0.0174023   0.025
0.513123   0.0174023   0.025
0.539328   0.0174023   0.025
0.565408   0.0174023   0.025
0.591281   0.0174023   0.025
0.616868   0.0174023   0.025
0.642094   0.0174023   0.025
0.666887   0.0174023   0.025
0.691182   0.0174023   0.025
0.714918   0.0174023   0.025
0.738041   0.0174023   0.025
0.760504   0.0174023   0.025
0.782266   0.0174023   0.025
0.803293   0.0174023   0.025
0.823557   0.0174023   0.025
0.843039   0.0174023   0.025
0.861725   0.0174023   0.025
0.879605   0.0174023   0.025
0.896677   0.0174023   0.025
0.912945   0.0174023   0.025
0.928415   0.0174023   0.025
0.943099   0.0174023   0.025
0.957011   0.0174023   0.025
0.970171   0.0174023   0.025
0.982598   0.0174023   0.025
0.994315   0.0174023   0.025
0.00568455   0.0298294   0.025
0.0174023   0.0298294   0.025
0.0298294   0.0298294   0.025
0.0429888   0.0298294   0.025
0.0569012   0.0298294   0.025
0.0715849   0.0298294   0.025
0.0870549   0.0298294   0.025
0.103323   0.0298294   0.025
0.120395   0.0298294   0.025
0.138275   0.0298294   0.025
0.156961   0.0298294   0.025
0.176443   0.0298294   0.025
0.196707   0.0298294   0.025
0.217734   0.0298294   0.025
0.239496   0.0298294   0.025
0.261959   0.0298294   0.025
0.285082   0.0298294   0.025
0.308818   0.0298294   0.025
0.333113   0.0298294   0.025
0.357906   0.0298294   0.025
0.383132   0.0298294   0.025
0.408719   0.0298294   0.025
0.434592   0.0298294   0.025
0.460672   0.0298294   0.025
0.486877   0.0298294   0.025
0.513123   0.0298294   0.025
0.539328   0.0298294   0.025
0.565408   0.0298294   0.025
0.591281   0.0298294   0.025
0.616868   0.0298294   0.025
0.642094   0.0298294   0.025
0.666887   0.0298294   0.025
0.691182   0.0298294   0.025
0.714918   0.0298294   0.025
0.738041   0.0298294   0.025
0.760504   0.0298294   0.025
0.782266   0.0298294   0.025
0.803293   0.0298294   0.025
0.823557   0.0298294   0.025
0.843039   0.0298294   0.025
0.861725   0.0298294   0.025
0.879605   0.0298294   0.025
0.896677   0.0298294   0.025
0.912945   0.0298294   0.025
0.928415   0.0298294   0.025
0.943099   0.0298294   0.025
0.957011   0.0298294   0.025
0.970171   0.0298294   0.025
0.982598   0.0298294   0.025
0.994315   0.0298294   0.025
0.00568455   0.0429888   0.025
0.0174023   0.0429888   0.025
0.0298294   0.0429888   0.025
0.0429888   0.0429888   0.025
0.0569012   0.0429888   0.025
0.0715849   0.0429888   0.025
0.0870549   0.0429888   0.025
0.103323   0.0429888   0.025
0.120395   0.0429888   0.025
0.138275   0.0429888   0.025
0.156961   0.0429888   0.025
0.176443   0.0429888   0.025
0.196707   0.0429888   0.025
0.217734   0.0429888   0.025
0.239496   0.0429888   0.025
0.261959   0.0429888   0.025
0.285082   0.0429888   0.025
0.308818   0.0429888   0.025
0.333113   0.0429888   0.025
0.357906   0.0429888   0.025
0.383132   0.0429888   0.025
0.408719   0.0429888   0.025
0.434592   0.0429888   0.025
0.460672   0.0429888   0.025
0.486877   0.0429888   0.025
0.513123   0.0429888   0.025
0.539328   0.0429888   0.025
0.565408   0.0429888   0.025
0.591281   0.0429888   0.025
0.616868   0.0429888   0.025
0.642094   0.0429888   0.025
0.666887   0.0429888   0.025
0.691182   0.0429888   0.025
0.714918   0.0429888   0.025
0.738041   0.0429888   0.025
0.760504   0.0429888   0.025
0.782266   0.0429888   0.025
0.803293   0.0429888   0.025
0.823557   0.0429888   0.025
0.843039   0.0429888   0.025
0.861725   0.0429888   0.025
0.879605   0.0429888   0.025
0.896677   0.0429888   0.025
0.912945   0.0429888   0.025
0.928415   0.0429888   0.025
0.943099   0.0429888   0.025
0.957011   0.0429888   0.025
0.970171   0.0429888   0.025
0.982598   0.0429888   0.025
0.994315   0.0429888   0.025
0.00568455   0.0569012   0.025
0.0174023   0.0569012   0.025
0.0298294   0.0569012   0.025
0.0429888   0.0569012   0.025
0.0569012   0.0569012   0.025
0.0715849   0.0569012   0.025
0.0870549   0.0569012   0.025
0.103323   0.0569012   0.025
0.120395   0.0569012   0.025
0.138275   0.0569012   0.025
0.156961   0.0569012   0.025
0.176443   0.0569012   0.025
0.196707   0.0569012   0.025
0.217734   0.0569012   0.025
0.239496   0.0569012   0.025
0.261959   0.0569012   0.025
0.285082   0.0569012   0.025
0.308818   0.0569012   0.025
0.333113   0.0569012   0.025
0.357906   0.0569012   0.025
0.383132   0.0569012   0.025
0.408719   0.0569012   0.025
0.434592   0.0569012   0.025
0.460672   0.0569012   0.025
0.486877   0.0569012   0.025
0.513123   0.0569012   0.025
0.539328   0.0569012   0.025
0.565408   0.0569012   0.025
0.591281   0.0569012   0.025
0.616868   0.0569012   0.025
0.642094   0.0569012   0.025
0.666887   0.0569012   0.025
0.691182   0.0569012   0.025
0.714918   0.0569012   0.025
0.738041   0.0569012   0.025
0.760504   0.0569012   0.025
0.782266   0.0569012   0.025
0.803293   0.0569012   0.025
0.823557   0.0569012   0.025
0.843039   0.0569012   0.025
0.861725   0.0569012   0.025
0.879605   0.0569012   0.025
0.896677   0.0569012   0.025
0.912945   0.0569012   0.025
0.928415   0.0569012   0.025
0.943099   0.0569012   0.025
0.957011   0.0569012   0.025
0.970171   0.0569012   0.025
0.982598   0.0569012   0.025
0.994315   0.0569012   0.025
0.00568455   0.0715849   0.025
0.0174023   0.0715849   0.025
0.0298294   0.0715849   0.025
0.0429888   0.0715849   0.025
0.0569012   0.0715849   0.025
0.0715849   0.0715849   0.025
0.0870549   0.0715849   0.025
0.103323   0.0715849   0.025
0.120395   0.0715849   0.025
0.138275   0.0715849   0.025
0.156961   0.0715849   0.025
0.176443   0.0715849   0.025
0.196707   0.0715849   0.025
0.217734   0.0715849   0.025
0.239496   0.0715849   0.025
0.261959   0.0715849   0.025
0.285082   0.0715849   0.025
0.308818   0.0715849   0.025
0.333113   0.0715849   0.025
0.357906   0.0715849   0.025
0.383132   0.0715849   0.025
0.408719   0.0715849   0.025
0.434592   0.0715849   0.025
0.460672   0.0715849   0.025
0.486877   0.0715849   0.025
0.513123   0.0715849   0.025
0.539328   0.0715849   0.025
0.565408   0.0715849   0.025
0.591281   0.0715849   0.025
0.616868   0.0715849   0.025
0.642094   0.0715849   0.025
0.666887   0.0715849   0.025
0.691182   0.0715849   0.025
0.714918   0.0715849   0.025
0.738041   0.0715849   0.025
0.760504   0.0715849   0.025
0.782266   0.0715849   0.025
0.803293   0.0715849   0.025
0.823557   0.0715849   0.025
0.843039   0.0715849   0.025
0.861725   0.0715849   0.025
0.879605   0.0715849   0.025
0.896677   0.0715849   0.025
0.912945   0.0715849   0.025
0.928415   0.0715849   0.025
0.943099   0.0715849   0.025
0.957011   0.0715849   0.025
0.970171   0.0715849   0.025
0.982598   0.0715849   0.025
0.994315   0.0715849   0.025
0.00568455   0.0870549   0.025
0.0174023   0.0870549   0.025
0.0298294   0.0870549   0.025
0.0429888   0.0870549   0.025
0.0569012   0.0870549   0.025
0.0715849   0.0870549   0.025
0.0870549   0.0870549   0.025
0.103323   0.0870549   0.025
0.120395   0.0870549   0.025
0.138275   0.0870549   0.025
0.156961   0.0870549   0.025
0.176443   0.0870549   0.025
0.196707   0.0870549   0.025
0.217734   0.0870549   0.025
0.239496   0.0870549   0.025
0.261959   0.0870549   0.025
0.285082   0.0870549   0.025
0.308818   0.0870549   0.025
0.333113   0.0870549   0.025
0.357906   0.0870549   0.025
0.383132   0.0870549   0.025
0.408719   0.0870549   0.025
0.434592   0.0870549   0.025
0.460672   0.0870549   0.025
0.486877   0.0870549   0.025
0.513123   0.0870549   0.025
0.539328   0.0870549   0.025
0.565408   0.0870549   0.025
0.591281   0.0870549   0.025
0.616868   0.0870549   0.025
0.642094   0.0870549   0.025
0.666887   0.0870549   0.025
0.691182   0.0870549   0.025
0.714918   0.0870549   0.025
0.738041   0.0870549   0.025
0.760504   0.0870549   0.025
0.782266   0.0870549   0.025
[...]
POINT_DATA   50000
SCALARS Presion double
LOOKUP_TABLE   Presion

0 0 0 0 0 0 0 0 0 0 0 0 0 0 0 0 0 0 0 0 0 0 0 0 0 0 0 0 0 0 0 0 0 0 0 0 0 0 0 0 0 0 0 0 0 0 0 0 0 0 0.000453061 0.000486448 0.000518955 0.000531725 0.000523354 0.000496666 0.000455231 0.000402319 0.000340421 0.000270917 0.000193897 0.000107661 -9.03924e-05 -0.000161212 -0.000204319 -0.000222236 -0.000216496 -0.000187091 -0.000133103 -5.3621e-05 5.12583e-05 0.000179552 0.0003269 0.000486496 0.000662925 0.000814033 0.000935636 0.00101387 0.00103781 0.00100071 0.00090109 0.000743189 0.000536891 0.000296963 4.17564e-05 -0.000207982 -0.000372525 -0.000609192 -0.000834207 -0.0010349 -0.00120279 -0.00133285 -0.00142243 -0.00147043 -0.0014767 -0.00144163 -0.00136627 -0.00125374 -0.00111671 -0.0010082 0.000619659 0.000610238 0.000609876 0.000604333 0.000587689 0.000558772 0.000518578 0.00046886 0.000411369 0.000347521 0.000278598 0.000204782 -3.66387e-05 -9.55703e-05 -0.000134416 -0.0001523 -0.000149106 -0.000124185 -7.64653e-05 -5.11145e-06 8.96353e-05 0.000205646 0.000338309 0.000479557 0.000644179 0.000778199 0.000883643 0.000947181 0.000958617 0.000911869 0.000805883 0.00064505 0.000438963 0.000201472 -5.09689e-05 -0.000299957 -0.000420967 -0.000656895 -0.000876194 -0.00106965 -0.00123079 -0.00135586 -0.00144327 -0.00149307 -0.00150668 -0.00148714 -0.00144002 -0.00137598 -0.0013162 -0.00130043 0.000754412 0.000730505 0.000711258 0.000690801 0.000664897 0.00063158 0.000590574 0.000542549 0.000488583 0.000429936 0.000368358 0.00030368 1.439e-05 -3.45294e-05 -6.91236e-05 -8.70242e-05 -8.69166e-05 -6.74776e-05 -2.73143e-05 3.45582e-05 0.000117994 0.000220953 0.000338796 0.000462645 0.000616405 0.000736943 0.000829863 0.000882312 0.000884408 0.000830214 0.000718684 0.000554087 0.000345689 0.000106664 -0.000147754 -0.00039966 -0.000472531 -0.00071126 -0.000928943 -0.00111876 -0.00127619 -0.00139897 -0.00148671 -0.00154062 -0.00156342 -0.00155965 -0.00153638 -0.00150433 -0.0014787 -0.00147738 0.000882595 0.000849897 0.000818322 0.000786227 0.000751593 0.00071301 0.000669899 0.000622354 0.000570934 0.000516607 0.000461082 0.000402959 6.2815e-05 2.13646e-05 -1.00531e-05 -2.87619e-05 -3.27703e-05 -2.0185e-05 1.08089e-05 6.15456e-05 0.000132234 0.000221212 0.000324161 0.000431862 0.000574742 0.000685568 0.000769814 0.000815077 0.000811408 0.000752514 0.000636891 0.000468364 0.000255783 1.18417e-05 -0.000248835 -0.000507716 -0.000529243 -0.000774311 -0.000994184 -0.00118383 -0.00134058 -0.00146364 -0.00155381 -0.00161325 -0.00164538 -0.00165503 -0.00164857 -0.00163388 -0.0016195 -0.00161205 0.0010136 0.000971376 0.000929234 0.000887108 0.000844342 0.00080021 0.000754219 0.0007062 0.000656319 0.000605166 0.00055411 0.000500128 0.000107079 7.02967e-05 4.01502e-05 1.90418e-05 9.22121e-06 1.30007e-05 3.26636e-05 7.00728e-05 0.000126061 0.000199691 0.000287402 0.00038011 0.000511621 0.000616323 0.000695815 0.000738127 0.000732881 0.000672899 0.000555687 0.000384202 0.00016667 -8.46122e-05 -0.000355192 -0.000625087 -0.000593164 -0.00084819 -0.00107376 -0.00126647 -0.00142537 -0.0015511 -0.00164548 -0.00171127 -0.00175208 -0.00177227 -0.00177679 -0.00177074 -0.00175857 -0.00174271 0.00114872 0.00109492 0.00104186 0.000989989 0.000939283 0.000889433 0.000840044 0.000790764 0.000741404 0.000692113 0.000643751 0.000591492 0.000143968 0.00010884 7.73353e-05 5.13673e-05 3.31719e-05 2.5339e-05 3.06388e-05 5.16232e-05 9.00301e-05 0.000146035 0.000217361 0.000295541 0.000415497 0.000517004 0.000595512 0.000639492 0.000637742 0.000581622 0.000466992 0.00029535 7.38793e-05 -0.00018563 -0.000468687 -0.000753226 -0.000666853 -0.000935234 -0.00116954 -0.00136815 -0.00153183 -0.00166246 -0.00176264 -0.00183548 -0.00188444 -0.00191315 -0.00192527 -0.00192407 -0.00191206 -0.0018905 0.00128475 0.00121736 0.00115234 0.00109032 0.0010315 0.000975693 0.000922457 0.000871192 0.000821304 0.000772424 0.000724803 0.000671729 0.000168351 0.000131531 9.52874e-05 6.09997e-05 3.07367e-05 7.25669e-06 -6.17616e-06 -6.177e-06 1.01859e-05 4.46387e-05 9.67875e-05 0.000159336 0.000268992 0.000368851 0.000449641 0.000500282 0.000508331 0.000463002 0.000357668 0.000191505 -3.0062e-05 -0.000296183 -0.000592402 -0.000894128 -0.000753916 -0.00103817 -0.00128335 -0.00149011 -0.0016609 -0.00179862 -0.00190636 -0.00198729 -0.00204458 -0.00208121 -0.00209991 -0.00210297 -0.00209213 -0.00206854 0.00141537 0.00133266 0.00125454 0.0011817 0.00111438 0.00105228 0.000994729 0.00094073 0.000889176 0.000839088 0.000790021 0.000733346 0.000172727 0.000130333 8.50539e-05 3.77459e-05 -9.78391e-06 -5.46972e-05 -9.32418e-05 -0.000121072 -0.000133767 -0.000127568 -0.000100296 -5.73789e-05 4.61755e-05 0.000143453 0.000228675 0.000291219 0.000316947 0.000292122 0.000206533 5.579e-05 -0.000157614 -0.000424656 -0.000731396 -0.00105053 -0.000859854 -0.00116047 -0.00141706 -0.00163331 -0.00181321 -0.00196031 -0.00207777 -0.00216858 -0.00223546 -0.00228088 -0.00230698 -0.00231557 -0.0023082 -0.00228618 0.00153135 0.0014319 0.00133964 0.00125532 0.00117905 0.00111027 0.00104786 0.000990276 0.000935753 0.000882575 0.000829518 0.000766017 0.000146634 9.39539e-05 3.41328e-05 -3.25237e-05 -0.000104567 -0.000179185 -0.000252173 -0.000318122 -0.000370831 -0.000403983 -0.000412032 -0.000397586 -0.000291235 -0.000201587 -0.000111923 -3.24118e-05 2.06875e-05 2.97722e-05 -2.03621e-05 -0.000139416 -0.000329633 -0.000585371 -0.000894268 -0.00122657 -0.00099353 -0.00130706 -0.00157288 -0.00179849 -0.00198906 -0.00214805 -0.00227809 -0.00238152 -0.00246049 -0.00251694 -0.00255264 -0.00256919 -0.00256813 -0.00255101 0.00162048 0.00150314 0.00139589 0.00129952 0.00121388 0.00113798 0.00107008 0.00100789 0.000948819 0.00089027 0.000830129 0.000755874 7.59353e-05 7.05464e-06 -7.44675e-05 -0.000168991 -0.000275597 -0.00039167 -0.000512656 -0.000632034 -0.000741537 -0.000831724 -0.000892791 -0.000923176 -0.000798928 -0.000728333 -0.000637981 -0.000537552 -0.000445688 -0.00038479 -0.000376761 -0.000438949 -0.000580953 -0.000802979 -0.00109616 -0.00142938 -0.00116971 -0.00148571 -0.00175406 -0.00198665 -0.00218872 -0.00236234 -0.00250862 -0.00262857 -0.0027234 -0.00279443 -0.00284307 -0.00287078 -0.00287917 -0.00287003 0.00166726 0.00153116 0.00140834 0.00129949 0.00120413 0.00112063 0.00104644 0.00097834 0.000912708 0.000845905 0.000774764 0.000684775 -5.79342e-05 -0.00015061 -0.000263229 -0.00039708 -0.000552082 -0.000726119 -0.0009145 -0.00110961 -0.00130087 -0.0014751 -0.00161727 -0.00171973 -0.0015561 -0.00152516 -0.00144399 -0.00132151 -0.00117859 -0.00104317 -0.000945716 -0.000914116 -0.000968866 -0.00111965 -0.00136424 -0.00167267 -0.00141341 -0.00170975 -0.00196686 -0.0022004 -0.0024134 -0.00260438 -0.00277129 -0.00291282 -0.00302858 -0.00311896 -0.00318487 -0.00322762 -0.00324888 -0.00325064 0.00165266 0.00149729 0.00135857 0.00123702 0.00113163 0.00103996 0.000958457 0.000882721 0.000807905 0.000729105 0.000641887 0.000529685 -0.000278676 -0.00040498 -0.000561037 -0.000749531 -0.00097173 -0.0012265 -0.00150938 -0.00181177 -0.00212057 -0.00241818 -0.00268329 -0.00289958 -0.00267155 -0.00271301 -0.00265999 -0.00251975 -0.00231449 -0.00207789 -0.00185065 -0.00167437 -0.00158475 -0.0016059 -0.00174688 -0.00198381 -0.00176688 -0.00200314 -0.00222434 -0.00244687 -0.00266737 -0.00287752 -0.00306974 -0.00323879 -0.00338172 -0.00349738 -0.00358589 -0.00364827 -0.00368616 -0.0037018 0.00155407 0.00137937 0.00122477 0.00109048 0.000974786 0.000874246 0.000784036 0.000698361 0.000610887 0.000515182 0.00040525 0.000262345 -0.000615587 -0.000788178 -0.00100372 -0.00126701 -0.00158141 -0.00194749 -0.00236151 -0.00281413 -0.00328944 -0.00376468 -0.0042111 -0.00460024 -0.00428745 -0.00444825 -0.0044544 -0.00430943 -0.00403489 -0.00366941 -0.00326476 -0.00287895 -0.00256753 -0.00237492 -0.0023278 -0.00241694 -0.00230002 -0.00240896 -0.00255326 -0.00274285 -0.0029617 -0.00318996 -0.00341117 -0.00361385 -0.00379094 -0.00393881 -0.00405621 -0.00414358 -0.00420244 -0.00423521 0.00134555 0.00115207 0.000982017 0.000835176 0.000708925 0.000598566 0.000497772 0.000399081 0.00029438 0.000175385 3.41442e-05 -0.00015048 -0.00110347 -0.00133835 -0.00163381 -0.00199772 -0.00243658 -0.00295351 -0.0035462 -0.00420473 -0.00490999 -0.00563305 -0.00633628 -0.00697484 -0.00657633 -0.00691722 -0.0070272 -0.00690245 -0.00656067 -0.00604317 -0.00541197 -0.00474273 -0.00411446 -0.00359794 -0.00324493 -0.00307392 -0.00312335 -0.00300176 -0.00300425 -0.00312248 -0.00331962 -0.00355837 -0.00380889 -0.00405003 -0.00426823 -0.00445582 -0.00460928 -0.0047279 -0.00481287 -0.0048667 0.000998641 0.000787644 0.000603104 0.000444155 0.00030706 0.000185628 7.17614e-05 -4.39622e-05 -0.000171758 -0.00032216 -0.000505572 -0.000745857 -0.00178159 -0.00209841 -0.00249894 -0.00299539 -0.00359856 -0.00431519 -0.00514495 -0.00607735 -0.00708932 -0.00814422 -0.00919358 -0.0101713 -0.00972533 -0.0103162 -0.0105866 -0.0105205 -0.0101273 -0.00944736 -0.00854966 -0.007526 -0.00647992 -0.00551284 -0.00470896 -0.00413202 -0.00439844 -0.00390063 -0.00366341 -0.00364606 -0.00378284 -0.00401228 -0.00428521 -0.00456594 -0.0048308 -0.00506556 -0.00526284 -0.00541995 -0.00553727 -0.00561721 0.000483715 0.000257396 5.9924e-05 -0.0001104 -0.000258654 -0.000392771 -0.000522885 -0.000660681 -0.000818837 -0.00101059 -0.00124939 -0.0015623 -0.00269132 -0.00311317 -0.0036484 -0.00431493 -0.00512909 -0.00610216 -0.0072361 -0.00851936 -0.00992337 -0.0114014 -0.0128913 -0.0143008 -0.0139025 -0.0148126 -0.0153055 -0.0153474 -0.0149356 -0.014104 -0.0129234 -0.0114967 -0.00994872 -0.008412 -0.0070083 -0.00586643 -0.00633459 -0.00527531 -0.00466018 -0.00440735 -0.0044173 -0.00459812 -0.00487413 -0.00518852 -0.00550214 -0.00579038 -0.00603948 -0.00624326 -0.0064005 -0.00651318 -0.000227845 -0.000466269 -0.000674429 -0.00085506 -0.0010148 -0.00116355 -0.00131374 -0.00147962 -0.00167669 -0.00192138 -0.00223083 -0.00263594 -0.00387197 -0.00442457 -0.00512742 -0.00600544 -0.00708159 -0.00837215 -0.0098811 -0.0115944 -0.0134754 -0.015464 -0.0174801 -0.0194012 -0.0192061 -0.0204902 -0.0212616 -0.0214651 -0.0210823 -0.0201364 -0.0186934 -0.0168594 -0.0147727 -0.012592 -0.0104774 -0.00863942 -0.00915767 -0.00733356 -0.00616468 -0.00553576 -0.0053169 -0.00538256 -0.00562369 -0.00595434 -0.00631262 -0.00665795 -0.00696635 -0.00722571 -0.0074319 -0.00758584 -0.00116085 -0.00140707 -0.00162294 -0.00181242 -0.00198391 -0.00214947 -0.00232405 -0.00252471 -0.00277015 -0.00308044 -0.00347708 -0.00399547 -0.00535499 -0.00606503 -0.00696938 -0.00810099 -0.00948999 -0.0111574 -0.013108 -0.0153226 -0.017753 -0.0203211 -0.0229239 -0.0254069 -0.0256086 -0.0272945 -0.0283809 -0.0287915 -0.0284922 -0.0274931 -0.0258503 -0.023664 -0.0210754 -0.0182589 -0.0154077 -0.0128203 -0.0130487 -0.0102838 -0.00836974 -0.00719062 -0.00660354 -0.00645451 -0.00659778 -0.00691056 -0.00729959 -0.00770073 -0.00807418 -0.00839824 -0.0086637 -0.00886936 -0.00233298 -0.00258164 -0.00280151 -0.00299794 -0.00318123 -0.00336577 -0.00356916 -0.00381149 -0.00411492 -0.00450357 -0.00500378 -0.00565619 -0.00715697 -0.00804964 -0.00918697 -0.0106104 -0.0123569 -0.0144511 -0.0168961 -0.019664 -0.0226905 -0.0258745 -0.0290859 -0.0321384 -0.0329215 -0.0350028 -0.0364111 -0.0370546 -0.0368867 -0.0359068 -0.034159 -0.0317314 -0.028757 -0.0254123 -0.0219121 -0.01863 -0.0180758 -0.014281 -0.011458 -0.00954497 -0.00842131 -0.00792417 -0.00787673 -0.00811538 -0.00850699 -0.00895475 -0.00939545 -0.0097925 -0.0101283 -0.0103978 -0.00375143 -0.0039963 -0.00421577 -0.00441675 -0.00461151 -0.00481681 -0.00505301 -0.00534333 -0.00571351 -0.00619194 -0.00681017 -0.0076145 -0.00927271 -0.0103687 -0.011764 -0.0135081 -0.0156438 -0.0181972 -0.0211662 -0.02451 -0.0281436 -0.031939 -0.0357357 -0.0393201 -0.0408047 -0.0432433 -0.0449487 -0.0458228 -0.0458147 -0.0449189 -0.0431702 -0.0406427 -0.0374535 -0.033768 -0.0298052 -0.0259773 -0.0241561 -0.0193754 -0.0155586 -0.0127563 -0.0109204 -0.00991579 -0.00955448 -0.00963659 -0.00998385 -0.0104575 -0.0109616 -0.0114376 -0.0118546 -0.012201 -0.00540998 -0.00564424 -0.00585842 -0.00606099 -0.00626625 -0.00649331 -0.00676524 -0.00710832 -0.0075519 -0.00812865 -0.00887528 -0.00984387 -0.0116701 -0.0129824 -0.01465 -0.0167295 -0.0192674 -0.0222883 -0.0257813 -0.0296887 -0.0339013 -0.0382618 -0.0425799 -0.046621 -0.0488283 -0.0515639 -0.0535162 -0.0545914 -0.0547447 -0.0539736 -0.0523099 -0.0498168 -0.0465925 -0.042781 -0.038586 -0.0344058 -0.0310641 -0.0254789 -0.0206993 -0.0169241 -0.0142271 -0.0125498 -0.0117289 -0.0115461 -0.0117804 -0.0122441 -0.012799 -0.0133553 -0.0138628 -0.0142995 -0.00728731 -0.00750401 -0.00770766 -0.00790835 -0.00812229 -0.00837084 -0.0086796 -0.00907777 -0.00959806 -0.0102772 -0.0111566 -0.0122937 -0.0142883 -0.0158197 -0.0177603 -0.0201719 -0.0231026 -0.0265724 -0.0305583 -0.034983 -0.0397113 -0.0445576 -0.0493047 -0.0537053 -0.0565612 -0.0595242 -0.0616599 -0.0628886 -0.0631801 -0.0625429 -0.0610129 -0.0586479 -0.0555303 -0.0517774 -0.0475604 -0.0432125 -0.038467 -0.032356 -0.0267674 -0.0220416 -0.0184019 -0.0159129 -0.0144828 -0.0139082 -0.0139399 -0.0143409 -0.0149225 -0.0155542 -0.0161583 -0.0166974 -0.00934695 -0.00953951 -0.00972739 -0.00992225 -0.010142 -0.0104102 -0.0107545 -0.0112067 -0.0118026 -0.0125823 -0.0135915 -0.0148917 -0.017041 -0.0187821 -0.0209808 -0.0237024 -0.0269937 -0.030868 -0.0352883 -0.0401568 -0.0453131 -0.0505467 -0.0556191 -0.0602774 -0.0636484 -0.0667709 -0.0690264 -0.0703553 -0.0707469 -0.0702256 -0.068837 -0.0666403 -0.0637071 -0.06013 -0.0560386 -0.051671 -0.0459663 -0.0396411 -0.0334947 -0.0279589 -0.0233959 -0.0200194 -0.0178555 -0.0167606 -0.016486 -0.0167558 -0.0173275 -0.0180214 -0.0187236 -0.019375 -0.0115393 -0.0117021 -0.0118693 -0.012054 -0.0122758 -0.0125597 -0.0129354 -0.0134369 -0.0141022 -0.0149743 -0.0161019 -0.0175494 -0.0198231 -0.0217521 -0.024179 -0.0271704 -0.0307705 -0.0349843 -0.0397608 -0.0449828 -0.0504684 -0.0559866 -0.0612844 -0.0661089 -0.0698486 -0.0730715 -0.0753932 -0.0767745 -0.0772251 -0.0767862 -0.0755161 -0.0734803 -0.0707471 -0.0673904 -0.0635007 -0.0592202 -0.0531443 -0.0468883 -0.0404832 -0.0343767 -0.0290227 -0.0247768 -0.021812 -0.0200907 -0.0194059 -0.019466 -0.0199801 -0.0207142 -0.0215102 -0.0222802 -0.0138056 -0.0139342 -0.0140766 -0.0142468 -0.0144657 -0.0147597 -0.0151598 -0.0157016 -0.0164249 -0.0173745 -0.0186013 -0.0201705 -0.0225215 -0.0246051 -0.0272169 -0.0304234 -0.0342657 -0.0387405 -0.0437844 -0.0492643 -0.0549813 -0.0606899 -0.0661282 -0.0710461 -0.0750291 -0.0783062 -0.0806555 -0.0820541 -0.0825288 -0.0821357 -0.0809461 -0.0790351 -0.076474 -0.0733274 -0.0696579 -0.0655346 -0.0596182 -0.0536454 -0.0472699 -0.0408841 -0.0349651 -0.0299703 -0.0262192 -0.0238137 -0.0226332 -0.0224053 -0.0228073 -0.0235521 -0.0244314 -0.0253219 -0.016083 -0.016175 -0.0162893 -0.0164409 -0.0166514 -0.016948 -0.0173627 -0.017932 -0.0186968 -0.0197029 -0.0210024 -0.0226595 -0.0250261 -0.0272213 -0.0299645 -0.0333217 -0.0373306 -0.0419819 -0.0472025 -0.0528481 -0.0587083 -0.0645288 -0.0700425 -0.0750031 -0.0791386 -0.082438 -0.0847914 -0.0861867 -0.0866615 -0.0862836 -0.0851357 -0.0833035 -0.0808662 -0.077889 -0.0744216 -0.0704923 -0.0650907 -0.0595287 -0.0534113 -0.0470299 -0.0408198 -0.0352789 -0.0308426 -0.0277607 -0.0260356 -0.0254545 -0.0256901 -0.0264114 -0.0273582 -0.0283666 -0.0183106 -0.0183654 -0.0184498 -0.0185792 -0.0187755 -0.0190659 -0.019483 -0.0200636 -0.020849 -0.0218854 -0.023225 -0.0249297 -0.0272395 -0.0294962 -0.0323108 -0.0357489 -0.0398462 -0.0445897 -0.049901 -0.0556295 -0.0615591 -0.0674306 -0.072975 -0.0779478 -0.0821766 -0.0854795 -0.0878272 -0.089211 -0.0896737 -0.0892901 -0.0881523 -0.0863564 -0.0839924 -0.0811336 -0.0778309 -0.0741021 -0.0693781 -0.0642711 -0.0585536 -0.0524021 -0.0461657 -0.0403215 -0.0353685 -0.031685 -0.0294138 -0.0284388 -0.0284612 -0.0291244 -0.0301198 -0.0312397 -0.0204346 -0.0204539 -0.020508 -0.0206125 -0.0207886 -0.0210634 -0.021469 -0.022042 -0.0228236 -0.0238597 -0.0252023 -0.02691 -0.0290847 -0.0313484 -0.0341715 -0.0376199 -0.0417292 -0.0464857 -0.0518103 -0.0575511 -0.063491 -0.0693697 -0.0749172 -0.0798879 -0.0841713 -0.0874702 -0.0898123 -0.0911861 -0.0916341 -0.0912343 -0.0900853 -0.088293 -0.085959 -0.0831695 -0.0799865 -0.0764388 -0.0724085 -0.0677338 -0.0624686 -0.0566862 -0.0506319 -0.0447162 -0.0394454 -0.0352854 -0.0325134 -0.0311339 -0.0309103 -0.0314841 -0.0325082 -0.033731 -0.0224127 -0.0224 -0.0224252 -0.022503 -0.0226538 -0.0229032 -0.0232822 -0.0238267 -0.0245772 -0.0255795 -0.0268847 -0.0285483 -0.0305084 -0.0327228 -0.0354919 -0.0388828 -0.0429331 -0.047632 -0.0529032 -0.0585985 -0.0645034 -0.0703592 -0.075895 -0.0808613 -0.0851693 -0.0884657 -0.090809 -0.0921806 -0.0926185 -0.0922003 -0.0910287 -0.089218 -0.0868812 -0.0841187 -0.0810086 -0.0776031 -0.0741998 -0.0698883 -0.065053 -0.0596888 -0.0539419 -0.0481339 -0.042732 -0.0382414 -0.0350469 -0.0332802 -0.0327935 -0.0332533 -0.0342878 -0.0356045 -0.0242166 -0.0241772 -0.0241764 -0.0242272 -0.024348 -0.0245624 -0.0248993 -0.0253931 -0.0260835 -0.0270159 -0.0282416 -0.0298129 -0.0314823 -0.0335916 -0.036247 -0.0395182 -0.0434469 -0.0480276 -0.0531907 -0.0587947 -0.064631 -0.0704443 -0.0759629 -0.0809302 -0.0852328 -0.0885348 -0.0908907 -0.0922721 -0.0927092 -0.0922767 -0.0910791 -0.089237 -0.0868736 -0.0841029 -0.08102 -0.0777042 -0.0748316 -0.0707863 -0.0663046 -0.06133 -0.0559285 -0.0503304 -0.0449365 -0.0402481 -0.0367205 -0.0346016 -0.0338482 -0.0341757 -0.0352049 -0.0366083 -0.0258325 -0.0257733 -0.0257509 -0.0257758 -0.0258632 -0.0260333 -0.0263121 -0.026732 -0.0273319 -0.0281572 -0.02926 -0.0306913 -0.0320003 -0.0339513 -0.0364385 -0.0395357 -0.0432903 -0.047704 -0.0527164 -0.0581949 -0.0639391 -0.0696984 -0.0752 -0.0801788 -0.0844407 -0.0877613 -0.0901444 -0.0915503 -0.0919996 -0.0915615 -0.09034 -0.0884603 -0.0860536 -0.0832449 -0.0801444 -0.0768569 -0.074421 -0.0705309 -0.066292 -0.06162 -0.0565235 -0.0511541 -0.045838 -0.0410424 -0.0372567 -0.0348227 -0.0338047 -0.0339863 -0.0349973 -0.036483 -0.0272605 -0.02719 -0.0271517 -0.027153 -0.0272043 -0.0273213 -0.027526 -0.0278482 -0.0283259 -0.0290059 -0.0299425 -0.0311872 -0.0320753 -0.0338187 -0.0360904 -0.0389691 -0.0425086 -0.0467195 -0.051551 -0.0568813 -0.062519 -0.0682188 -0.0737079 -0.0787119 -0.0828898 -0.0862459 -0.0886736 -0.0901213 -0.0905984 -0.0901669 -0.0889282 -0.0870093 -0.084547 -0.0816741 -0.0785117 -0.0751849 -0.0731063 -0.0692542 -0.0651268 -0.0606293 -0.0557345 -0.050535 -0.0452883 -0.0404144 -0.0364087 -0.033681 -0.0323961 -0.0324169 -0.0333981 -0.034965 -0.0285128 -0.0284406 -0.0283939 -0.0283749 -0.0283882 -0.0284432 -0.028557 -0.0287564 -0.0290794 -0.0295751 -0.0303027 -0.0313169 -0.031734 -0.0332266 -0.0352441 -0.0378707 -0.0411673 -0.0451529 -0.0497866 -0.0549571 -0.0604824 -0.0661233 -0.0716072 -0.0766523 -0.0806949 -0.0841062 -0.0865985 -0.0881074 -0.0886308 -0.0882214 -0.0869759 -0.0850201 -0.0824929 -0.0795315 -0.0762626 -0.0728242 -0.0710364 -0.0671015 -0.0629416 -0.0584619 -0.0536177 -0.0484624 -0.0432002 -0.038205 -0.033963 -0.0309306 -0.02936 -0.0291977 -0.0301351 -0.031785 -0.0296112 -0.0295489 -0.0295023 -0.0294673 -0.0294406 -0.0294239 -0.0294283 -0.029478 -0.0296121 -0.0298845 -0.0303618 -0.031105 -0.0310126 -0.0322187 -0.0339533 -0.0363067 -0.0393462 -0.0430979 -0.0475301 -0.0525406 -0.0579565 -0.0635446 -0.0690334 -0.0741365 -0.0779861 -0.0814745 -0.0840532 -0.0856454 -0.0862359 -0.0858673 -0.0846285 -0.0826412 -0.0800426 -0.0769696 -0.0735494 -0.0699232 -0.0683633 -0.0642211 -0.0598744 -0.0552343 -0.0502513 -0.0449588 -0.039526 -0.034292 -0.0297327 -0.0263379 -0.0244344 -0.0240515 -0.0249252 -0.0266608 -0.0305858 -0.0305469 -0.0305107 -0.0304643 -0.0303945 -0.0302939 -0.0301673 -0.0300372 -0.0299462 -0.0299561 -0.0301443 -0.0305813 -0.0299534 -0.0308461 -0.0322805 -0.0343525 -0.0371344 -0.0406578 -0.0448972 -0.0497586 -0.0550767 -0.0606239 -0.0661306 -0.0713091 -0.0749051 -0.0784926 -0.0811809 -0.0828798 -0.0835607 -0.0832536 -0.0820378 -0.080027