# vtk DataFile Version 2.0
Presion
ASCII

DATASET STRUCTURED_GRID
DIMENSIONS   50   50   20

POINTS   50000   double
0.00568455   0.00568455   0.025
0.0174023   0.00568455   0.025
0.0298294   0.00568455   0.025
0.0429888   0.00568455   0.025
0.0569012   0.00568455   0.025
0.0715849   0.00568455   0.025
0.0870549   0.00568455   0.025
0.103323   0.00568455   0.025
0.120395   0.00568455   0.025
0.138275   0.00568455   0.025
0.156961   0.00568455   0.025
0.176443   0.00568455   0.025
0.196707   0.00568455   0.025
0.217734   0.00568455   0.025
0.239496   0.00568455   0.025
0.261959   0.00568455   0.025
0.285082   0.00568455   0.025
0.308818   0.00568455   0.025
0.333113   0.00568455   0.025
0.357906   0.00568455   0.025
0.383132   0.00568455   0.025
0.408719   0.00568455   0.025
0.434592   0.00568455   0.025
0.460672   0.00568455   0.025
0.486877   0.00568455   0.025
0.513123   0.00568455   0.025
0.539328   0.00568455   0.025
0.565408   0.00568455   0.025
0.591281   0.00568455   0.025
0.616868   0.00568455   0.025
0.642094   0.00568455   0.025
0.666887   0.00568455   0.025
0.691182   0.00568455   0.025
0.714918   0.00568455   0.025
0.738041   0.00568455   0.025
0.760504   0.00568455   0.025
0.782266   0.00568455   0.025
0.803293   0.00568455   0.025
0.823557   0.00568455   0.025
0.843039   0.00568455   0.025
0.861725   0.00568455   0.025
0.879605   0.00568455   0.025
0.896677   0.00568455   0.025
0.912945   0.00568455   0.025
0.928415   0.00568455   0.025
0.943099   0.00568455   0.025
0.957011   0.00568455   0.025
0.970171   0.00568455   0.025
0.982598   0.00568455   0.025
0.994315   0.00568455   0.025
0.00568455   0.0174023   0.025
0.0174023   0.0174023   0.025
0.0298294   0.0174023   0.025
0.0429888   0.0174023   0.025
0.0569012   0.0174023   0.025
0.0715849   0.0174023   0.025
0.0870549   0.0174023   0.025
0.103323   0.0174023   0.025
0.120395   0.0174023   0.025
0.138275   0.0174023   0.025
0.156961   0.0174023   0.025
0.176443   0.0174023   0.025
0.196707   0.0174023   0.025
0.217734   0.0174023   0.025
0.239496   0.0174023   0.025
0.261959   0.0174023   0.025
0.285082   0.0174023   0.025
0.308818   0.0174023   0.025
0.333113   0.0174023   0.025
0.357906   0.0174023   0.025
0.383132   0.0174023   0.025
0.408719   0.0174023   0.025
0.434592   0.0174023   0.025
0.460672   0.0174023   0.025
0.486877   0.0174023   0.025
0.513123   0.0174023   0.025
0.539328   0.0174023   0.025
0.565408   0.0174023   0.025
0.591281   0.0174023   0.025
0.616868   0.0174023   0.025
0.642094   0.0174023   0.025
0.666887   0.0174023   0.025
0.691182   0.0174023   0.025
0.714918   0.0174023   0.025
0.738041   0.0174023   0.025
0.760504   0.0174023   0.025
0.782266   0.0174023   0.025
0.803293   0.0174023   0.025
0.823557   0.0174023   0.025
0.843039   0.0174023   0.025
0.861725   0.0174023   0.025
0.879605   0.0174023   0.025
0.896677   0.0174023   0.025
0.912945   0.0174023   0.025
0.928415   0.0174023   0.025
0.943099   0.0174023   0.025
0.957011   0.0174023   0.025
0.970171   0.0174023   0.025
0.982598   0.0174023   0.025
0.994315   0.0174023   0.025
0.00568455   0.0298294   0.025
0.0174023   0.0298294   0.025
0.0298294   0.0298294   0.025
0.0429888   0.0298294   0.025
0.0569012   0.0298294   0.025
0.0715849   0.0298294   0.025
0.0870549   0.0298294   0.025
0.103323   0.0298294   0.025
0.120395   0.0298294   0.025
0.138275   0.0298294   0.025
0.156961   0.0298294   0.025
0.176443   0.0298294   0.025
0.196707   0.0298294   0.025
0.217734   0.0298294   0.025
0.239496   0.0298294   0.025
0.261959   0.0298294   0.025
0.285082   0.0298294   0.025
0.308818   0.0298294   0.025
0.333113   0.0298294   0.025
0.357906   0.0298294   0.025
0.383132   0.0298294   0.025
0.408719   0.0298294   0.025
0.434592   0.0298294   0.025
0.460672   0.0298294   0.025
0.486877   0.0298294   0.025
0.513123   0.0298294   0.025
0.539328   0.0298294   0.025
0.565408   0.0298294   0.025
0.591281   0.0298294   0.025
0.616868   0.0298294   0.025
0.642094   0.0298294   0.025
0.666887   0.0298294   0.025
0.691182   0.0298294   0.025
0.714918   0.0298294   0.025
0.738041   0.0298294   0.025
0.760504   0.0298294   0.025
0.782266   0.0298294   0.025
0.803293   0.0298294   0.025
0.823557   0.0298294   0.025
0.843039   0.0298294   0.025
0.861725   0.0298294   0.025
0.879605   0.0298294   0.025
0.896677   0.0298294   0.025
0.912945   0.0298294   0.025
0.928415   0.0298294   0.025
0.943099   0.0298294   0.025
0.957011   0.0298294   0.025
0.970171   0.0298294   0.025
0.982598   0.0298294   0.025
0.994315   0.0298294   0.025
0.00568455   0.0429888   0.025
0.0174023   0.0429888   0.025
0.0298294   0.0429888   0.025
0.0429888   0.0429888   0.025
0.0569012   0.0429888   0.025
0.0715849   0.0429888   0.025
0.0870549   0.0429888   0.025
0.103323   0.0429888   0.025
0.120395   0.0429888   0.025
0.138275   0.0429888   0.025
0.156961   0.0429888   0.025
0.176443   0.0429888   0.025
0.196707   0.0429888   0.025
0.217734   0.0429888   0.025
0.239496   0.0429888   0.025
0.261959   0.0429888   0.025
0.285082   0.0429888   0.025
0.308818   0.0429888   0.025
0.333113   0.0429888   0.025
0.357906   0.0429888   0.025
0.383132   0.0429888   0.025
0.408719   0.0429888   0.025
0.434592   0.0429888   0.025
0.460672   0.0429888   0.025
0.486877   0.0429888   0.025
0.513123   0.0429888   0.025
0.539328   0.0429888   0.025
0.565408   0.0429888   0.025
0.591281   0.0429888   0.025
0.616868   0.0429888   0.025
0.642094   0.0429888   0.025
0.666887   0.0429888   0.025
0.691182   0.0429888   0.025
0.714918   0.0429888   0.025
0.738041   0.0429888   0.025
0.760504   0.0429888   0.025
0.782266   0.0429888   0.025
0.803293   0.0429888   0.025
0.823557   0.0429888   0.025
0.843039   0.0429888   0.025
0.861725   0.0429888   0.025
0.879605   0.0429888   0.025
0.896677   0.0429888   0.025
0.912945   0.0429888   0.025
0.928415   0.0429888   0.025
0.943099   0.0429888   0.025
0.957011   0.0429888   0.025
0.970171   0.0429888   0.025
0.982598   0.0429888   0.025
0.994315   0.0429888   0.025
0.00568455   0.0569012   0.025
0.0174023   0.0569012   0.025
0.0298294   0.0569012   0.025
0.0429888   0.0569012   0.025
0.0569012   0.0569012   0.025
0.0715849   0.0569012   0.025
0.0870549   0.0569012   0.025
0.103323   0.0569012   0.025
0.120395   0.0569012   0.025
0.138275   0.0569012   0.025
0.156961   0.0569012   0.025
0.176443   0.0569012   0.025
0.196707   0.0569012   0.025
0.217734   0.0569012   0.025
0.239496   0.0569012   0.025
0.261959   0.0569012   0.025
0.285082   0.0569012   0.025
0.308818   0.0569012   0.025
0.333113   0.0569012   0.025
0.357906   0.0569012   0.025
0.383132   0.0569012   0.025
0.408719   0.0569012   0.025
0.434592   0.0569012   0.025
0.460672   0.0569012   0.025
0.486877   0.0569012   0.025
0.513123   0.0569012   0.025
0.539328   0.0569012   0.025
0.565408   0.0569012   0.025
0.591281   0.0569012   0.025
0.616868   0.0569012   0.025
0.642094   0.0569012   0.025
0.666887   0.0569012   0.025
0.691182   0.0569012   0.025
0.714918   0.0569012   0.025
0.738041   0.0569012   0.025
0.760504   0.0569012   0.025
0.782266   0.0569012   0.025
0.803293   0.0569012   0.025
0.823557   0.0569012   0.025
0.843039   0.0569012   0.025
0.861725   0.0569012   0.025
0.879605   0.0569012   0.025
0.896677   0.0569012   0.025
0.912945   0.0569012   0.025
0.928415   0.0569012   0.025
0.943099   0.0569012   0.025
0.957011   0.0569012   0.025
0.970171   0.0569012   0.025
0.982598   0.0569012   0.025
0.994315   0.0569012   0.025
0.00568455   0.0715849   0.025
0.0174023   0.0715849   0.025
0.0298294   0.0715849   0.025
0.0429888   0.0715849   0.025
0.0569012   0.0715849   0.025
0.0715849   0.0715849   0.025
0.0870549   0.0715849   0.025
0.103323   0.0715849   0.025
0.120395   0.0715849   0.025
0.138275   0.0715849   0.025
0.156961   0.0715849   0.025
0.176443   0.0715849   0.025
0.196707   0.0715849   0.025
0.217734   0.0715849   0.025
0.239496   0.0715849   0.025
0.261959   0.0715849   0.025
0.285082   0.0715849   0.025
0.308818   0.0715849   0.025
0.333113   0.0715849   0.025
0.357906   0.0715849   0.025
0.383132   0.0715849   0.025
0.408719   0.0715849   0.025
0.434592   0.0715849   0.025
0.460672   0.0715849   0.025
0.486877   0.0715849   0.025
0.513123   0.0715849   0.025
0.539328   0.0715849   0.025
0.565408   0.0715849   0.025
0.591281   0.0715849   0.025
0.616868   0.0715849   0.025
0.642094   0.0715849   0.025
0.666887   0.0715849   0.025
0.691182   0.0715849   0.025
0.714918   0.0715849   0.025
0.738041   0.0715849   0.025
0.760504   0.0715849   0.025
0.782266   0.0715849   0.025
0.803293   0.0715849   0.025
0.823557   0.0715849   0.025
0.843039   0.0715849   0.025
0.861725   0.0715849   0.025
0.879605   0.0715849   0.025
0.896677   0.0715849   0.025
0.912945   0.0715849   0.025
0.928415   0.0715849   0.025
0.943099   0.0715849   0.025
0.957011   0.0715849   0.025
0.970171   0.0715849   0.025
0.982598   0.0715849   0.025
0.994315   0.0715849   0.025
0.00568455   0.0870549   0.025
0.0174023   0.0870549   0.025
0.0298294   0.0870549   0.025
0.0429888   0.0870549   0.025
0.0569012   0.0870549   0.025
0.0715849   0.0870549   0.025
0.0870549   0.0870549   0.025
0.103323   0.0870549   0.025
0.120395   0.0870549   0.025
0.138275   0.0870549   0.025
0.156961   0.0870549   0.025
0.176443   0.0870549   0.025
0.196707   0.0870549   0.025
0.217734   0.0870549   0.025
0.239496   0.0870549   0.025
0.261959   0.0870549   0.025
0.285082   0.0870549   0.025
0.308818   0.0870549   0.025
0.333113   0.0870549   0.025
0.357906   0.0870549   0.025
0.383132   0.0870549   0.025
0.408719   0.0870549   0.025
0.434592   0.0870549   0.025
0.460672   0.0870549   0.025
0.486877   0.0870549   0.025
0.513123   0.0870549   0.025
0.539328   0.0870549   0.025
0.565408   0.0870549   0.025
0.591281   0.0870549   0.025
0.616868   0.0870549   0.025
0.642094   0.0870549   0.025
0.666887   0.0870549   0.025
0.691182   0.0870549   0.025
0.714918   0.0870549   0.025
0.738041   0.0870549   0.025
0.760504   0.0870549   0.025
0.782266   0.0870549   0.025
[...]
POINT_DATA   50000
SCALARS Presion double
LOOKUP_TABLE   Presion

0 0 0 0 0 0 0 0 0 0 0 0 0 0 0 0 0 0 0 0 0 0 0 0 0 0 0 0 0 0 0 0 0 0 0 0 0 0 0 0 0 0 0 0 0 0 0 0 0 0 0.0016625 0.00180996 0.00198796 0.00211672 0.00218171 0.00218408 0.00212844 0.0020199 0.00186334 0.00166302 0.00142235 0.00114305 0.000683255 0.000403962 0.000154684 -6.25103e-05 -0.000242498 -0.000376872 -0.000455822 -0.000470537 -0.000415644 -0.000291225 -0.000103792 0.000134033 0.00038501 0.000634953 0.000850119 0.00100354 0.00107371 0.00104678 0.000918083 0.000692818 0.000385738 1.99726e-05 -0.000374846 -0.000763939 -0.0010127 -0.00137489 -0.00171202 -0.00200657 -0.00224808 -0.00243085 -0.00255199 -0.00261004 -0.00260425 -0.00253411 -0.00239969 -0.0022045 -0.00196898 -0.00178579 0.0021823 0.00217118 0.0022212 0.00227212 0.00229418 0.00227512 0.00221121 0.00210275 0.00195194 0.00176201 0.00153732 0.00128189 0.000761083 0.000508443 0.000273093 6.22067e-05 -0.000116811 -0.000254896 -0.000342295 -0.000370449 -0.000334113 -0.00023321 -7.38169e-05 0.000130351 0.000353424 0.000572038 0.000758148 0.000886226 0.000935966 0.000894344 0.000757147 0.000529566 0.000225712 -0.000132909 -0.000520046 -0.000905551 -0.00108244 -0.00144168 -0.00176792 -0.00204974 -0.00227989 -0.00245465 -0.00257272 -0.0026346 -0.00264237 -0.00260031 -0.00251687 -0.00240942 -0.00231413 -0.00230056 0.0025346 0.00248465 0.00247007 0.0024647 0.00244701 0.00240335 0.00232656 0.00221384 0.00206527 0.00188301 0.00167149 0.00143401 0.000843544 0.00061337 0.000390418 0.000183911 2.74927e-06 -0.000143344 -0.000244386 -0.000291622 -0.000279371 -0.000206766 -7.89756e-05 8.90994e-05 0.000288926 0.000482195 0.000646772 0.000758043 0.000795796 0.000746568 0.000605462 0.000376906 7.41354e-05 -0.000282649 -0.000669441 -0.00105758 -0.00115861 -0.00152001 -0.00184093 -0.00211469 -0.00233748 -0.00250792 -0.00262665 -0.00269609 -0.00272063 -0.00270735 -0.00266757 -0.00261905 -0.00258772 -0.00260458 0.00282779 0.00276809 0.00272161 0.00267957 0.00263028 0.00256355 0.00247231 0.00235264 0.00220335 0.00202565 0.00182357 0.00159846 0.000933059 0.000719167 0.000504378 0.000298079 0.000109771 -5.0363e-05 -0.000171912 -0.000245463 -0.000264243 -0.000225834 -0.000133718 -3.26149e-06 0.000175247 0.000349284 0.000500113 0.000603713 0.000638987 0.000590817 0.000452439 0.000226616 -7.47476e-05 -0.000432609 -0.00082425 -0.00122041 -0.00124558 -0.00161318 -0.00193324 -0.00220313 -0.00242236 -0.00259194 -0.00271433 -0.00279343 -0.0028348 -0.00284609 -0.00283751 -0.00282195 -0.00281362 -0.00282365 0.0031114 0.00304338 0.00297703 0.00290999 0.00283649 0.00274993 0.00264462 0.00251665 0.00236421 0.00218777 0.00199065 0.00177171 0.00102901 0.000823597 0.000610103 0.000397171 0.000194193 1.15675e-05 -0.0001397 -0.000249048 -0.000307875 -0.000311311 -0.000260106 -0.00016894 -1.1641e-05 0.000148576 0.000293395 0.000399152 0.000442981 0.000406896 0.000280973 6.5156e-05 -0.000230757 -0.000589072 -0.000987762 -0.00139548 -0.0013483 -0.00172478 -0.00204705 -0.00231642 -0.00253545 -0.00270724 -0.00283563 -0.00292534 -0.00298207 -0.00301259 -0.00302459 -0.00302611 -0.00302417 -0.00302239 0.00340514 0.00332341 0.0032394 0.00315247 0.00305955 0.0029562 0.00283791 0.00270101 0.0025433 0.00236452 0.0021671 0.0019471 0.00112722 0.00092072 0.000698918 0.000469405 0.000241037 2.42661e-05 -0.000169115 -0.00032686 -0.000437728 -0.000493376 -0.000490588 -0.000441999 -0.000305801 -0.000155872 -9.85248e-06 0.000108651 0.000174152 0.000164539 6.52255e-05 -0.000128182 -0.000409234 -0.000762262 -0.00116585 -0.00158558 -0.00147317 -0.00185887 -0.00218445 -0.00245545 -0.00267704 -0.00285379 -0.00299025 -0.00309123 -0.00316191 -0.00320764 -0.00323375 -0.00324503 -0.00324502 -0.00323517 0.00371312 0.00361152 0.00350818 0.00340268 0.0032927 0.0031746 0.00304427 0.00289789 0.00273266 0.00254742 0.00234344 0.00211376 0.00121889 0.000999601 0.000756883 0.000497259 0.000228874 -3.77869e-05 -0.000289861 -0.000512822 -0.000691918 -0.000814236 -0.000871245 -0.000872082 -0.000754333 -0.000614565 -0.000461408 -0.000318895 -0.000215981 -0.000180254 -0.000232762 -0.000384234 -0.000633441 -0.000968091 -0.00136794 -0.00179516 -0.00162914 -0.00202035 -0.00234749 -0.00262069 -0.00284693 -0.00303125 -0.00317803 -0.00329151 -0.00337589 -0.00343515 -0.00347287 -0.00349202 -0.00349476 -0.00348226 0.00402957 0.00390265 0.00377724 0.00365264 0.00352634 0.00339446 0.00325237 0.00309549 0.00291993 0.0027232 0.00250505 0.00225539 0.00128912 0.00104277 0.000763154 0.000455774 0.000128079 -0.000209271 -0.000541955 -0.000852505 -0.00112174 -0.00133103 -0.00146518 -0.0015283 -0.00142108 -0.0012966 -0.00113276 -0.00095473 -0.00079573 -0.000690269 -0.000667967 -0.00074847 -0.000938418 -0.00123114 -0.00160898 -0.00203124 -0.00182945 -0.00221602 -0.0025388 -0.00281258 -0.00304475 -0.00323932 -0.0033993 -0.00352761 -0.00362715 -0.00370064 -0.00375049 -0.00377877 -0.00378719 -0.00377718 0.00434055 0.0041839 0.00403376 0.00388894 0.00374617 0.00360055 0.00344615 0.00327688 0.00308714 0.00287259 0.00263093 0.00234887 0.00131525 0.0010246 0.000688281 0.000310823 -0.000100913 -0.000535815 -0.000977614 -0.00140517 -0.00179391 -0.00211839 -0.00235541 -0.00250235 -0.00239073 -0.00229387 -0.00211979 -0.00189547 -0.00165903 -0.00145331 -0.00131884 -0.00128732 -0.00137679 -0.00158952 -0.00191306 -0.00230563 -0.00209467 -0.00245643 -0.00276294 -0.00303266 -0.0032709 -0.00347841 -0.00365526 -0.00380207 -0.00392001 -0.00401053 -0.00407519 -0.00411559 -0.0041334 -0.0041304 0.00462418 0.00443454 0.00425757 0.00409144 0.00393165 0.00377161 0.00360342 0.00341872 0.00320956 0.00296912 0.00269249 0.00236316 0.00126536 0.000909788 0.000492721 1.76445e-05 -0.000509022 -0.00107535 -0.00166255 -0.00224502 -0.00279184 -0.00326957 -0.00364583 -0.00390928 -0.00377217 -0.00372424 -0.00354625 -0.00326734 -0.0029307 -0.00258854 -0.00229458 -0.00209603 -0.00202668 -0.0021023 -0.00231962 -0.00263977 -0.00245754 -0.00275957 -0.0030293 -0.00328573 -0.0035281 -0.00375075 -0.00394868 -0.00411886 -0.00426001 -0.00437206 -0.00445573 -0.00451231 -0.00454351 -0.00455147 0.00485029 0.00462565 0.00442061 0.00423241 0.00405488 0.00387917 0.00369469 0.0034902 0.0032547 0.00297828 0.00265279 0.0022585 0.00109713 0.000652385 0.000125962 -0.000479885 -0.00115904 -0.00189836 -0.00267588 -0.0034607 -0.00421449 -0.00489465 -0.00545851 -0.00588346 -0.00569913 -0.00573118 -0.00556348 -0.00522663 -0.00476825 -0.0042502 -0.00374093 -0.00330644 -0.00300093 -0.00285934 -0.00289322 -0.00307358 -0.00297043 -0.0031569 -0.00335695 -0.00358358 -0.00382413 -0.00406234 -0.00428523 -0.00448425 -0.00465454 -0.00479389 -0.00490191 -0.00497945 -0.00502826 -0.00505077 0.0049803 0.00472008 0.00448669 0.00427617 0.00408015 0.00388694 0.00368268 0.00345257 0.00318199 0.00285727 0.0024664 0.00198648 0.000757702 0.000195832 -0.000473168 -0.00124859 -0.0021245 -0.0030861 -0.00410753 -0.00515158 -0.00617136 -0.0071138 -0.00792481 -0.00856727 -0.00832453 -0.00847633 -0.00834216 -0.00795187 -0.00735577 -0.00662413 -0.00584029 -0.00509095 -0.00445494 -0.00399243 -0.00373685 -0.00368007 -0.00371486 -0.00370216 -0.00378195 -0.0039505 -0.00417575 -0.00442561 -0.00467533 -0.00490816 -0.00511388 -0.00528706 -0.00542557 -0.00552951 -0.00560048 -0.00564112 0.0049678 0.00467302 0.00441215 0.00417958 0.00396431 0.00375123 0.00352263 0.00325961 0.00294333 0.0025558 0.00208048 0.00149126 0.00018493 -0.000525346 -0.00137431 -0.00236315 -0.00348598 -0.00472578 -0.0060519 -0.00741963 -0.00877201 -0.010044 -0.0111688 -0.012091 -0.0118046 -0.0121209 -0.0120519 -0.0116231 -0.0108844 -0.00991127 -0.00879969 -0.00765658 -0.00658756 -0.00568319 -0.00500648 -0.0045854 -0.00481067 -0.00448157 -0.00436597 -0.00442971 -0.00461324 -0.00486255 -0.00513625 -0.00540561 -0.00565236 -0.00586606 -0.00604174 -0.00617814 -0.00627639 -0.00633919 0.00476021 0.00443374 0.00414743 0.00389369 0.00365838 0.0034225 0.003164 0.0028594 0.00248514 0.00201833 0.00143735 0.000712659 -0.000689173 -0.00158155 -0.00265084 -0.00390038 -0.00532404 -0.00690181 -0.008597 -0.0103558 -0.0121094 -0.013779 -0.0152834 -0.016545 -0.01627 -0.0167938 -0.0168269 -0.0163859 -0.0155161 -0.0142933 -0.0128207 -0.0112216 -0.00962679 -0.00815971 -0.00691963 -0.00598905 -0.00641831 -0.00562092 -0.00520338 -0.00508916 -0.00518468 -0.00540775 -0.00569423 -0.00599823 -0.00628946 -0.00654973 -0.00676947 -0.00694501 -0.00707648 -0.00716639 0.00430191 0.00394857 0.00364015 0.00336669 0.00311056 0.00284849 0.00255371 0.00219779 0.00175202 0.00118819 0.000479008 -0.000408837 -0.00193246 -0.00304138 -0.00437213 -0.00593019 -0.00770856 -0.00968302 -0.0118092 -0.0140221 -0.0162388 -0.0183646 -0.0203024 -0.0219495 -0.0217855 -0.0225497 -0.0227212 -0.0223041 -0.0213342 -0.0198817 -0.0180498 -0.0159699 -0.0137921 -0.0116705 -0.00974413 -0.00816843 -0.00872453 -0.00728223 -0.00642236 -0.00602437 -0.005959 -0.00611077 -0.00638607 -0.00671521 -0.0070504 -0.00736162 -0.00763207 -0.00785401 -0.00802567 -0.00814899 0.00353888 0.00316549 0.00283954 0.00254844 0.00227083 0.00197891 0.00164099 0.00122346 0.000692209 1.3343e-05 -0.000846491 -0.00192493 -0.00360406 -0.00496224 -0.00659309 -0.00850376 -0.0106852 -0.0131073 -0.0157157 -0.0184316 -0.0211558 -0.0237759 -0.0261771 -0.0282316 -0.0283092 -0.029329 -0.0296673 -0.0293143 -0.0282932 -0.0266627 -0.0245178 -0.021988 -0.0192323 -0.0164273 -0.0137508 -0.0114436 -0.0119052 -0.00964347 -0.00817627 -0.00735649 -0.00702684 -0.0070377 -0.00726036 -0.00759397 -0.00796624 -0.00832981 -0.00865668 -0.00893262 -0.00915255 -0.00931713 0.00242461 0.00203986 0.00170219 0.00139622 0.00109673 0.00077141 0.000383586 -0.000105572 -0.00073566 -0.00154639 -0.00257733 -0.00387107 -0.00574394 -0.00737925 -0.00934225 -0.0116406 -0.0142616 -0.0171666 -0.0202888 -0.0235332 -0.0267819 -0.0299035 -0.0327657 -0.0352187 -0.0356672 -0.0369362 -0.0374558 -0.0372037 -0.03619 -0.0344591 -0.0320911 -0.0292038 -0.0259519 -0.022523 -0.0191254 -0.0160846 -0.0160734 -0.0128629 -0.0106245 -0.00922435 -0.00849848 -0.0082714 -0.00837813 -0.0086804 -0.00907365 -0.0094861 -0.00987316 -0.0102105 -0.0104877 -0.0107029 0.000926727 0.000540876 0.000198401 -0.000118934 -0.000440103 -0.000801794 -0.00124544 -0.00181493 -0.0025552 -0.00351165 -0.00472988 -0.00625793 -0.00836227 -0.0102944 -0.0126105 -0.0153173 -0.0183958 -0.0217966 -0.0254374 -0.0292047 -0.0329611 -0.0365564 -0.0398421 -0.0426536 -0.0435628 -0.0450547 -0.0457526 -0.0456269 -0.0446771 -0.0429341 -0.0404609 -0.0373561 -0.0337592 -0.0298535 -0.0258641 -0.0221811 -0.0212357 -0.0170381 -0.0139047 -0.0117689 -0.0104969 -0.00990908 -0.00981218 -0.0100284 -0.010414 -0.0108646 -0.0113122 -0.0117173 -0.012061 -0.0123374 -0.000966636 -0.00134226 -0.00168176 -0.00200614 -0.00234787 -0.00274766 -0.00325132 -0.00390737 -0.00476566 -0.00587685 -0.00729201 -0.00906463 -0.0114311 -0.0136683 -0.0163439 -0.019461 -0.0229923 -0.0268748 -0.0310087 -0.0352608 -0.0394743 -0.0434827 -0.047125 -0.0502308 -0.0516232 -0.0532979 -0.054155 -0.0541641 -0.0533203 -0.0516455 -0.0491869 -0.0460222 -0.0422679 -0.0380897 -0.0337103 -0.0295444 -0.0272792 -0.0221742 -0.0181003 -0.0151085 -0.0131425 -0.0120545 -0.0116434 -0.0116979 -0.0120314 -0.0124994 -0.0130024 -0.0134794 -0.0138984 -0.0142472 -0.003242 -0.00359565 -0.0039238 -0.00425006 -0.00460997 -0.00504775 -0.00561297 -0.00635819 -0.00733749 -0.00860598 -0.0102192 -0.0122356 -0.0148811 -0.0174182 -0.0204424 -0.0239511 -0.0279062 -0.0322296 -0.0368026 -0.041473 -0.0460665 -0.0504039 -0.0543173 -0.0576397 -0.0594697 -0.0612808 -0.0622661 -0.0624012 -0.0616838 -0.0601326 -0.0577846 -0.0546991 -0.0509675 -0.046728 -0.0421807 -0.0377153 -0.0339884 -0.0281658 -0.0232068 -0.0193066 -0.016529 -0.0148024 -0.0139512 -0.0137487 -0.0139685 -0.0144209 -0.0149666 -0.0155155 -0.0160172 -0.0164495 -0.00585829 -0.00617858 -0.00648684 -0.00680896 -0.00718311 -0.00765638 -0.00828138 -0.00911387 -0.0102113 -0.0116321 -0.013435 -0.0156821 -0.0186036 -0.0214215 -0.0247663 -0.0286279 -0.0329564 -0.0376574 -0.0425944 -0.0475975 -0.0524789 -0.0570515 -0.0611458 -0.064606 -0.0667821 -0.0686837 -0.0697608 -0.0699998 -0.0694069 -0.0680032 -0.065822 -0.0629099 -0.059336 -0.0552065 -0.0506835 -0.0460878 -0.0410747 -0.0347962 -0.0291075 -0.0243373 -0.0206912 -0.0182142 -0.0167982 -0.0162306 -0.0162593 -0.0166496 -0.017216 -0.0178314 -0.0184203 -0.018946 -0.00874809 -0.00902479 -0.00930484 -0.00961613 -0.00999893 -0.0105025 -0.0111817 -0.0120946 -0.0133008 -0.0148611 -0.0168358 -0.0192887 -0.0224608 -0.0255268 -0.029149 -0.033309 -0.0379443 -0.0429454 -0.0481598 -0.0534034 -0.0584791 -0.0631963 -0.0673894 -0.0709174 -0.0733353 -0.0752867 -0.07642 -0.0767345 -0.0762472 -0.0749864 -0.0729866 -0.0702885 -0.0669448 -0.0630316 -0.0586664 -0.0540772 -0.0482071 -0.0417543 -0.0355669 -0.0300613 -0.0255744 -0.0222899 -0.0202076 -0.0191677 -0.018918 -0.0191878 -0.0197432 -0.0204131 -0.0210896 -0.0217166 -0.0118225 -0.0120472 -0.0122915 -0.0125848 -0.0129691 -0.013495 -0.0142189 -0.0152003 -0.0165 -0.0181795 -0.0202995 -0.0229233 -0.0262978 -0.0295685 -0.0334137 -0.0378068 -0.0426738 -0.0478922 -0.0532967 -0.0586932 -0.0638791 -0.0686646 -0.0728908 -0.0764322 -0.0790017 -0.0809705 -0.0821299 -0.0824912 -0.0820825 -0.0809405 -0.0791047 -0.0766157 -0.0735168 -0.0698611 -0.0657242 -0.0612429 -0.0550447 -0.048672 -0.0422524 -0.0362243 -0.0310152 -0.0269428 -0.02414 -0.0225405 -0.021926 -0.0220095 -0.0225137 -0.0232192 -0.0239791 -0.0247122 -0.0149789 -0.0151458 -0.0153479 -0.0156161 -0.0159933 -0.0165311 -0.0172868 -0.0183202 -0.0196925 -0.0214648 -0.0236966 -0.0264488 -0.0299586 -0.0333826 -0.0373896 -0.0419457 -0.046968 -0.0523239 -0.0578392 -0.0633137 -0.0685429 -0.0733403 -0.077554 -0.081073 -0.0837311 -0.0856945 -0.086858 -0.087242 -0.0868838 -0.085828 -0.0841209 -0.0818069 -0.0789269 -0.0755202 -0.0716316 -0.0673263 -0.0612742 -0.0551763 -0.0487806 -0.0424843 -0.0367476 -0.0319888 -0.0284772 -0.026269 -0.0252184 -0.0250507 -0.0254582 -0.0261743 -0.0270085 -0.0278489 -0.018111 -0.0182169 -0.0183722 -0.0186085 -0.0189692 -0.0195066 -0.020278 -0.0213431 -0.0227626 -0.0245962 -0.0269016 -0.0297352 -0.0332987 -0.0368201 -0.0409253 -0.0455751 -0.0506806 -0.0561029 -0.0616629 -0.0671576 -0.0723833 -0.0771568 -0.0813331 -0.0848116 -0.0875235 -0.0894681 -0.0906225 -0.0910119 -0.0906798 -0.0896774 -0.0880582 -0.0858727 -0.0831646 -0.0799693 -0.0763145 -0.0722222 -0.0666436 -0.0609419 -0.0547772 -0.0484626 -0.0424333 -0.0371577 -0.0330181 -0.0302044 -0.0286749 -0.0282012 -0.0284668 -0.0291651 -0.0300601 -0.0310053 -0.0211183 -0.0211632 -0.0212688 -0.0214672 -0.0218021 -0.0223253 -0.0230942 -0.0241677 -0.0256055 -0.0274657 -0.0298031 -0.0326692 -0.036196 -0.0397574 -0.0438981 -0.0485765 -0.053701 -0.0591304 -0.0646841 -0.0701592 -0.0753534 -0.0800866 -0.0842178 -0.087653 -0.0904056 -0.0923268 -0.0934665 -0.0938509 -0.0935266 -0.0925498 -0.0909803 -0.0888759 -0.0862872 -0.0832529 -0.0797973 -0.0759258 -0.0709837 -0.065727 -0.059929 -0.0538014 -0.0477117 -0.0421251 -0.0374948 -0.0341325 -0.0321188 -0.0313034 -0.0313878 -0.0320392 -0.0329791 -0.0340234 -0.0239154 -0.0239019 -0.0239571 -0.0241131 -0.0244128 -0.0249078 -0.0256544 -0.026711 -0.0281359 -0.0299853 -0.0323117 -0.0351606 -0.0385569 -0.0421012 -0.046218 -0.0508661 -0.0559549 -0.0613444 -0.0668555 -0.0722868 -0.0774376 -0.0821294 -0.0862219 -0.0896227 -0.0924158 -0.0943165 -0.0954422 -0.0958174 -0.0954888 -0.094516 -0.0929644 -0.0908995 -0.0883804 -0.0854547 -0.0821532 -0.0784847 -0.0742096 -0.0693857 -0.0640138 -0.0582093 -0.0522507 -0.0465562 -0.0416021 -0.0377911 -0.0353258 -0.0341566 -0.0340311 -0.0346093 -0.0355773 -0.036713 -0.0264375 -0.026371 -0.0263773 -0.0264878 -0.0267442 -0.0271969 -0.027901 -0.0289139 -0.0302928 -0.0320924 -0.0343635 -0.0371464 -0.0403184 -0.0437905 -0.0478283 -0.0523942 -0.0574018 -0.0627156 -0.0681598 -0.0735359 -0.078644 -0.0833045 -0.0873745 -0.0907584 -0.0935979 -0.0954868 -0.0966044 -0.0969708 -0.0966314 -0.0956474 -0.0940891 -0.0920292 -0.0895365 -0.0866697 -0.083472 -0.0799686 -0.0763077 -0.0718594 -0.066906 -0.0614847 -0.0557833 -0.0501474 -0.0450337 -0.0408957 -0.0380403 -0.0365282 -0.036177 -0.0366609 -0.0376413 -0.0388604 -0.0286441 -0.0285319 -0.028493 -0.0285569 -0.0287633 -0.0291604 -0.0298017 -0.0307435 -0.032042 -0.0337516 -0.0359223 -0.0385909 -0.0414476 -0.0447948 -0.0487033 -0.0531418 -0.0580312 -0.0632424 -0.0686054 -0.0739242 -0.0789988 -0.0836459 -0.0877164 -0.0911069 -0.0939995 -0.0958903 -0.0970094 -0.0973715 -0.0970192 -0.0960143 -0.0944309 -0.0923485 -0.0898453 -0.0869918 -0.0838458 -0.0804546 -0.0773173 -0.073158 -0.0685638 -0.0635166 -0.0581255 -0.0526556 -0.0475144 -0.0431671 -0.0399965 -0.0381689 -0.0375878 -0.0379619 -0.0389412 -0.0402369 -0.0305188 -0.0303702 -0.0302915 -0.0303096 -0.0304609 -0.0307904 -0.0313491 -0.0321919 -0.0333747 -0.0349528 -0.0369772 -0.0394837 -0.0419388 -0.045111 -0.0488444 -0.0531167 -0.0578579 -0.0629479 -0.0682224 -0.0734884 -0.078544 -0.0832003 -0.0872987 -0.0907236 -0.0936733 -0.0955837 -0.0967173 -0.0970832 -0.0967199 -0.0956889 -0.0940672 -0.0919404 -0.0893951 -0.0865129 -0.0833654 -0.0800238 -0.0773124 -0.0733385 -0.0690088 -0.0642712 -0.0591747 -0.0539096 -0.0488205 -0.0443544 -0.0409377 -0.0388274 -0.0380186 -0.0382718 -0.0392395 -0.0406073 -0.0320672 -0.0318925 -0.0317811 -0.0317561 -0.0318492 -0.0321005 -0.0325575 -0.0332732 -0.0343041 -0.0357077 -0.0375391 -0.0398357 -0.0418087 -0.0447584 -0.0482759 -0.0523492 -0.0569193 -0.0618755 -0.0670602 -0.0722823 -0.0773372 -0.0820278 -0.0861836 -0.0896734 -0.0926792 -0.0946303 -0.095795 -0.096176 -0.0958075 -0.0947496 -0.0930811 -0.0908924 -0.0882775 -0.0853271 -0.0821248 -0.0787625 -0.076389 -0.0724882 -0.0683055 -0.0637721 -0.0588963 -0.0538075 -0.0487873 -0.044247 -0.0406296 -0.0382613 -0.0372264 -0.0373486 -0.0382956 -0.0397342 -0.0333125 -0.0331229 -0.0329874 -0.0329236 -0.0329569 -0.0331206 -0.0334573 -0.0340177 -0.0348595 -0.0360445 -0.0376349 -0.0396744 -0.0410915 -0.0437747 -0.0470404 -0.0508885 -0.0552712 -0.0600875 -0.065186 -0.0703768 -0.0754511 -0.0802023 -0.084446 -0.0880332 -0.0910862 -0.0931022 -0.094318 -0.0947293 -0.0943655 -0.0932842 -0.0915647 -0.0893011 -0.0865925 -0.0835364 -0.0802251 -0.076767 -0.0746576 -0.0707123 -0.0665443 -0.0620803 -0.0573046 -0.0523032 -0.047304 -0.0426774 -0.0388652 -0.0362424 -0.0349733 -0.0349506 -0.0358678 -0.0373785 -0.0342908 -0.0340985 -0.0339486 -0.0338518 -0.0338247 -0.0338923 -0.0340901 -0.0344661 -0.03508 -0.036001 -0.0373021 -0.0390379 -0.039834 -0.042211 -0.0451954 -0.0487991 -0.0529857 -0.0576627 -0.0626836 -0.0678588 -0.0729741 -0.0778123 -0.0821743 -0.0858918 -0.0889736 -0.0910816 -0.0923715 -0.0928323 -0.0924874 -0.0913909 -0.0896213 -0.0872738 -0.0844509 -0.0812537 -0.0777791 -0.0741455 -0.072237 -0.0681258 -0.0638294 -0.0592774 -0.0544442 -0.0493891 -0.0443008 -0.0395143 -0.0354629 -0.0325556 -0.0310251 -0.0308338 -0.0317086 -0.0332949 -0.0350465 -0.0348648 -0.0347113 -0.0345881 -0.0345007 -0.0344628 -0.0345018 -0.0346625 -0.0350083 -0.0356188 -0.0365826 -0.0379703 -0.0380909 -0.0401279 -0.0428092 -0.0461584 -0.0501485 -0.0546939 -0.0596514 -0.0648301 -0.0700094 -0.0749609 -0.0794702 -0.0833505 -0.0864318 -0.0886601 -0.0900502 -0.0905833 -0.090276 -0.0891775 -0.0873635 -0.0849282 -0.0819739 -0.0786024 -0.0749106 -0.0710185 -0.0692509 -0.0648474 -0.0602688 -0.0554522 -0.0503722 -0.0450767 -0.0397319 -0.0346494 -0.0302572 -0.0269918 -0.0251449 -0.0247454 -0.0255585 -0.0272241 -0.0356286 -0.0354724 -0.0353276 -0.035185 -0.0350363 -0.0348815 -0.0347384 -0.0346494 -0.0346843 -0.0349373 -0.0355177 -0.0365172 -0.0359218 -0.0375932 -0.0399592 -0.0430537 -0.0468566 -0.0512864 -0.0562004 -0.061405 -0.0666724 -0.0717631 -0.0764471 -0.080521 -0.0835609 -0.0859382 -0.0874564 -0.0880875 -0.0878402 -0.0867572 -0.0849093 -0.0823867 -0.0792885 -0.0757125 -0.0717506 -0.0675151 -0.0658223 -0.0609939 -0.0559681 -0.0506911 -0.0451455 -0.0393814 -0.033559 -0.0279825 -0.0230863 -0.0193379 -0.0170834 -0.0164141 -0.017135 -0.0188824 -0.0360881 -0.0359754 -0.0358534 -0.035698