# vtk DataFile Version 2.0
Velocidades
ASCII

DATASET STRUCTURED_GRID
DIMENSIONS   50   50   20

POINTS   50000   double
0.00568455   0.00568455   0.025
0.0174023   0.00568455   0.025
0.0298294   0.00568455   0.025
0.0429888   0.00568455   0.025
0.0569012   0.00568455   0.025
0.0715849   0.00568455   0.025
0.0870549   0.00568455   0.025
0.103323   0.00568455   0.025
0.120395   0.00568455   0.025
0.138275   0.00568455   0.025
0.156961   0.00568455   0.025
0.176443   0.00568455   0.025
0.196707   0.00568455   0.025
0.217734   0.00568455   0.025
0.239496   0.00568455   0.025
0.261959   0.00568455   0.025
0.285082   0.00568455   0.025
0.308818   0.00568455   0.025
0.333113   0.00568455   0.025
0.357906   0.00568455   0.025
0.383132   0.00568455   0.025
0.408719   0.00568455   0.025
0.434592   0.00568455   0.025
0.460672   0.00568455   0.025
0.486877   0.00568455   0.025
0.513123   0.00568455   0.025
0.539328   0.00568455   0.025
0.565408   0.00568455   0.025
0.591281   0.00568455   0.025
0.616868   0.00568455   0.025
0.642094   0.00568455   0.025
0.666887   0.00568455   0.025
0.691182   0.00568455   0.025
0.714918   0.00568455   0.025
0.738041   0.00568455   0.025
0.760504   0.00568455   0.025
0.782266   0.00568455   0.025
0.803293   0.00568455   0.025
0.823557   0.00568455   0.025
0.843039   0.00568455   0.025
0.861725   0.00568455   0.025
0.879605   0.00568455   0.025
0.896677   0.00568455   0.025
0.912945   0.00568455   0.025
0.928415   0.00568455   0.025
0.943099   0.00568455   0.025
0.957011   0.00568455   0.025
0.970171   0.00568455   0.025
0.982598   0.00568455   0.025
0.994315   0.00568455   0.025
0.00568455   0.0174023   0.025
0.0174023   0.0174023   0.025
0.0298294   0.0174023   0.025
0.0429888   0.0174023   0.025
0.0569012   0.0174023   0.025
0.0715849   0.0174023   0.025
0.0870549   0.0174023   0.025
0.103323   0.0174023   0.025
0.120395   0.0174023   0.025
0.138275   0.0174023   0.025
0.156961   0.0174023   0.025
0.176443   0.0174023   0.025
0.196707   0.0174023   0.025
0.217734   0.0174023   0.025
0.239496   0.0174023   0.025
0.261959   0.0174023   0.025
0.285082   0.0174023   0.025
0.308818   0.0174023   0.025
0.333113   0.0174023   0.025
0.357906   0.0174023   0.025
0.383132   0.0174023   0.025
0.408719   0.0174023   0.025
0.434592   0.0174023   0.025
0.460672   0.0174023   0.025
0.486877   0.0174023   0.025
0.513123   0.0174023   0.025
0.539328   0.0174023   0.025
0.565408   0.0174023   0.025
0.591281   0.0174023   0.025
0.616868   0.0174023   0.025
0.642094   0.0174023   0.025
0.666887   0.0174023   0.025
0.691182   0.0174023   0.025
0.714918   0.0174023   0.025
0.738041   0.0174023   0.025
0.760504   0.0174023   0.025
0.782266   0.0174023   0.025
0.803293   0.0174023   0.025
0.823557   0.0174023   0.025
0.843039   0.0174023   0.025
0.861725   0.0174023   0.025
0.879605   0.0174023   0.025
0.896677   0.0174023   0.025
0.912945   0.0174023   0.025
0.928415   0.0174023   0.025
0.943099   0.0174023   0.025
0.957011   0.0174023   0.025
0.970171   0.0174023   0.025
0.982598   0.0174023   0.025
0.994315   0.0174023   0.025
0.00568455   0.0298294   0.025
0.0174023   0.0298294   0.025
0.0298294   0.0298294   0.025
0.0429888   0.0298294   0.025
0.0569012   0.0298294   0.025
0.0715849   0.0298294   0.025
0.0870549   0.0298294   0.025
0.103323   0.0298294   0.025
0.120395   0.0298294   0.025
0.138275   0.0298294   0.025
0.156961   0.0298294   0.025
0.176443   0.0298294   0.025
0.196707   0.0298294   0.025
0.217734   0.0298294   0.025
0.239496   0.0298294   0.025
0.261959   0.0298294   0.025
0.285082   0.0298294   0.025
0.308818   0.0298294   0.025
0.333113   0.0298294   0.025
0.357906   0.0298294   0.025
0.383132   0.0298294   0.025
0.408719   0.0298294   0.025
0.434592   0.0298294   0.025
0.460672   0.0298294   0.025
0.486877   0.0298294   0.025
0.513123   0.0298294   0.025
0.539328   0.0298294   0.025
0.565408   0.0298294   0.025
0.591281   0.0298294   0.025
0.616868   0.0298294   0.025
0.642094   0.0298294   0.025
0.666887   0.0298294   0.025
0.691182   0.0298294   0.025
0.714918   0.0298294   0.025
0.738041   0.0298294   0.025
0.760504   0.0298294   0.025
0.782266   0.0298294   0.025
0.803293   0.0298294   0.025
0.823557   0.0298294   0.025
0.843039   0.0298294   0.025
0.861725   0.0298294   0.025
0.879605   0.0298294   0.025
0.896677   0.0298294   0.025
0.912945   0.0298294   0.025
0.928415   0.0298294   0.025
0.943099   0.0298294   0.025
0.957011   0.0298294   0.025
0.970171   0.0298294   0.025
0.982598   0.0298294   0.025
0.994315   0.0298294   0.025
0.00568455   0.0429888   0.025
0.0174023   0.0429888   0.025
0.0298294   0.0429888   0.025
0.0429888   0.0429888   0.025
0.0569012   0.0429888   0.025
0.0715849   0.0429888   0.025
0.0870549   0.0429888   0.025
0.103323   0.0429888   0.025
0.120395   0.0429888   0.025
0.138275   0.0429888   0.025
0.156961   0.0429888   0.025
0.176443   0.0429888   0.025
0.196707   0.0429888   0.025
0.217734   0.0429888   0.025
0.239496   0.0429888   0.025
0.261959   0.0429888   0.025
0.285082   0.0429888   0.025
0.308818   0.0429888   0.025
0.333113   0.0429888   0.025
0.357906   0.0429888   0.025
0.383132   0.0429888   0.025
0.408719   0.0429888   0.025
0.434592   0.0429888   0.025
0.460672   0.0429888   0.025
0.486877   0.0429888   0.025
0.513123   0.0429888   0.025
0.539328   0.0429888   0.025
0.565408   0.0429888   0.025
0.591281   0.0429888   0.025
0.616868   0.0429888   0.025
0.642094   0.0429888   0.025
0.666887   0.0429888   0.025
0.691182   0.0429888   0.025
0.714918   0.0429888   0.025
0.738041   0.0429888   0.025
0.760504   0.0429888   0.025
0.782266   0.0429888   0.025
0.803293   0.0429888   0.025
0.823557   0.0429888   0.025
0.843039   0.0429888   0.025
0.861725   0.0429888   0.025
0.879605   0.0429888   0.025
0.896677   0.0429888   0.025
0.912945   0.0429888   0.025
0.928415   0.0429888   0.025
0.943099   0.0429888   0.025
0.957011   0.0429888   0.025
0.970171   0.0429888   0.025
0.982598   0.0429888   0.025
0.994315   0.0429888   0.025
0.00568455   0.0569012   0.025
0.0174023   0.0569012   0.025
0.0298294   0.0569012   0.025
0.0429888   0.0569012   0.025
0.0569012   0.0569012   0.025
0.0715849   0.0569012   0.025
0.0870549   0.0569012   0.025
0.103323   0.0569012   0.025
0.120395   0.0569012   0.025
0.138275   0.0569012   0.025
0.156961   0.0569012   0.025
0.176443   0.0569012   0.025
0.196707   0.0569012   0.025
0.217734   0.0569012   0.025
0.239496   0.0569012   0.025
0.261959   0.0569012   0.025
0.285082   0.0569012   0.025
0.308818   0.0569012   0.025
0.333113   0.0569012   0.025
0.357906   0.0569012   0.025
0.383132   0.0569012   0.025
0.408719   0.0569012   0.025
0.434592   0.0569012   0.025
0.460672   0.0569012   0.025
0.486877   0.0569012   0.025
0.513123   0.0569012   0.025
0.539328   0.0569012   0.025
0.565408   0.0569012   0.025
0.591281   0.0569012   0.025
0.616868   0.0569012   0.025
0.642094   0.0569012   0.025
0.666887   0.0569012   0.025
0.691182   0.0569012   0.025
0.714918   0.0569012   0.025
0.738041   0.0569012   0.025
0.760504   0.0569012   0.025
0.782266   0.0569012   0.025
0.803293   0.0569012   0.025
0.823557   0.0569012   0.025
0.843039   0.0569012   0.025
0.861725   0.0569012   0.025
0.879605   0.0569012   0.025
0.896677   0.0569012   0.025
0.912945   0.0569012   0.025
0.928415   0.0569012   0.025
0.943099   0.0569012   0.025
0.957011   0.0569012   0.025
0.970171   0.0569012   0.025
0.982598   0.0569012   0.025
0.994315   0.0569012   0.025
0.00568455   0.0715849   0.025
0.0174023   0.0715849   0.025
0.0298294   0.0715849   0.025
0.0429888   0.0715849   0.025
0.0569012   0.0715849   0.025
0.0715849   0.0715849   0.025
0.0870549   0.0715849   0.025
0.103323   0.0715849   0.025
0.120395   0.0715849   0.025
0.138275   0.0715849   0.025
0.156961   0.0715849   0.025
0.176443   0.0715849   0.025
0.196707   0.0715849   0.025
0.217734   0.0715849   0.025
0.239496   0.0715849   0.025
0.261959   0.0715849   0.025
0.285082   0.0715849   0.025
0.308818   0.0715849   0.025
0.333113   0.0715849   0.025
0.357906   0.0715849   0.025
0.383132   0.0715849   0.025
0.408719   0.0715849   0.025
0.434592   0.0715849   0.025
0.460672   0.0715849   0.025
0.486877   0.0715849   0.025
0.513123   0.0715849   0.025
0.539328   0.0715849   0.025
0.565408   0.0715849   0.025
0.591281   0.0715849   0.025
0.616868   0.0715849   0.025
0.642094   0.0715849   0.025
0.666887   0.0715849   0.025
0.691182   0.0715849   0.025
0.714918   0.0715849   0.025
0.738041   0.0715849   0.025
0.760504   0.0715849   0.025
0.782266   0.0715849   0.025
0.803293   0.0715849   0.025
0.823557   0.0715849   0.025
0.843039   0.0715849   0.025
0.861725   0.0715849   0.025
0.879605   0.0715849   0.025
0.896677   0.0715849   0.025
0.912945   0.0715849   0.025
0.928415   0.0715849   0.025
0.943099   0.0715849   0.025
0.957011   0.0715849   0.025
0.970171   0.0715849   0.025
0.982598   0.0715849   0.025
0.994315   0.0715849   0.025
0.00568455   0.0870549   0.025
0.0174023   0.0870549   0.025
0.0298294   0.0870549   0.025
0.0429888   0.0870549   0.025
0.0569012   0.0870549   0.025
0.0715849   0.0870549   0.025
0.0870549   0.0870549   0.025
0.103323   0.0870549   0.025
0.120395   0.0870549   0.025
0.138275   0.0870549   0.025
0.156961   0.0870549   0.025
0.176443   0.0870549   0.025
0.196707   0.0870549   0.025
0.217734   0.0870549   0.025
0.239496   0.0870549   0.025
0.261959   0.0870549   0.025
0.285082   0.0870549   0.025
0.308818   0.0870549   0.025
0.333113   0.0870549   0.025
0.357906   0.0870549   0.025
0.383132   0.0870549   0.025
0.408719   0.0870549   0.025
0.434592   0.0870549   0.025
0.460672   0.0870549   0.025
0.486877   0.0870549   0.025
0.513123   0.0870549   0.025
0.539328   0.0870549   0.025
0.565408   0.0870549   0.025
0.591281   0.0870549   0.025
0.616868   0.0870549   0.025
0.642094   0.0870549   0.025
0.666887   0.0870549   0.025
0.691182   0.0870549   0.025
0.714918   0.0870549   0.025
0.738041   0.0870549   0.025
0.760504   0.0870549   0.025
0.782266   0.0870549   0.025
[...]
POINT_DATA   50000
VECTORS Velocidades double

-3.12131e-05 -0.000709123 0
-8.58705e-05 -0.00136632 0
-0.000124127 -0.00170655 0
-0.000152135 -0.00186794 0
-0.000184035 -0.00191049 0
-0.000231996 -0.00186721 0
-0.000304119 -0.0017594 0
-0.000405057 -0.00160178 0
-0.000537137 -0.00140393 0
-0.000701694 -0.00117005 0
-0.000900935 -0.000896597 0
-0.0010035 -0.000562377 0
-0.00113495 -8.34775e-05 0
-0.00143943 0.000216655 0
-0.00178702 0.000423204 0
-0.00215826 0.000560791 0
-0.00254685 0.000635481 0
-0.0029473 0.000644464 0
-0.00335173 0.000580584 0
-0.0037483 0.000435984 0
-0.00412064 0.000205539 0
-0.00444826 -0.000110069 0
-0.00470821 -0.000502328 0
-0.00488979 -0.000955087 0
-0.0049543 -0.00145164 0
-0.00486706 -0.00192075 0
-0.00463293 -0.00232081 0
-0.00425711 -0.0026069 0
-0.00375689 -0.00274048 0
-0.00316217 -0.00269524 0
-0.00251276 -0.00246185 0
-0.00185341 -0.00205051 0
-0.00122758 -0.0014907 0
-0.000671177 -0.000828669 0
-0.000206961 -0.000124213 0
5.16839e-05 0.000548533 0
0.000212537 0.00108297 0
0.000395951 0.00170764 0
0.000504176 0.00231164 0
0.000538706 0.00284793 0
0.000512844 0.00329263 0
0.000441357 0.00363336 0
0.000338556 0.00386352 0
0.000218145 0.00397898 0
9.37095e-05 0.00397543 0
-2.04269e-05 0.00384541 0
-0.00010807 0.00357339 0
-0.00015061 0.00312475 0
-0.00013107 0.00241645 0
-5.20044e-05 0.00122367 0
-0.000104493 -0.00130747 0
-0.000279392 -0.00266236 0
-0.000387989 -0.00337719 0
-0.000460918 -0.00370502 0
-0.00054956 -0.00377561 0
-0.000691159 -0.00366433 0
-0.000908982 -0.00341994 0
-0.00121617 -0.00307549 0
-0.00161931 -0.00265185 0
-0.00212225 -0.00215747 0
-0.00273161 -0.00158306 0
-0.00300987 -0.00088112 0
-0.00341908 0.000103771 0
-0.00440279 0.000726588 0
-0.00548217 0.00115137 0
-0.00663006 0.00143309 0
-0.00782988 0.00158549 0
-0.00906422 0.0016019 0
-0.0103073 0.00146567 0
-0.0115206 0.00115817 0
-0.0126521 0.000666354 0
-0.0136372 -1.05e-05 0
-0.0144047 -0.000856025 0
-0.0149285 -0.00183687 0
-0.0150896 -0.00292279 0
-0.014786 -0.00396153 0
-0.0140458 -0.00486259 0
-0.0128873 -0.00552913 0
-0.0113643 -0.00587625 0
-0.00956547 -0.00584385 0
-0.0076064 -0.00540765 0
-0.00561665 -0.00458542 0
-0.00372293 -0.0034372 0
-0.00203204 -0.00206042 0
-0.000614878 -0.000583863 0
0.000149875 0.000830034 0
0.000646526 0.00195971 0
0.00124666 0.00327848 0
0.00158947 0.00455744 0
0.00170021 0.00569456 0
0.00162082 0.00663918 0
0.00139654 0.00736534 0
0.0010716 0.00785904 0
0.00068871 0.00811066 0
0.000290257 0.00810928 0
-7.94565e-05 0.00783606 0
-0.000370505 0.00725311 0
-0.000522371 0.0062805 0
-0.000465658 0.00474354 0
-0.000188101 0.00224776 0
-7.83833e-05 -0.00110867 0
-0.000261071 -0.00248168 0
-0.000464321 -0.00324247 0
-0.00066993 -0.00357349 0
-0.000914025 -0.0036074 0
-0.00123977 -0.0034346 0
-0.00168148 -0.00311697 0
-0.00226229 -0.00269635 0
-0.00299656 -0.00219824 0
-0.00389442 -0.00163153 0
-0.00496784 -0.00098278 0
-0.00546829 -0.000197031 0
-0.00616417 0.000856086 0
-0.00780681 0.00153654 0
-0.00960417 0.00199538 0
-0.0115219 0.00229703 0
-0.0135303 0.00245816 0
-0.0155954 0.00246931 0
-0.0176695 0.00230763 0
-0.0196852 0.0019469 0
-0.0215537 0.00136677 0
-0.0231676 0.000561166 0
-0.024409 -0.000455322 0
-0.0252456 -0.00164677 0
-0.0254879 -0.00298215 0
-0.0249735 -0.0042923 0
-0.0237596 -0.00546548 0
-0.0218768 -0.00638626 0
-0.0194104 -0.0069494 0
-0.0164981 -0.00707547 0
-0.0133188 -0.0067255 0
-0.0100727 -0.00591021 0
-0.00695717 -0.00469199 0
-0.00414088 -0.00318071 0
-0.00174064 -0.00152792 0
-0.000429778 7.1188e-05 0
0.000432317 0.00137314 0
0.00148875 0.00288181 0
0.00212749 0.0043508 0
0.00239487 0.0056609 0
0.00235659 0.00675379 0
0.00208446 0.00759974 0
0.00165083 0.00818154 0
0.00112731 0.00848535 0
0.000585556 0.00849384 0
9.86631e-05 0.00817862 0
-0.000258748 0.00748896 0
-0.000417378 0.00633328 0
-0.000343341 0.00455285 0
-0.000123812 0.00190897 0
-5.62855e-05 -0.00095382 0
-0.000232395 -0.00223706 0
-0.000510272 -0.00297655 0
-0.000865245 -0.00327602 0
-0.00131278 -0.00324746 0
-0.0018858 -0.00298567 0
-0.00261812 -0.00256339 0
-0.00353714 -0.00203212 0
-0.00466301 -0.00142321 0
-0.0060113 -0.000746936 0
-0.00759691 1.27706e-05 0
-0.00835067 0.000912217 0
-0.00934811 0.00205686 0
-0.0116568 0.00281874 0
-0.0141746 0.0033338 0
-0.016865 0.00367034 0
-0.0196862 0.00384616 0
-0.022586 0.00384698 0
-0.0254923 0.00364081 0
-0.0283071 0.00319043 0
-0.0309048 0.00246499 0
-0.0331361 0.00145092 0
-0.0348392 0.000160519 0
-0.0359765 -0.00136557 0
-0.0362991 -0.00308167 0
-0.0355966 -0.00480552 0
-0.0339547 -0.00639306 0
-0.0314134 -0.00770165 0
-0.0280823 -0.00859667 0
-0.0241384 -0.00897081 0
-0.019812 -0.00876358 0
-0.0153629 -0.0079747 0
-0.0110496 -0.00666865 0
-0.00709788 -0.0049716 0
-0.0036729 -0.00306498 0
-0.00178435 -0.00118329 0
-0.000521368 0.000399056 0
0.00105949 0.00220159 0
0.00207349 0.0039566 0
0.00258954 0.00552674 0
0.00269471 0.00684311 0
0.00248368 0.00786915 0
0.00205325 0.00858151 0
0.00149991 0.00895936 0
0.000918307 0.00897697 0
0.000398758 0.00859696 0
2.06698e-05 0.00776334 0
-0.000163076 0.00639646 0
-0.000155842 0.00439979 0
-5.47987e-05 0.00170461 0
-4.98681e-05 -0.000824466 0
-0.000238042 -0.00193916 0
-0.000593639 -0.00256672 0
-0.00110635 -0.0027673 0
-0.00178369 -0.00262856 0
-0.00264712 -0.00223989 0
-0.00372337 -0.00167827 0
-0.0050378 -0.0010019 0
-0.00661177 -0.00024718 0
-0.00846303 0.000573676 0
-0.0106065 0.00147673 0
-0.011638 0.00251397 0
-0.0129542 0.0037666 0
-0.0159524 0.00463078 0
-0.0192084 0.00522447 0
-0.0226865 0.00561264 0
-0.0263353 0.00580995 0
-0.0300844 0.0057941 0
-0.0338368 0.00552079 0
-0.0374631 0.00493857 0
-0.0408012 0.00400341 0
-0.043662 0.00269259 0
-0.045843 0.00101636 0
-0.0472875 -0.000976115 0
-0.0477059 -0.00321271 0
-0.046862 -0.00549618 0
-0.0448567 -0.00764483 0
-0.0417337 -0.00948175 0
-0.0376183 -0.0108344 0
-0.0327163 -0.0115592 0
-0.0272993 -0.011567 0
-0.0216771 -0.0108413 0
-0.0161641 -0.00944688 0
-0.0110426 -0.00752736 0
-0.00653098 -0.00529772 0
-0.0040287 -0.00303555 0
-0.00232098 -0.00105375 0
-0.000123391 0.00115061 0
0.0013653 0.00328803 0
0.00223682 0.00520478 0
0.002597 0.00682011 0
0.00255916 0.0080879 0
0.00223948 0.00897606 0
0.00175302 0.0094554 0
0.00120915 0.00949309 0
0.000705205 0.00904889 0
0.000316668 0.00807491 0
8.33354e-05 0.00652249 0
-4.71677e-06 0.00436293 0
-8.57946e-06 0.00162872 0
-5.51867e-05 -0.000688961 0
-0.000279044 -0.00156495 0
-0.000732483 -0.00198848 0
-0.00142059 -0.00200619 0
-0.00235152 -0.00169056 0
-0.0035396 -0.00112303 0
-0.00500343 -0.000379533 0
-0.00676264 0.000479423 0
-0.00883565 0.00141487 0
-0.0112387 0.00241301 0
-0.0139842 0.00348797 0
-0.015315 0.00468388 0
-0.0169687 0.00605825 0
-0.0206907 0.00704311 0
-0.0247156 0.00773681 0
-0.0290097 0.00819394 0
-0.0335141 0.00842005 0
-0.0381413 0.00838045 0
-0.0427698 0.00801487 0
-0.0472398 0.00725448 0
-0.0513541 0.0060397 0
-0.0548859 0.00433761 0
-0.0575952 0.00215717 0
-0.0593738 -0.000440077 0
-0.0599222 -0.00334805 0
-0.0590144 -0.00634166 0
-0.0567351 -0.00920535 0
-0.0531232 -0.0117226 0
-0.048309 -0.0136747 0
-0.0425167 -0.0148726 0
-0.0360492 -0.0151901 0
-0.0292601 -0.0145881 0
-0.0225172 -0.0131264 0
-0.016162 -0.0109647 0
-0.0104735 -0.00835203 0
-0.00730789 -0.00561188 0
-0.00509892 -0.00310365 0
-0.00216694 -0.000385824 0
-8.08596e-05 0.00223215 0
0.00127142 0.00458409 0
0.00201034 0.00657762 0
0.00226283 0.00815513 0
0.00215898 0.00927399 0
0.00182658 0.00989684 0
0.0013841 0.00998707 0
0.000932456 0.00950863 0
0.000546103 0.00843057 0
0.000265574 0.00673817 0
9.61414e-05 0.00445088 0
1.8879e-05 0.00164308 0
-6.82086e-05 -0.000520991 0
-0.000348417 -0.00107584 0
-0.000925505 -0.00120015 0
-0.00181459 -0.000942728 0
-0.00302648 -0.000370919 0
-0.00457158 0.000439511 0
-0.00646146 0.00141608 0
-0.00870873 0.00249972 0
-0.0113263 0.00365192 0
-0.0143262 0.00485872 0
-0.0177168 0.00613165 0
-0.0193669 0.00750551 0
-0.0213784 0.00901501 0
-0.0258662 0.0101383 0
-0.0307019 0.010953 0
-0.0358536 0.0114968 0
-0.0412562 0.0117599 0
-0.0468069 0.0116898 0
-0.0523615 0.0112061 0
-0.0577312 0.0102194 0
-0.062686 0.00865255 0
-0.0669643 0.00646156 0
-0.070291 0.00365481 0
-0.072452 0.000308674 0
-0.0731849 -0.00343442 0
-0.072328 -0.0072945 0
-0.0698948 -0.0110382 0
-0.0659084 -0.0144054 0
-0.0604916 -0.017122 0
-0.0538756 -0.018944 0
-0.0463859 -0.0196977 0
-0.0384147 -0.0193112 0
-0.0303831 -0.0178319 0
-0.0226971 -0.0154297 0
-0.0157065 -0.0123858 0
-0.0118084 -0.00907159 0
-0.00902452 -0.00590186 0
-0.00520993 -0.00255642 0
-0.002375 0.000642776 0
-0.000392568 0.0035237 0
0.000866137 0.00598344 0
0.00153603 0.00795118 0
0.00175645 0.00937232 0
0.00166445 0.0102017 0
0.00138626 0.0104019 0
0.00102874 0.00994481 0
0.000672899 0.00881797 0
0.000371546 0.00703338 0
0.000153304 0.00463725 0
3.36347e-05 0.00171517 0
-8.65164e-05 -0.000299374 0
-0.000439918 -0.000428776 0
-0.00116621 -0.000148682 0
-0.00228502 0.000483724 0
-0.00380824 0.00139967 0
-0.00574309 0.00252596 0
-0.00809501 0.00379413 0
-0.0108694 0.00514919 0
-0.0140727 0.00655612 0
-0.0177112 0.00800281 0
-0.0217887 0.00949895 0
-0.023777 0.0110701 0
-0.0261676 0.0127294 0
-0.0314697 0.0140105 0
-0.0371675 0.0149682 0
-0.043231 0.0156183 0
-0.0495896 0.0159286 0
-0.0561272 0.0158231 0
-0.062679 0.0151971 0
-0.0690301 0.0139373 0
-0.0749209 0.011947 0
-0.0800575 0.00917019 0
-0.0841311 0.00561444 0
-0.0867433 0.00137077 0
-0.087737 -0.00338453 0
-0.0870878 -0.00827457 0
-0.0846574 -0.0130788 0
-0.0804383 -0.0174898 0
-0.0745328 -0.0211684 0
-0.067167 -0.0238036 0
-0.0586796 -0.0251619 0
-0.0494966 -0.0251251 0
-0.0400931 -0.0237157 0
-0.0309466 -0.0211041 0
-0.0224896 -0.0175981 0
-0.0177675 -0.0136173 0
-0.014314 -0.00964134 0
-0.00942992 -0.00555365 0
-0.00565752 -0.00166929 0
-0.00286338 0.00184371 0
-0.000919105 0.00487269 0
0.000312388 0.00733086 0
0.000976628 0.00914906 0
0.00121951 0.0102736 0
0.00117726 0.0106663 0
0.000967931 0.0103074 0
0.000686537 0.00919936 0
0.00040475 0.00737163 0
0.000175354 0.00488328 0
3.96885e-05 0.00182042 0
-0.000108771 -5.78161e-06 0
-0.000549129 0.000419745 0
-0.00144777 0.00122474 0
-0.00282466 0.00234168 0
-0.00469008 0.00369728 0
-0.00704718 0.00521907 0
-0.00989522 0.00684293 0
-0.0132326 0.00852011 0
-0.0170588 0.010222 0
-0.0213747 0.0119409 0
-0.0261793 0.0136863 0
-0.0285236 0.0154758 0
-0.0313153 0.0173027 0
-0.0374846 0.0187646 0
-0.0441036 0.0198911 0
-0.0511439 0.0206703 0
-0.0585302 0.0210419 0
-0.0661352 0.0209008 0
-0.0737763 0.020113 0
-0.0812158 0.0185385 0
-0.0881675 0.0160586 0
-0.0943082 0.0126036 0
-0.099296 0.00817894 0
-0.102445 0.00288673 0
-0.103797 -0.00306956 0
-0.103557 -0.00916151 0
-0.101325 -0.0152276 0
-0.0970488 -0.0209073 0
-0.090795 -0.0257854 0
-0.0827722 -0.0294714 0
-0.0733218 -0.0316561 0
-0.0628967 -0.0321581 0
-0.0520253 -0.030957 0
-0.041263 -0.0282082 0
-0.0311383 -0.0242359 0
-0.0254792 -0.0195052 0
-0.0212376 -0.0145684 0
-0.0150484 -0.00962707 0
-0.0101017 -0.00494953 0
-0.00627203 -0.000686612 0
-0.00344263 0.00303747 0
-0.00147996 0.00611401 0
-0.000233339 0.00845403 0
0.000454153 0.00999178 0
0.000733393 0.0106864 0
0.000739767 0.0105231 0
0.000588222 0.00951449 0
0.000372752 0.0077006 0
0.000169213 0.00514701 0
3.94508e-05 0.00193938 0
-0.000134169 0.0003767 0
-0.000672867 0.00151252 0
-0.00176395 0.00298095 0
-0.00342471 0.00470369 0
-0.00566125 0.00660226 0
-0.00847101 0.00860477 0
-0.0118465 0.0106526 0
-0.0157789 0.0127058 0
-0.0202615 0.0147452 0
-0.0252898 0.0167706 0
-0.0308594 0.0187939 0
-0.0335755 0.0208264 0
-0.0367902 0.0228431 0
-0.0438825 0.024515 0
-0.0514867 0.0258418 0
-0.0595763 0.0267792 0
-0.0680726 0.0272326 0
-0.0768389 0.0270626 0
-0.0856777 0.0261017 0
-0.0943321 0.0241795 0
-0.102493 0.021153 0
-0.109809 0.0169365 0
-0.115906 0.0115293 0
-0.119689 0.00503878 0
-0.121511 -0.00231398 0
-0.121923 -0.00978958 0
-0.120126 -0.0173434 0
-0.116005 -0.0245516 0
-0.109579 -0.0309125 0
-0.101028 -0.0359429 0
-0.0906799 -0.0392406 0
-0.0790046 -0.0405394 0
-0.0665782 -0.0397523 0
-0.0540366 -0.0369975 0
-0.0420162 -0.0325976 0
-0.0352937 -0.0270539 0
-0.0301214 -0.0209959 0
-0.0223316 -0.0151 0
-0.0159134 -0.00951595 0
-0.0107712 -0.00436324 0
-0.00681419 0.000214408 0
-0.00391745 0.00407466 0
-0.00192425 0.00709929 0
-0.000662245 0.00920398 0
4.01897e-05 0.0103404 0
0.000342101 0.0104946 0
0.000383474 0.00968504 0
0.000283226 0.00795861 0
0.000140072 0.00538603 0
3.44513e-05 0.00205556 0
-0.000162116 0.0008641 0
-0.000808448 0.00289093 0
-0.00210864 0.00518004 0
-0.00407508 0.00764252 0
-0.0067075 0.0101954 0
-0.00999602 0.012769 0
-0.0139255 0.0153126 0
-0.0184801 0.0177982 0
-0.023647 0.0202202 0
-0.0294179 0.0225894 0
-0.035786 0.0249229 0
-0.0388874 0.0272281 0
-0.0425455 0.0294634 0
-0.0506156 0.0313824 0
-0.0592696 0.0329494 0
-0.0684835 0.0340821 0
-0.0781759 0.0346467 0
-0.0882029 0.0344643 0
-0.0983547 0.0333296 0
-0.108358 0.0310385 0
-0.117884 0.0274207 0
-0.126556 0.0223711 0
-0.133969 0.0158782 0
-0.138478 0.00804624 0
-0.140893 -0.000895678 0
-0.14223 -0.00994764 0
-0.141134 -0.0192401 0
-0.137416 -0.028271 0
-0.131042 -0.0364436 0
-0.122144 -0.0431705 0
-0.111022 -0.0479394 0
-0.0981441 -0.0503748 0
-0.0841195 -0.0502942 0
-0.069659 -0.0477465 0
-0.0555128 -0.0430251 0
-0.0476039 -0.0366476 0
-0.0413377 -0.0293172 0
-0.0315831 -0.0223879 0
-0.0233256 -0.0157763 0
-0.0165325 -0.00956217 0
-0.0111555 -0.00392805 0
-0.00708241 0.000930104 0
-0.00414781 0.00485013 0
-0.00215795 0.00771944 0
-0.0009134 0.00947564 0
-0.000224778 0.0101014 0
7.81753e-05 0.00961784 0
0.000142611 0.00807761 0
9.17824e-05 0.00555803 0
2.57377e-05 0.0021543 0
-0.000192023 0.00147142 0
-0.000953072 0.00459373 0
-0.00247497 0.00787864 0
-0.00476353 0.0112271 0
-0.00781039 0.0145535 0
-0.011597 0.017793 0
-0.0160999 0.020907 0
-0.0212961 0.0238841 0
-0.0271678 0.0267364 0
-0.0337037 0.0294902 0
-0.0408969 0.0321713 0
-0.0443928 0.0347857 0
-0.0485115 0.0372764 0
-0.0576081 0.0394888 0
-0.0673705 0.0413453 0
-0.0777772 0.0427202 0
-0.0887454 0.0434355 0
-0.100125 0.043268 0
-0.111696 0.0419707 0
-0.123172 0.0393025 0
-0.134203 0.0350621 0
-0.144394 0.0291214 0
-0.15331 0.0214529 0
-0.158621 0.0121507 0
-0.161742 0.00144425 0
-0.164285 -0.00938837 0
-0.164167 -0.0206898 0
-0.161131 -0.0318621 0
-0.155083 -0.0422108 0
-0.146093 -0.0510379 0
-0.134411 -0.0577066 0
-0.120475 -0.0617085 0
-0.104902 -0.0627315 0
-0.088457 -0.0607152 0
-0.0719959 -0.0558816 0
-0.0628108 -0.0487291 0
-0.055278 -0.0400161 0
-0.0431244 -0.0320131 0
-0.032588 -0.0242412 0
-0.0237431 -0.0167508 0
-0.0166018 -0.00980019 0
-0.0110676 -0.00366875 0
-0.00696281 0.00141707 0
-0.00406564 0.0053034 0
-0.00214137 0.00790594 0
-0.000963119 0.00919935 0
-0.000324306 0.00920569 0
-4.47958e-05 0.00798384 0
2.69663e-05 0.00562044 0
1.40246e-05 0.00222217 0
-0.000223183 0.00221195 0
-0.00110332 0.00665495 0
-0.00285443 0.0111263 0
-0.00547448 0.0155178 0
-0.00894583 0.0197435 0
-0.0132404 0.023748 0
-0.0183259 0.0275096 0
-0.0241727 0.0310391 0
-0.0307586 0.0343723 0
-0.0380707 0.0375558 0
-0.0461037 0.0406276 0
-0.049998 0.0435949 0
-0.0545879 0.0463868 0
-0.0647463 0.0489487 0
-0.0756598 0.0511536 0
-0.0873097 0.052827 0
-0.0996114 0.0537416 0
-0.112409 0.0536261 0
-0.125474 0.0521876 0
-0.138505 0.0491443 0
-0.151138 0.0442613 0
-0.162956 0.0373839 0
-0.173504 0.0284661 0
-0.17965 0.0175877 0
-0.183566 0.00497703 0
-0.187561 -0.00785043 0
-0.188683 -0.0214356 0
-0.186619 -0.0350713 0
-0.181216 -0.0479725 0
-0.172472 -0.0593331 0
-0.160561 -0.0683854 0
-0.145857 -0.0744695 0
-0.128939 -0.0771101 0
-0.110585 -0.0760896 0
-0.0917277 -0.0715022 0
-0.0812568 -0.0637703 0
-0.0722984 -0.0536658 0
-0.0572588 -0.0446047 0
-0.0439496 -0.0355228 0
-0.032603 -0.0264899 0
-0.0233074 -0.0178963 0
-0.0159855 -0.0101447 0
-0.0104453 -0.00355175 0
-0.00643191 0.00167075 0
-0.00366848 0.00540671 0
-0.00188326 0.0076178 0
-0.0008263 0.00832557 0
-0.000278171 0.0075963 0
-5.3305e-05 0.00552902 0
-3.26107e-07 0.00224624 0
-0.000254668 0.00309613 0
-0.00125478 0.00910093 0
-0.00323603 0.0149611 0
-0.00618781 0.0205603 0
-0.0100826 0.0258161 0
-0.0148823 0.0306873 0
-0.0205462 0.0351755 0
-0.027038 0.0393205 0
-0.0343322 0.043188 0
-0.0424159 0.0468503 0
-0.0512862 0.0503617 0
-0.0555747 0.0537331 0
-0.0606368 0.0568806 0
-0.0718681 0.0598561 0
-0.0839472 0.0624755 0
-0.0968566 0.06451 0
-0.110509 0.0656783 0
-0.124741 0.0656564 0
-0.139314 0.0641022 0
-0.153913 0.06069 0
-0.168157 0.0551489 0
-0.181614 0.0472978 0
-0.193817 0.0370729 0
-0.200773 0.0245432 0
-0.205517 0.00994303 0
-0.211128 -0.00509633 0
-0.213687 -0.0212177 0
-0.212862 -0.037608 0
-0.208449 -0.0534116 0
-0.200368 -0.0677287 0
-0.188692 -0.0796682 0
-0.173687 -0.0884119 0
-0.155839 -0.0932953 0
-0.135873 -0.0938954 0
-0.114737 -0.0901105 0
-0.103113 -0.0822085 0
-0.0926244 -0.0708983 0
-0.0742142 -0.0608641 0
-0.0576353 -0.0503074 0
-0.0433221 -0.0394187 0
-0.0314534 -0.0287917 0
-0.0219803 -0.0189984 0
-0.0147013 -0.0104782 0
-0.00932882 -0.00352245 0
-0.00553943 0.00170744 0
-0.00301 0.00515306 0
-0.00143968 0.00683317 0
-0.000562055 0.00682234 0
-0.000150186 0.00523489 0
-1.74323e-05 0.00221298 0
-0.000285268 0.00412995 0
-0.00140173 0.0119464 0
-0.00360573 0.0194038 0
-0.00687795 0.0263793 0
-0.011181 0.032798 0
-0.0164674 0.0386388 0
-0.0226878 0.0439335 0
-0.0298006 0.0487582 0
-0.0377774 0.0532156 0
-0.0466061 0.0574091 0
-0.0562874 0.0614139 0
-0.0609554 0.0652463 0
-0.0664764 0.0688106 0
-0.0787557 0.0722679 0
-0.0919717 0.0753698 0
-0.106105 0.0778277 0
-0.121062 0.0793017 0
-0.136669 0.0794108 0
-0.152673 0.0777598 0
-0.168744 0.0739775 0
-0.184485 0.0677573 0
-0.199455 0.0588954 0
-0.213187 0.0473188 0
-0.220849 0.0330983 0
-0.226377 0.0164902 0
-0.233617 -0.000964504 0
-0.237699 -0.0198151 0
-0.238311 -0.0391767 0
-0.235216 -0.0581528 0
-0.228259 -0.0757808 0
-0.217398 -0.0910718 0
-0.202747 -0.103063 0
-0.184634 -0.110891 0
-0.163647 -0.113891 0
-0.140652 -0.111697 0
-0.128215 -0.104329 0
-0.11621 -0.0923169 0
-0.0940606 -0.081471 0
-0.0738082 -0.0692864 0
-0.0561085 -0.0562164 0
-0.0412495 -0.0431268 0
-0.029236 -0.0308079 0
-0.0198776 -0.0198615 0
-0.0128638 -0.0106897 0
-0.00782696 -0.00351985 0
-0.00438851 0.00155759 0
-0.00218957 0.0045535 0
-0.000908303 0.00555024 0
-0.000267823 0.00467945 0
-3.80529e-05 0.00210629 0
-0.000313468 0.00531312 0
-0.0015371 0.0151898 0
-0.00394621 0.0244511 0
-0.00751352 0.0329701 0
-0.0121928 0.0406831 0
-0.0179278 0.0475951 0
-0.0246621 0.0537757 0
-0.0323488 0.0593446 0
-0.0409577 0.0644482 0
-0.0504774 0.0692272 0
-0.0609124 0.0737809 0
-0.0659319 0.0781337 0
-0.0718794 0.0821787 0
-0.0851334 0.0861832 0
-0.0993992 0.0898293 0
-0.11465 0.0927629 0
-0.130782 0.0945806 0
-0.147606 0.09484 0
-0.164849 0.0930902 0
-0.182161 0.0889143 0
-0.199133 0.0819746 0
-0.215319 0.0720547 0
-0.230272 0.0590883 0
-0.23845 0.0431704 0
-0.244618 0.024603 0
-0.253302 0.00457295 0
-0.258828 -0.0171001 0
-0.260948 -0.0395268 0
-0.259422 -0.0618071 0
-0.254036 -0.0829615 0
-0.244626 -0.10195 0
-0.23113 -0.117704 0
-0.213657 -0.129182 0
-0.192564 -0.135464 0
-0.168519 -0.135871 0
-0.155857 -0.130086 0
-0.14255 -0.118315 0
-0.116596 -0.106911 0
-0.0924996 -0.0930377 0
-0.0711255 -0.0775316 0
-0.05291 -0.061572 0
-0.037966 -0.0462159 0
-0.0261579 -0.0322803 0
-0.0171805 -0.0203237 0
-0.0106341 -0.0106738 0
-0.00608662 -0.00347382 0
-0.00311604 0.00126821 0
-0.00133708 0.00363875 0
-0.000413774 0.00378733 0
-6.368e-05 0.00190469 0
-0.000337471 0.0066371 0
-0.00165254 0.0188086 0
-0.00423718 0.0300697 0
-0.00805798 0.0402909 0
-0.0130618 0.0494238 0
-0.0191853 0.0575053 0
-0.0263661 0.0646487 0
-0.0345533 0.0710246 0
-0.0437144 0.0768294 0
-0.0538386 0.0822462 0
-0.0649325 0.0874024 0
-0.0702599 0.0923319 0
-0.0765784 0.0969174 0
-0.0906737 0.101523 0
-0.105831 0.105757 0
-0.122011 0.109196 0
-0.13909 0.111367 0
-0.156856 0.111763 0
-0.175014 0.109875 0
-0.193191 0.105245 0
-0.210967 0.0975134 0
-0.227902 0.0864669 0
-0.243581 0.0720702 0
-0.252011 0.0544714 0
-0.25857 0.0340441 0
-0.268291 0.0113633 0