# vtk DataFile Version 2.0
Presion
ASCII

DATASET STRUCTURED_GRID
DIMENSIONS   50   50   20

POINTS   50000   double
0.00568455   0.00568455   0.025
0.0174023   0.00568455   0.025
0.0298294   0.00568455   0.025
0.0429888   0.00568455   0.025
0.0569012   0.00568455   0.025
0.0715849   0.00568455   0.025
0.0870549   0.00568455   0.025
0.103323   0.00568455   0.025
0.120395   0.00568455   0.025
0.138275   0.00568455   0.025
0.156961   0.00568455   0.025
0.176443   0.00568455   0.025
0.196707   0.00568455   0.025
0.217734   0.00568455   0.025
0.239496   0.00568455   0.025
0.261959   0.00568455   0.025
0.285082   0.00568455   0.025
0.308818   0.00568455   0.025
0.333113   0.00568455   0.025
0.357906   0.00568455   0.025
0.383132   0.00568455   0.025
0.408719   0.00568455   0.025
0.434592   0.00568455   0.025
0.460672   0.00568455   0.025
0.486877   0.00568455   0.025
0.513123   0.00568455   0.025
0.539328   0.00568455   0.025
0.565408   0.00568455   0.025
0.591281   0.00568455   0.025
0.616868   0.00568455   0.025
0.642094   0.00568455   0.025
0.666887   0.00568455   0.025
0.691182   0.00568455   0.025
0.714918   0.00568455   0.025
0.738041   0.00568455   0.025
0.760504   0.00568455   0.025
0.782266   0.00568455   0.025
0.803293   0.00568455   0.025
0.823557   0.00568455   0.025
0.843039   0.00568455   0.025
0.861725   0.00568455   0.025
0.879605   0.00568455   0.025
0.896677   0.00568455   0.025
0.912945   0.00568455   0.025
0.928415   0.00568455   0.025
0.943099   0.00568455   0.025
0.957011   0.00568455   0.025
0.970171   0.00568455   0.025
0.982598   0.00568455   0.025
0.994315   0.00568455   0.025
0.00568455   0.0174023   0.025
0.0174023   0.0174023   0.025
0.0298294   0.0174023   0.025
0.0429888   0.0174023   0.025
0.0569012   0.0174023   0.025
0.0715849   0.0174023   0.025
0.0870549   0.0174023   0.025
0.103323   0.0174023   0.025
0.120395   0.0174023   0.025
0.138275   0.0174023   0.025
0.156961   0.0174023   0.025
0.176443   0.0174023   0.025
0.196707   0.0174023   0.025
0.217734   0.0174023   0.025
0.239496   0.0174023   0.025
0.261959   0.0174023   0.025
0.285082   0.0174023   0.025
0.308818   0.0174023   0.025
0.333113   0.0174023   0.025
0.357906   0.0174023   0.025
0.383132   0.0174023   0.025
0.408719   0.0174023   0.025
0.434592   0.0174023   0.025
0.460672   0.0174023   0.025
0.486877   0.0174023   0.025
0.513123   0.0174023   0.025
0.539328   0.0174023   0.025
0.565408   0.0174023   0.025
0.591281   0.0174023   0.025
0.616868   0.0174023   0.025
0.642094   0.0174023   0.025
0.666887   0.0174023   0.025
0.691182   0.0174023   0.025
0.714918   0.0174023   0.025
0.738041   0.0174023   0.025
0.760504   0.0174023   0.025
0.782266   0.0174023   0.025
0.803293   0.0174023   0.025
0.823557   0.0174023   0.025
0.843039   0.0174023   0.025
0.861725   0.0174023   0.025
0.879605   0.0174023   0.025
0.896677   0.0174023   0.025
0.912945   0.0174023   0.025
0.928415   0.0174023   0.025
0.943099   0.0174023   0.025
0.957011   0.0174023   0.025
0.970171   0.0174023   0.025
0.982598   0.0174023   0.025
0.994315   0.0174023   0.025
0.00568455   0.0298294   0.025
0.0174023   0.0298294   0.025
0.0298294   0.0298294   0.025
0.0429888   0.0298294   0.025
0.0569012   0.0298294   0.025
0.0715849   0.0298294   0.025
0.0870549   0.0298294   0.025
0.103323   0.0298294   0.025
0.120395   0.0298294   0.025
0.138275   0.0298294   0.025
0.156961   0.0298294   0.025
0.176443   0.0298294   0.025
0.196707   0.0298294   0.025
0.217734   0.0298294   0.025
0.239496   0.0298294   0.025
0.261959   0.0298294   0.025
0.285082   0.0298294   0.025
0.308818   0.0298294   0.025
0.333113   0.0298294   0.025
0.357906   0.0298294   0.025
0.383132   0.0298294   0.025
0.408719   0.0298294   0.025
0.434592   0.0298294   0.025
0.460672   0.0298294   0.025
0.486877   0.0298294   0.025
0.513123   0.0298294   0.025
0.539328   0.0298294   0.025
0.565408   0.0298294   0.025
0.591281   0.0298294   0.025
0.616868   0.0298294   0.025
0.642094   0.0298294   0.025
0.666887   0.0298294   0.025
0.691182   0.0298294   0.025
0.714918   0.0298294   0.025
0.738041   0.0298294   0.025
0.760504   0.0298294   0.025
0.782266   0.0298294   0.025
0.803293   0.0298294   0.025
0.823557   0.0298294   0.025
0.843039   0.0298294   0.025
0.861725   0.0298294   0.025
0.879605   0.0298294   0.025
0.896677   0.0298294   0.025
0.912945   0.0298294   0.025
0.928415   0.0298294   0.025
0.943099   0.0298294   0.025
0.957011   0.0298294   0.025
0.970171   0.0298294   0.025
0.982598   0.0298294   0.025
0.994315   0.0298294   0.025
0.00568455   0.0429888   0.025
0.0174023   0.0429888   0.025
0.0298294   0.0429888   0.025
0.0429888   0.0429888   0.025
0.0569012   0.0429888   0.025
0.0715849   0.0429888   0.025
0.0870549   0.0429888   0.025
0.103323   0.0429888   0.025
0.120395   0.0429888   0.025
0.138275   0.0429888   0.025
0.156961   0.0429888   0.025
0.176443   0.0429888   0.025
0.196707   0.0429888   0.025
0.217734   0.0429888   0.025
0.239496   0.0429888   0.025
0.261959   0.0429888   0.025
0.285082   0.0429888   0.025
0.308818   0.0429888   0.025
0.333113   0.0429888   0.025
0.357906   0.0429888   0.025
0.383132   0.0429888   0.025
0.408719   0.0429888   0.025
0.434592   0.0429888   0.025
0.460672   0.0429888   0.025
0.486877   0.0429888   0.025
0.513123   0.0429888   0.025
0.539328   0.0429888   0.025
0.565408   0.0429888   0.025
0.591281   0.0429888   0.025
0.616868   0.0429888   0.025
0.642094   0.0429888   0.025
0.666887   0.0429888   0.025
0.691182   0.0429888   0.025
0.714918   0.0429888   0.025
0.738041   0.0429888   0.025
0.760504   0.0429888   0.025
0.782266   0.0429888   0.025
0.803293   0.0429888   0.025
0.823557   0.0429888   0.025
0.843039   0.0429888   0.025
0.861725   0.0429888   0.025
0.879605   0.0429888   0.025
0.896677   0.0429888   0.025
0.912945   0.0429888   0.025
0.928415   0.0429888   0.025
0.943099   0.0429888   0.025
0.957011   0.0429888   0.025
0.970171   0.0429888   0.025
0.982598   0.0429888   0.025
0.994315   0.0429888   0.025
0.00568455   0.0569012   0.025
0.0174023   0.0569012   0.025
0.0298294   0.0569012   0.025
0.0429888   0.0569012   0.025
0.0569012   0.0569012   0.025
0.0715849   0.0569012   0.025
0.0870549   0.0569012   0.025
0.103323   0.0569012   0.025
0.120395   0.0569012   0.025
0.138275   0.0569012   0.025
0.156961   0.0569012   0.025
0.176443   0.0569012   0.025
0.196707   0.0569012   0.025
0.217734   0.0569012   0.025
0.239496   0.0569012   0.025
0.261959   0.0569012   0.025
0.285082   0.0569012   0.025
0.308818   0.0569012   0.025
0.333113   0.0569012   0.025
0.357906   0.0569012   0.025
0.383132   0.0569012   0.025
0.408719   0.0569012   0.025
0.434592   0.0569012   0.025
0.460672   0.0569012   0.025
0.486877   0.0569012   0.025
0.513123   0.0569012   0.025
0.539328   0.0569012   0.025
0.565408   0.0569012   0.025
0.591281   0.0569012   0.025
0.616868   0.0569012   0.025
0.642094   0.0569012   0.025
0.666887   0.0569012   0.025
0.691182   0.0569012   0.025
0.714918   0.0569012   0.025
0.738041   0.0569012   0.025
0.760504   0.0569012   0.025
0.782266   0.0569012   0.025
0.803293   0.0569012   0.025
0.823557   0.0569012   0.025
0.843039   0.0569012   0.025
0.861725   0.0569012   0.025
0.879605   0.0569012   0.025
0.896677   0.0569012   0.025
0.912945   0.0569012   0.025
0.928415   0.0569012   0.025
0.943099   0.0569012   0.025
0.957011   0.0569012   0.025
0.970171   0.0569012   0.025
0.982598   0.0569012   0.025
0.994315   0.0569012   0.025
0.00568455   0.0715849   0.025
0.0174023   0.0715849   0.025
0.0298294   0.0715849   0.025
0.0429888   0.0715849   0.025
0.0569012   0.0715849   0.025
0.0715849   0.0715849   0.025
0.0870549   0.0715849   0.025
0.103323   0.0715849   0.025
0.120395   0.0715849   0.025
0.138275   0.0715849   0.025
0.156961   0.0715849   0.025
0.176443   0.0715849   0.025
0.196707   0.0715849   0.025
0.217734   0.0715849   0.025
0.239496   0.0715849   0.025
0.261959   0.0715849   0.025
0.285082   0.0715849   0.025
0.308818   0.0715849   0.025
0.333113   0.0715849   0.025
0.357906   0.0715849   0.025
0.383132   0.0715849   0.025
0.408719   0.0715849   0.025
0.434592   0.0715849   0.025
0.460672   0.0715849   0.025
0.486877   0.0715849   0.025
0.513123   0.0715849   0.025
0.539328   0.0715849   0.025
0.565408   0.0715849   0.025
0.591281   0.0715849   0.025
0.616868   0.0715849   0.025
0.642094   0.0715849   0.025
0.666887   0.0715849   0.025
0.691182   0.0715849   0.025
0.714918   0.0715849   0.025
0.738041   0.0715849   0.025
0.760504   0.0715849   0.025
0.782266   0.0715849   0.025
0.803293   0.0715849   0.025
0.823557   0.0715849   0.025
0.843039   0.0715849   0.025
0.861725   0.0715849   0.025
0.879605   0.0715849   0.025
0.896677   0.0715849   0.025
0.912945   0.0715849   0.025
0.928415   0.0715849   0.025
0.943099   0.0715849   0.025
0.957011   0.0715849   0.025
0.970171   0.0715849   0.025
0.982598   0.0715849   0.025
0.994315   0.0715849   0.025
0.00568455   0.0870549   0.025
0.0174023   0.0870549   0.025
0.0298294   0.0870549   0.025
0.0429888   0.0870549   0.025
0.0569012   0.0870549   0.025
0.0715849   0.0870549   0.025
0.0870549   0.0870549   0.025
0.103323   0.0870549   0.025
0.120395   0.0870549   0.025
0.138275   0.0870549   0.025
0.156961   0.0870549   0.025
0.176443   0.0870549   0.025
0.196707   0.0870549   0.025
0.217734   0.0870549   0.025
0.239496   0.0870549   0.025
0.261959   0.0870549   0.025
0.285082   0.0870549   0.025
0.308818   0.0870549   0.025
0.333113   0.0870549   0.025
0.357906   0.0870549   0.025
0.383132   0.0870549   0.025
0.408719   0.0870549   0.025
0.434592   0.0870549   0.025
0.460672   0.0870549   0.025
0.486877   0.0870549   0.025
0.513123   0.0870549   0.025
0.539328   0.0870549   0.025
0.565408   0.0870549   0.025
0.591281   0.0870549   0.025
0.616868   0.0870549   0.025
0.642094   0.0870549   0.025
0.666887   0.0870549   0.025
0.691182   0.0870549   0.025
0.714918   0.0870549   0.025
0.738041   0.0870549   0.025
0.760504   0.0870549   0.025
0.782266   0.0870549   0.025
[...]
POINT_DATA   50000
SCALARS Presion double
LOOKUP_TABLE   Presion

0 0 0 0 0 0 0 0 0 0 0 0 0 0 0 0 0 0 0 0 0 0 0 0 0 0 0 0 0 0 0 0 0 0 0 0 0 0 0 0 0 0 0 0 0 0 0 0 0 0 -0.00114786 -0.00125886 -0.00141629 -0.00156287 -0.00168732 -0.00178869 -0.00186776 -0.0019253 -0.00196201 -0.00197876 -0.00197691 -0.00195904 -0.00201157 -0.00195698 -0.00186751 -0.00174625 -0.00159599 -0.00141919 -0.00121821 -0.000995657 -0.000754588 -0.000498568 -0.000231575 4.23232e-05 0.000312089 0.000578479 0.000829194 0.00105666 0.00125434 0.00141728 0.00154247 0.00162914 0.00167886 0.00169543 0.00168457 0.0016536 0.00169031 0.00162643 0.00154305 0.00144859 0.00134956 0.00125052 0.00115443 0.00106276 0.000975729 0.000892385 0.0008109 0.000729707 0.000652259 0.00060617 -0.00146323 -0.00146189 -0.00152719 -0.00161536 -0.00170413 -0.0017832 -0.00184772 -0.00189529 -0.00192465 -0.00193515 -0.00192631 -0.00189852 -0.00198045 -0.00191808 -0.00182572 -0.00170394 -0.00155439 -0.00137905 -0.00118011 -0.000960173 -0.000722329 -0.00047025 -0.000208081 5.95496e-05 0.000324088 0.000583698 0.000826525 0.00104535 0.00123397 0.00138771 0.00150387 0.00158195 0.0016236 0.00163238 0.00161294 0.00157085 0.00163433 0.00156305 0.00147816 0.00138542 0.00129019 0.00119651 0.0011072 0.00102395 0.000947687 0.000879002 0.000819079 0.000771572 0.000746309 0.000764758 -0.00162326 -0.00160174 -0.00162538 -0.00167475 -0.00173363 -0.001791 -0.00183988 -0.00187595 -0.0018964 -0.00189932 -0.00188289 -0.00184715 -0.00195808 -0.00188849 -0.00179256 -0.00166957 -0.00152027 -0.00134611 -0.00114905 -0.000931581 -0.000696802 -0.000448458 -0.000190902 7.06129e-05 0.000332003 0.000586205 0.000822741 0.00103458 0.00121567 0.00136149 0.0014695 0.00153932 0.00157268 0.00157297 0.00154435 0.00149269 0.00158104 0.0015021 0.00141402 0.00132128 0.0012284 0.00113901 0.00105579 0.000980623 0.000914936 0.000860222 0.000818818 0.000794914 0.000795422 0.000829176 -0.00170535 -0.00169069 -0.00170123 -0.00173022 -0.0017687 -0.00180847 -0.00184303 -0.00186757 -0.00187857 -0.00187332 -0.00184928 -0.00180681 -0.00194518 -0.00186927 -0.00176959 -0.00164495 -0.00149547 -0.00132215 -0.00112669 -0.000911405 -0.000679348 -0.000434315 -0.000180859 7.51988e-05 0.00033537 0.000585733 0.000817756 0.00102441 0.00119963 0.00133888 0.00143963 0.00150155 0.00152641 0.00151762 0.00147937 0.00141869 0.00152898 0.00144219 0.00134954 0.00125517 0.00116311 0.0010767 0.000998457 0.000930279 0.000873713 0.000830353 0.000802235 0.000792061 0.000802885 0.000836704 -0.00174907 -0.00174743 -0.00175806 -0.00177901 -0.00180584 -0.00183327 -0.00185627 -0.00187052 -0.00187249 -0.00185923 -0.00182797 -0.00177971 -0.00194343 -0.00186211 -0.0017588 -0.00163224 -0.00148221 -0.00130936 -0.00111508 -0.000901526 -0.000671636 -0.000429223 -0.000179016 7.26916e-05 0.000333394 0.00058173 0.000811231 0.00101468 0.00118582 0.00131993 0.00141435 0.00146871 0.00148486 0.00146641 0.001418 0.00134817 0.00147706 0.00138189 0.00128334 0.0011857 0.00109284 0.00100785 0.000933051 0.00087015 0.000820456 0.000785118 0.000765259 0.0007619 0.000775545 0.000805429 -0.00177576 -0.00178736 -0.00180345 -0.00182345 -0.00184507 -0.00186501 -0.00187969 -0.00188564 -0.00187974 -0.00185922 -0.00182145 -0.00176825 -0.00195519 -0.00186927 -0.0017626 -0.00163401 -0.00148313 -0.00131032 -0.00111671 -0.000904248 -0.000675732 -0.000434952 -0.00018677 6.21124e-05 0.00032489 0.000573286 0.000802492 0.00100493 0.00117394 0.00130445 0.00139351 0.00144065 0.00144782 0.00141904 0.00135966 0.00127995 0.00142427 0.00131972 0.00121376 0.00111114 0.00101569 0.000930343 0.000857139 0.000797436 0.000752081 0.000721558 0.000706041 0.000705305 0.000718514 0.000743977 -0.00179862 -0.00182229 -0.00184572 -0.00186844 -0.00188903 -0.0019053 -0.00191469 -0.00191456 -0.00190236 -0.00187575 -0.00183242 -0.0017751 -0.00198346 -0.00189367 -0.00178399 -0.00165337 -0.00150136 -0.00132813 -0.00113458 -0.000922389 -0.000694205 -0.000453749 -0.00020598 4.20168e-05 0.000308161 0.000559 0.000790415 0.000994277 0.00116332 0.0012919 0.00137665 0.00141691 0.00141478 0.00137479 0.0013033 0.0012124 0.0013695 0.001254 0.00113886 0.00102935 0.000929391 0.000841726 0.000768077 0.000709363 0.000665888 0.000637476 0.000623541 0.000623082 0.000634645 0.000656295 -0.00182733 -0.00186178 -0.00189292 -0.00192012 -0.00194217 -0.00195745 -0.00196404 -0.00195992 -0.00194313 -0.00191175 -0.00186395 -0.00180334 -0.00203186 -0.00193888 -0.00182656 -0.00169399 -0.00154064 -0.00136653 -0.0011723 -0.000959406 -0.000730268 -0.000488508 -0.000239146 1.03263e-05 0.000280811 0.00053678 0.000773212 0.000981227 0.00115273 0.00128128 0.00136291 0.00139666 0.0013848 0.00133253 0.00124733 0.00114332 0.0013114 0.00118281 0.00105634 0.000937814 0.000831253 0.000739191 0.000662988 0.000603095 0.000559288 0.000530837 0.00051662 0.000515195 0.000524844 0.000543616 -0.00187013 -0.00191418 -0.00195284 -0.0019852 -0.0020101 -0.00202614 -0.00203178 -0.00202546 -0.00200565 -0.00197088 -0.00191971 -0.00185665 -0.00210466 -0.00200917 -0.00189465 -0.00176025 -0.0016054 -0.00142995 -0.00123429 -0.00101959 -0.000788005 -0.000543021 -0.000289683 -3.59471e-05 0.000239446 0.000503521 0.000748098 0.000963336 0.00114006 0.0012708 0.00135072 0.00137847 0.00135644 0.00129055 0.00118961 0.00106993 0.00124822 0.00110378 0.000963452 0.000833563 0.000718172 0.000619566 0.000538707 0.000475585 0.00042951 0.000399319 0.000383536 0.000380477 0.000388322 0.000405162 -0.00193472 -0.00198739 -0.00203313 -0.00207082 -0.00209924 -0.0021171 -0.0021231 -0.00211596 -0.0020945 -0.00205758 -0.00200415 -0.00193946 -0.00220688 -0.00210959 -0.00199336 -0.00185738 -0.00170098 -0.0015238 -0.00132597 -0.00110831 -0.00087269 -0.000622355 -0.000362342 -0.000101146 0.000179214 0.000454584 0.000710725 0.000936628 0.00112178 0.00125734 0.00133741 0.00135997 0.00132744 0.00124649 0.00112732 0.000988757 0.00117769 0.00101404 0.000856956 0.000713165 0.000586634 0.000479316 0.000391742 0.000323463 0.000273385 0.000240021 0.000221664 0.000216501 0.000222681 0.000238342 -0.00202875 -0.00208922 -0.00214154 -0.00218445 -0.00221666 -0.00223695 -0.00224417 -0.00223724 -0.00221522 -0.00217726 -0.00212256 -0.00205709 -0.00234439 -0.00224608 -0.00212876 -0.00199158 -0.00183375 -0.00165465 -0.00145407 -0.00123245 -0.000991242 -0.0007334 -0.000463851 -0.000191677 9.31134e-05 0.000382992 0.000654284 0.000894633 0.00109191 0.0012356 0.00131833 0.00133716 0.00129427 0.00119697 0.0010569 0.000895665 0.00109678 0.000910047 0.000733116 0.000572831 0.000432844 0.000314657 0.000218336 0.000143012 8.72539e-05 4.93298e-05 2.73853e-05 1.95427e-05 2.39537e-05 3.87943e-05 -0.00216003 -0.00222759 -0.00228602 -0.0023339 -0.00236995 -0.00239298 -0.00240195 -0.00239597 -0.00237428 -0.00233624 -0.00228122 -0.00221583 -0.00252397 -0.00242555 -0.00230796 -0.00217024 -0.0020114 -0.00183054 -0.00162702 -0.00140081 -0.00115286 -0.00088566 -0.000603874 -0.000317134 -2.90321e-05 0.000278174 0.000568043 0.000826779 0.0010404 0.00119637 0.00128541 0.00130317 0.00125121 0.00113714 0.000973826 0.000785885 0.00100133 0.000787537 0.000587871 0.000408711 0.000253067 0.000121869 1.47044e-05 -6.9668e-05 -0.00013295 -0.000177045 -0.000203891 -0.000215386 -0.000213357 -0.000199594 -0.00233659 -0.00241066 -0.00247472 -0.0025273 -0.0025671 -0.002593 -0.0026041 -0.00259963 -0.00257901 -0.00254174 -0.00248734 -0.00242298 -0.00275333 -0.00265597 -0.00253925 -0.00240207 -0.00224319 -0.00206135 -0.00185544 -0.00162484 -0.00136986 -0.00109234 -0.000796413 -0.000492027 -0.000202088 0.000124031 0.000435019 0.000715729 0.000950228 0.00112364 0.00122433 0.00124588 0.0011885 0.00105941 0.000872141 0.000654222 0.000885249 0.000641413 0.000417195 0.000217488 4.4283e-05 -0.000102107 -0.00022247 -0.000318295 -0.000391437 -0.000443879 -0.000477578 -0.000494409 -0.000496158 -0.00048458 -0.00256673 -0.00264676 -0.00271603 -0.00277301 -0.00281643 -0.00284527 -0.00285875 -0.00285628 -0.00283741 -0.00280179 -0.00274904 -0.00268683 -0.0030412 -0.0029464 -0.00283219 -0.00269728 -0.00254015 -0.00235913 -0.0021526 -0.00191928 -0.00165868 -0.00137176 -0.00106176 -0.000738368 -0.000447812 -0.000104015 0.000228287 0.000533006 0.000792449 0.000989359 0.00110931 0.00114305 0.00108831 0.000950633 0.000742954 0.000494926 0.000738602 0.000465276 0.000217501 -2.81014e-06 -0.000194909 -0.000358815 -0.000495318 -0.00060583 -0.000692126 -0.000756111 -0.000799662 -0.000824576 -0.000832572 -0.000825376 -0.00285886 -0.00294433 -0.00301838 -0.00307947 -0.00312638 -0.00315822 -0.00317437 -0.00317439 -0.00315802 -0.00312503 -0.00307516 -0.00301655 -0.00339712 -0.00330694 -0.00319762 -0.00306766 -0.00291528 -0.00273844 -0.00253501 -0.00230301 -0.0020411 -0.00174916 -0.00142904 -0.0010893 -0.000798054 -0.000443407 -9.46965e-05 0.000231986 0.000518007 0.000744271 0.000893572 0.000953052 0.000916416 0.000785401 0.000569999 0.000299847 0.000543152 0.000249612 -1.46759e-05 -0.000252401 -0.000463561 -0.000647498 -0.000804067 -0.000933897 -0.00103821 -0.00111852 -0.00117646 -0.00121366 -0.00123174 -0.00123241 -0.00322133 -0.0033117 -0.00339011 -0.00345503 -0.00350533 -0.00354027 -0.00355942 -0.00356255 -0.00354959 -0.00352047 -0.00347505 -0.00342196 -0.00383134 -0.00374858 -0.00364748 -0.00352646 -0.00338355 -0.00321645 -0.00302264 -0.00279963 -0.00254532 -0.00225846 -0.00193924 -0.00159369 -0.00129924 -0.000950688 -0.000600354 -0.000262619 4.48815e-05 0.000303032 0.00049293 0.000597907 0.000605889 0.000511693 0.000318492 5.13287e-05 0.000262723 -2.36671e-05 -0.000285767 -0.000531365 -0.000759095 -0.000965298 -0.001147 -0.00130266 -0.00143203 -0.00153567 -0.00161462 -0.00167019 -0.00170384 -0.00171726 -0.00366216 -0.00375686 -0.00383917 -0.00390763 -0.00396125 -0.00399947 -0.00402208 -0.00402913 -0.00402075 -0.00399712 -0.00395822 -0.00391321 -0.00435436 -0.00428274 -0.00419449 -0.00408808 -0.00396159 -0.00381273 -0.00363897 -0.00343774 -0.00320668 -0.00294387 -0.00264793 -0.00232102 -0.00201828 -0.00170948 -0.00138969 -0.00106878 -0.000759584 -0.000477135 -0.000238733 -6.34935e-05 2.94952e-05 2.42933e-05 -8.83615e-05 -0.000296627 -0.000175243 -0.000394393 -0.000614758 -0.000846328 -0.00108169 -0.00131002 -0.00152217 -0.00171196 -0.00187593 -0.00201259 -0.00212173 -0.00220398 -0.00226054 -0.00229309 -0.00418865 -0.00428699 -0.0043727 -0.00444441 -0.00450132 -0.00454309 -0.00456981 -0.00458182 -0.00457956 -0.00456347 -0.00453378 -0.00450019 -0.00497636 -0.00492072 -0.00485144 -0.00476734 -0.00466693 -0.00454848 -0.00441018 -0.00425027 -0.00406728 -0.00385993 -0.00362651 -0.00336437 -0.00304915 -0.00283871 -0.00260913 -0.00236152 -0.00209734 -0.00181987 -0.00153793 -0.00126868 -0.00103765 -0.000875109 -0.000809612 -0.000856971 -0.000909008 -0.000949231 -0.00105346 -0.00122558 -0.0014449 -0.00168728 -0.00193215 -0.00216449 -0.00237449 -0.00255649 -0.00270776 -0.00282752 -0.00291638 -0.00297596 -0.0048069 -0.00490806 -0.00499658 -0.00507123 -0.00513142 -0.00517714 -0.00520879 -0.00522708 -0.00523284 -0.00522687 -0.00520976 -0.00519181 -0.00570631 -0.00567266 -0.00563009 -0.00557821 -0.0055166 -0.00544495 -0.00536333 -0.00527239 -0.00517364 -0.005069 -0.00495945 -0.00483808 -0.0045174 -0.00449665 -0.00445509 -0.00437874 -0.00424747 -0.00404082 -0.00374759 -0.00337452 -0.00294974 -0.00251944 -0.00213806 -0.00187 -0.00217583 -0.00185682 -0.00171725 -0.0017432 -0.00189333 -0.00212288 -0.00239249 -0.00267155 -0.00293855 -0.00317979 -0.0033875 -0.00355809 -0.00369085 -0.00378708 -0.00552121 -0.00562425 -0.00571489 -0.00579212 -0.00585564 -0.00590577 -0.00594333 -0.00596948 -0.00598551 -0.00599273 -0.00599221 -0.00599495 -0.00655087 -0.00654628 -0.00653967 -0.00653207 -0.00652502 -0.00652083 -0.00652317 -0.00653748 -0.00657143 -0.00663432 -0.00673487 -0.00686496 -0.00657637 -0.00687236 -0.00716054 -0.00740252 -0.00754263 -0.00752061 -0.00729016 -0.00683558 -0.00618034 -0.00538474 -0.00453329 -0.00376354 -0.00432284 -0.00339517 -0.00281506 -0.00254603 -0.00252432 -0.00267894 -0.00294298 -0.0032607 -0.00359037 -0.00390367 -0.00418332 -0.00442017 -0.00461075 -0.00475541 -0.00633357 -0.00643737 -0.00652935 -0.00660876 -0.00667563 -0.0067307 -0.00677527 -0.00681102 -0.00683985 -0.00686365 -0.00688421 -0.00691335 -0.007513 -0.0075453 -0.00758502 -0.00763544 -0.00770113 -0.00778865 -0.00790744 -0.00807085 -0.0082969 -0.00860771 -0.00902654 -0.00954986 -0.00938606 -0.0101544 -0.010951 -0.0117001 -0.0122937 -0.0126148 -0.0125668 -0.0121001 -0.0112251 -0.0100117 -0.00857498 -0.00714604 -0.00775378 -0.00593715 -0.00465598 -0.00387024 -0.00350656 -0.00346996 -0.00365967 -0.00398385 -0.00436871 -0.00476118 -0.00512701 -0.00544672 -0.00571137 -0.00591905 -0.00724306 -0.00734638 -0.00743884 -0.00751997 -0.00759019 -0.00765071 -0.00770337 -0.0077505 -0.00779466 -0.00783856 -0.00788484 -0.00794631 -0.00859058 -0.00866771 -0.00876449 -0.00888734 -0.00904514 -0.00925046 -0.00952109 -0.00988177 -0.0103655 -0.011013 -0.0118691 -0.012942 -0.013068 -0.0144724 -0.0159674 -0.017424 -0.0186656 -0.0195047 -0.0197862 -0.019421 -0.0184024 -0.0168056 -0.0147744 -0.0126372 -0.012796 -0.00986839 -0.00761031 -0.00603126 -0.00508503 -0.0046728 -0.00466418 -0.0049237 -0.0053323 -0.00579838 -0.00625949 -0.00667802 -0.00703486 -0.00732346 -0.00824543 -0.008347 -0.00843901 -0.00852134 -0.00859482 -0.0086612 -0.00872291 -0.00878297 -0.00884478 -0.00891196 -0.00898824 -0.00908757 -0.00977513 -0.00990429 -0.0100681 -0.0102769 -0.0105453 -0.0108936 -0.0113505 -0.0119553 -0.0127601 -0.0138292 -0.0152331 -0.016998 -0.0176426 -0.0198233 -0.022177 -0.0245048 -0.0265494 -0.0280485 -0.028791 -0.0286548 -0.0276208 -0.0257692 -0.0232684 -0.0205205 -0.0195464 -0.0154527 -0.0120173 -0.00937174 -0.00755836 -0.00652086 -0.0061246 -0.0061955 -0.00655992 -0.00707243 -0.00762724 -0.00815691 -0.00862465 -0.0090152 -0.00933299 -0.00943156 -0.0095222 -0.00960515 -0.00968171 -0.00975412 -0.00982549 -0.00989958 -0.00998069 -0.0100735 -0.0101831 -0.0103246 -0.011051 -0.0112375 -0.0114759 -0.0117816 -0.0121756 -0.0126876 -0.0133591 -0.0142463 -0.0154231 -0.0169791 -0.019011 -0.021564 -0.0229738 -0.0260166 -0.0293176 -0.0325956 -0.0355085 -0.037726 -0.0389963 -0.0391818 -0.0382643 -0.036334 -0.0335766 -0.0304145 -0.0277884 -0.0226958 -0.0180511 -0.0141584 -0.0112133 -0.00926908 -0.00823936 -0.00793941 -0.00814514 -0.00864575 -0.00927507 -0.00992031 -0.0105158 -0.011031 -0.0104947 -0.0105892 -0.0106776 -0.0107606 -0.0108399 -0.0109182 -0.0109993 -0.0110877 -0.0111886 -0.0113081 -0.0114524 -0.0116382 -0.0123951 -0.0126413 -0.0129583 -0.0133667 -0.0138951 -0.0145834 -0.0154864 -0.0166786 -0.0182556 -0.0203307 -0.0230222 -0.0263893 -0.0287583 -0.0326749 -0.0369165 -0.0411153 -0.0448506 -0.0477404 -0.0495136 -0.0500398 -0.0493193 -0.0474587 -0.044652 -0.0412771 -0.0370051 -0.0312579 -0.0255836 -0.0204428 -0.0162136 -0.0131197 -0.0111939 -0.0102969 -0.010182 -0.0105749 -0.0112354 -0.0119876 -0.0127222 -0.0133839 -0.0117168 -0.0118063 -0.0118919 -0.0119744 -0.0120558 -0.0121394 -0.0122295 -0.0123314 -0.0124513 -0.0125963 -0.0127744 -0.0130035 -0.0137781 -0.0140822 -0.0144764 -0.0149869 -0.0156499 -0.0165154 -0.0176517 -0.0191502 -0.0211259 -0.0237116 -0.0270385 -0.0311704 -0.0345746 -0.0393013 -0.0443864 -0.0493817 -0.0538024 -0.0572339 -0.0594072 -0.0602173 -0.0596974 -0.0579772 -0.0552512 -0.051812 -0.0464569 -0.0404626 -0.0341159 -0.0279463 -0.0224761 -0.0181188 -0.0150885 -0.0133657 -0.012738 -0.0128925 -0.0135133 -0.0143463 -0.015222 -0.0160479 -0.0129834 -0.0130678 -0.0131502 -0.0132316 -0.0133145 -0.0134023 -0.0134998 -0.0136129 -0.0137488 -0.0139158 -0.0141235 -0.014391 -0.0151658 -0.0155211 -0.0159849 -0.016589 -0.0173768 -0.0184075 -0.0197615 -0.0215444 -0.0238866 -0.0269338 -0.0308212 -0.0356062 -0.0399751 -0.0453878 -0.0511568 -0.0567685 -0.0616926 -0.0654999 -0.0679362 -0.0689313 -0.0685574 -0.0669717 -0.0643699 -0.060963 -0.0553192 -0.0494361 -0.0428533 -0.0360516 -0.0296027 -0.024066 -0.0198565 -0.0171402 -0.0158146 -0.0155813 -0.0160679 -0.0169368 -0.0179431 -0.0189436 -0.0142783 -0.0143577 -0.014437 -0.0145171 -0.0146005 -0.0146907 -0.0147929 -0.0149133 -0.0150601 -0.0152426 -0.0154722 -0.0157688 -0.016522 -0.0169162 -0.0174355 -0.0181167 -0.0190092 -0.0201803 -0.0217199 -0.0237443 -0.0263943 -0.0298215 -0.0341577 -0.0394455 -0.0445775 -0.0505148 -0.0567804 -0.0628156 -0.0680637 -0.0720923 -0.0746665 -0.075749 -0.0754489 -0.0739526 -0.0714647 -0.0681524 -0.0628746 -0.0573444 -0.0509196 -0.0439447 -0.0369334 -0.0304984 -0.0252145 -0.0214584 -0.0193062 -0.0185457 -0.0187925 -0.019637 -0.0207508 -0.0219273 -0.0155857 -0.0156613 -0.0157379 -0.0158167 -0.0158995 -0.0159898 -0.0160927 -0.0162149 -0.0163649 -0.0165534 -0.0167931 -0.0171052 -0.0178109 -0.0182266 -0.0187813 -0.0195156 -0.0204841 -0.0217601 -0.0234402 -0.0256474 -0.0285278 -0.0322335 -0.0368878 -0.0425143 -0.0481237 -0.0544101 -0.0609857 -0.0672684 -0.0726905 -0.0768233 -0.0794474 -0.0805496 -0.0802674 -0.078814 -0.0764123 -0.0732293 -0.0686705 -0.0636025 -0.0575998 -0.0508429 -0.0437143 -0.0367789 -0.030685 -0.0259882 -0.0229761 -0.021592 -0.0215014 -0.0222541 -0.0234423 -0.0247868 -0.016892 -0.0169657 -0.0170411 -0.0171187 -0.0171997 -0.0172871 -0.0173855 -0.0175017 -0.0176449 -0.0178267 -0.0180613 -0.0183707 -0.0190003 -0.0194156 -0.01998 -0.0207378 -0.0217472 -0.0230855 -0.024853 -0.0271761 -0.0302014 -0.0340775 -0.0389169 -0.0447245 -0.0504968 -0.0569628 -0.0636795 -0.070062 -0.0755444 -0.0797034 -0.0823283 -0.0834183 -0.0831272 -0.081689 -0.0793488 -0.0763024 -0.0725586 -0.067952 -0.0624808 -0.0561845 -0.0492923 -0.0422523 -0.0356911 -0.0302687 -0.0264675 -0.0244272 -0.0239274 -0.0245246 -0.025749 -0.0272473 -0.0181871 -0.0182619 -0.0183382 -0.0184151 -0.018493 -0.0185737 -0.0186611 -0.0187618 -0.0188854 -0.0190446 -0.0192552 -0.0195402 -0.0200636 -0.0204527 -0.0209979 -0.0217461 -0.022758 -0.024113 -0.0259131 -0.0282842 -0.0313705 -0.0353142 -0.0402172 -0.0460678 -0.0517088 -0.0582053 -0.0649202 -0.0712842 -0.0767426 -0.0808786 -0.083483 -0.0845553 -0.0842536 -0.0828229 -0.0805274 -0.0776015 -0.0746298 -0.0704117 -0.0654529 -0.0596974 -0.0532403 -0.0463891 -0.0396808 -0.0337937 -0.0293482 -0.0266824 -0.0257365 -0.0261263 -0.0273494 -0.0289841 -0.0194653 -0.0195457 -0.0196257 -0.019703 -0.0197762 -0.0198455 -0.0199138 -0.0199872 -0.0200759 -0.0201938 -0.0203587 -0.0205946 -0.0209812 -0.0213159 -0.0218111 -0.0225157 -0.0234918 -0.0248195 -0.0266003 -0.0289578 -0.032031 -0.0359544 -0.0408195 -0.046603 -0.0518717 -0.0582792 -0.0648798 -0.0711333 -0.0765053 -0.080586 -0.0831622 -0.0842244 -0.0839237 -0.0825049 -0.0802423 -0.0774033 -0.0751162 -0.071176 -0.0666266 -0.0613608 -0.0553786 -0.0488596 -0.0422225 -0.0360978 -0.0311732 -0.0279514 -0.0265526 -0.0266971 -0.0278853 -0.0296401 -0.0207268 -0.0208185 -0.0209062 -0.0209853 -0.0210519 -0.0211039 -0.021143 -0.0211749 -0.0212106 -0.0212659 -0.0213608 -0.0215211 -0.0217407 -0.0219922 -0.0224069 -0.0230352 -0.0239401 -0.0252015 -0.026919 -0.0292121 -0.0322134 -0.0360489 -0.0408006 -0.0464377 -0.0511635 -0.0573968 -0.0638021 -0.0698789 -0.0751189 -0.0791217 -0.081667 -0.0827295 -0.0824436 -0.0810435 -0.0788015 -0.0760031 -0.074312 -0.0705235 -0.0662347 -0.0613203 -0.0557237 -0.0495296 -0.0430432 -0.036814 -0.0315371 -0.02783 -0.0259842 -0.0258545 -0.0269785 -0.0288406 -0.0219778 -0.0220885 -0.022189 -0.0222716 -0.0223287 -0.0223559 -0.0223531 -0.0223264 -0.0222881 -0.0222568 -0.0222559 -0.0223132 -0.0223374 -0.0224774 -0.022783 -0.0233059 -0.0241098 -0.0252734 -0.0268936 -0.0290854 -0.0319742 -0.035677 -0.0402672 -0.0457098 -0.0497945 -0.055802 -0.0619638 -0.0678229 -0.072902 -0.0768121 -0.0793253 -0.0803961 -0.0801353 -0.0787562 -0.0765176 -0.0737044 -0.0725218 -0.0687542 -0.0645554 -0.0598016 -0.0544108 -0.0484084 -0.042012 -0.0356873 -0.0301023 -0.0259422 -0.023644 -0.0232086 -0.0242397 -0.0262002 -0.0232319 -0.0233716 -0.0234915 -0.0235791 -0.0236227 -0.0236146 -0.0235537 -0.0234473 -0.0233108 -0.0231667 -0.0230431 -0.0229703 -0.0227731 -0.0227754 -0.0229468 -0.0233406 -0.0240203 -0.0250635 -0.0265641 -0.028632 -0.0313857 -0.0349335 -