# vtk DataFile Version 2.0
Presion
ASCII

DATASET STRUCTURED_GRID
DIMENSIONS   50   50   20

POINTS   50000   double
0.00568455   0.00568455   0.025
0.0174023   0.00568455   0.025
0.0298294   0.00568455   0.025
0.0429888   0.00568455   0.025
0.0569012   0.00568455   0.025
0.0715849   0.00568455   0.025
0.0870549   0.00568455   0.025
0.103323   0.00568455   0.025
0.120395   0.00568455   0.025
0.138275   0.00568455   0.025
0.156961   0.00568455   0.025
0.176443   0.00568455   0.025
0.196707   0.00568455   0.025
0.217734   0.00568455   0.025
0.239496   0.00568455   0.025
0.261959   0.00568455   0.025
0.285082   0.00568455   0.025
0.308818   0.00568455   0.025
0.333113   0.00568455   0.025
0.357906   0.00568455   0.025
0.383132   0.00568455   0.025
0.408719   0.00568455   0.025
0.434592   0.00568455   0.025
0.460672   0.00568455   0.025
0.486877   0.00568455   0.025
0.513123   0.00568455   0.025
0.539328   0.00568455   0.025
0.565408   0.00568455   0.025
0.591281   0.00568455   0.025
0.616868   0.00568455   0.025
0.642094   0.00568455   0.025
0.666887   0.00568455   0.025
0.691182   0.00568455   0.025
0.714918   0.00568455   0.025
0.738041   0.00568455   0.025
0.760504   0.00568455   0.025
0.782266   0.00568455   0.025
0.803293   0.00568455   0.025
0.823557   0.00568455   0.025
0.843039   0.00568455   0.025
0.861725   0.00568455   0.025
0.879605   0.00568455   0.025
0.896677   0.00568455   0.025
0.912945   0.00568455   0.025
0.928415   0.00568455   0.025
0.943099   0.00568455   0.025
0.957011   0.00568455   0.025
0.970171   0.00568455   0.025
0.982598   0.00568455   0.025
0.994315   0.00568455   0.025
0.00568455   0.0174023   0.025
0.0174023   0.0174023   0.025
0.0298294   0.0174023   0.025
0.0429888   0.0174023   0.025
0.0569012   0.0174023   0.025
0.0715849   0.0174023   0.025
0.0870549   0.0174023   0.025
0.103323   0.0174023   0.025
0.120395   0.0174023   0.025
0.138275   0.0174023   0.025
0.156961   0.0174023   0.025
0.176443   0.0174023   0.025
0.196707   0.0174023   0.025
0.217734   0.0174023   0.025
0.239496   0.0174023   0.025
0.261959   0.0174023   0.025
0.285082   0.0174023   0.025
0.308818   0.0174023   0.025
0.333113   0.0174023   0.025
0.357906   0.0174023   0.025
0.383132   0.0174023   0.025
0.408719   0.0174023   0.025
0.434592   0.0174023   0.025
0.460672   0.0174023   0.025
0.486877   0.0174023   0.025
0.513123   0.0174023   0.025
0.539328   0.0174023   0.025
0.565408   0.0174023   0.025
0.591281   0.0174023   0.025
0.616868   0.0174023   0.025
0.642094   0.0174023   0.025
0.666887   0.0174023   0.025
0.691182   0.0174023   0.025
0.714918   0.0174023   0.025
0.738041   0.0174023   0.025
0.760504   0.0174023   0.025
0.782266   0.0174023   0.025
0.803293   0.0174023   0.025
0.823557   0.0174023   0.025
0.843039   0.0174023   0.025
0.861725   0.0174023   0.025
0.879605   0.0174023   0.025
0.896677   0.0174023   0.025
0.912945   0.0174023   0.025
0.928415   0.0174023   0.025
0.943099   0.0174023   0.025
0.957011   0.0174023   0.025
0.970171   0.0174023   0.025
0.982598   0.0174023   0.025
0.994315   0.0174023   0.025
0.00568455   0.0298294   0.025
0.0174023   0.0298294   0.025
0.0298294   0.0298294   0.025
0.0429888   0.0298294   0.025
0.0569012   0.0298294   0.025
0.0715849   0.0298294   0.025
0.0870549   0.0298294   0.025
0.103323   0.0298294   0.025
0.120395   0.0298294   0.025
0.138275   0.0298294   0.025
0.156961   0.0298294   0.025
0.176443   0.0298294   0.025
0.196707   0.0298294   0.025
0.217734   0.0298294   0.025
0.239496   0.0298294   0.025
0.261959   0.0298294   0.025
0.285082   0.0298294   0.025
0.308818   0.0298294   0.025
0.333113   0.0298294   0.025
0.357906   0.0298294   0.025
0.383132   0.0298294   0.025
0.408719   0.0298294   0.025
0.434592   0.0298294   0.025
0.460672   0.0298294   0.025
0.486877   0.0298294   0.025
0.513123   0.0298294   0.025
0.539328   0.0298294   0.025
0.565408   0.0298294   0.025
0.591281   0.0298294   0.025
0.616868   0.0298294   0.025
0.642094   0.0298294   0.025
0.666887   0.0298294   0.025
0.691182   0.0298294   0.025
0.714918   0.0298294   0.025
0.738041   0.0298294   0.025
0.760504   0.0298294   0.025
0.782266   0.0298294   0.025
0.803293   0.0298294   0.025
0.823557   0.0298294   0.025
0.843039   0.0298294   0.025
0.861725   0.0298294   0.025
0.879605   0.0298294   0.025
0.896677   0.0298294   0.025
0.912945   0.0298294   0.025
0.928415   0.0298294   0.025
0.943099   0.0298294   0.025
0.957011   0.0298294   0.025
0.970171   0.0298294   0.025
0.982598   0.0298294   0.025
0.994315   0.0298294   0.025
0.00568455   0.0429888   0.025
0.0174023   0.0429888   0.025
0.0298294   0.0429888   0.025
0.0429888   0.0429888   0.025
0.0569012   0.0429888   0.025
0.0715849   0.0429888   0.025
0.0870549   0.0429888   0.025
0.103323   0.0429888   0.025
0.120395   0.0429888   0.025
0.138275   0.0429888   0.025
0.156961   0.0429888   0.025
0.176443   0.0429888   0.025
0.196707   0.0429888   0.025
0.217734   0.0429888   0.025
0.239496   0.0429888   0.025
0.261959   0.0429888   0.025
0.285082   0.0429888   0.025
0.308818   0.0429888   0.025
0.333113   0.0429888   0.025
0.357906   0.0429888   0.025
0.383132   0.0429888   0.025
0.408719   0.0429888   0.025
0.434592   0.0429888   0.025
0.460672   0.0429888   0.025
0.486877   0.0429888   0.025
0.513123   0.0429888   0.025
0.539328   0.0429888   0.025
0.565408   0.0429888   0.025
0.591281   0.0429888   0.025
0.616868   0.0429888   0.025
0.642094   0.0429888   0.025
0.666887   0.0429888   0.025
0.691182   0.0429888   0.025
0.714918   0.0429888   0.025
0.738041   0.0429888   0.025
0.760504   0.0429888   0.025
0.782266   0.0429888   0.025
0.803293   0.0429888   0.025
0.823557   0.0429888   0.025
0.843039   0.0429888   0.025
0.861725   0.0429888   0.025
0.879605   0.0429888   0.025
0.896677   0.0429888   0.025
0.912945   0.0429888   0.025
0.928415   0.0429888   0.025
0.943099   0.0429888   0.025
0.957011   0.0429888   0.025
0.970171   0.0429888   0.025
0.982598   0.0429888   0.025
0.994315   0.0429888   0.025
0.00568455   0.0569012   0.025
0.0174023   0.0569012   0.025
0.0298294   0.0569012   0.025
0.0429888   0.0569012   0.025
0.0569012   0.0569012   0.025
0.0715849   0.0569012   0.025
0.0870549   0.0569012   0.025
0.103323   0.0569012   0.025
0.120395   0.0569012   0.025
0.138275   0.0569012   0.025
0.156961   0.0569012   0.025
0.176443   0.0569012   0.025
0.196707   0.0569012   0.025
0.217734   0.0569012   0.025
0.239496   0.0569012   0.025
0.261959   0.0569012   0.025
0.285082   0.0569012   0.025
0.308818   0.0569012   0.025
0.333113   0.0569012   0.025
0.357906   0.0569012   0.025
0.383132   0.0569012   0.025
0.408719   0.0569012   0.025
0.434592   0.0569012   0.025
0.460672   0.0569012   0.025
0.486877   0.0569012   0.025
0.513123   0.0569012   0.025
0.539328   0.0569012   0.025
0.565408   0.0569012   0.025
0.591281   0.0569012   0.025
0.616868   0.0569012   0.025
0.642094   0.0569012   0.025
0.666887   0.0569012   0.025
0.691182   0.0569012   0.025
0.714918   0.0569012   0.025
0.738041   0.0569012   0.025
0.760504   0.0569012   0.025
0.782266   0.0569012   0.025
0.803293   0.0569012   0.025
0.823557   0.0569012   0.025
0.843039   0.0569012   0.025
0.861725   0.0569012   0.025
0.879605   0.0569012   0.025
0.896677   0.0569012   0.025
0.912945   0.0569012   0.025
0.928415   0.0569012   0.025
0.943099   0.0569012   0.025
0.957011   0.0569012   0.025
0.970171   0.0569012   0.025
0.982598   0.0569012   0.025
0.994315   0.0569012   0.025
0.00568455   0.0715849   0.025
0.0174023   0.0715849   0.025
0.0298294   0.0715849   0.025
0.0429888   0.0715849   0.025
0.0569012   0.0715849   0.025
0.0715849   0.0715849   0.025
0.0870549   0.0715849   0.025
0.103323   0.0715849   0.025
0.120395   0.0715849   0.025
0.138275   0.0715849   0.025
0.156961   0.0715849   0.025
0.176443   0.0715849   0.025
0.196707   0.0715849   0.025
0.217734   0.0715849   0.025
0.239496   0.0715849   0.025
0.261959   0.0715849   0.025
0.285082   0.0715849   0.025
0.308818   0.0715849   0.025
0.333113   0.0715849   0.025
0.357906   0.0715849   0.025
0.383132   0.0715849   0.025
0.408719   0.0715849   0.025
0.434592   0.0715849   0.025
0.460672   0.0715849   0.025
0.486877   0.0715849   0.025
0.513123   0.0715849   0.025
0.539328   0.0715849   0.025
0.565408   0.0715849   0.025
0.591281   0.0715849   0.025
0.616868   0.0715849   0.025
0.642094   0.0715849   0.025
0.666887   0.0715849   0.025
0.691182   0.0715849   0.025
0.714918   0.0715849   0.025
0.738041   0.0715849   0.025
0.760504   0.0715849   0.025
0.782266   0.0715849   0.025
0.803293   0.0715849   0.025
0.823557   0.0715849   0.025
0.843039   0.0715849   0.025
0.861725   0.0715849   0.025
0.879605   0.0715849   0.025
0.896677   0.0715849   0.025
0.912945   0.0715849   0.025
0.928415   0.0715849   0.025
0.943099   0.0715849   0.025
0.957011   0.0715849   0.025
0.970171   0.0715849   0.025
0.982598   0.0715849   0.025
0.994315   0.0715849   0.025
0.00568455   0.0870549   0.025
0.0174023   0.0870549   0.025
0.0298294   0.0870549   0.025
0.0429888   0.0870549   0.025
0.0569012   0.0870549   0.025
0.0715849   0.0870549   0.025
0.0870549   0.0870549   0.025
0.103323   0.0870549   0.025
0.120395   0.0870549   0.025
0.138275   0.0870549   0.025
0.156961   0.0870549   0.025
0.176443   0.0870549   0.025
0.196707   0.0870549   0.025
0.217734   0.0870549   0.025
0.239496   0.0870549   0.025
0.261959   0.0870549   0.025
0.285082   0.0870549   0.025
0.308818   0.0870549   0.025
0.333113   0.0870549   0.025
0.357906   0.0870549   0.025
0.383132   0.0870549   0.025
0.408719   0.0870549   0.025
0.434592   0.0870549   0.025
0.460672   0.0870549   0.025
0.486877   0.0870549   0.025
0.513123   0.0870549   0.025
0.539328   0.0870549   0.025
0.565408   0.0870549   0.025
0.591281   0.0870549   0.025
0.616868   0.0870549   0.025
0.642094   0.0870549   0.025
0.666887   0.0870549   0.025
0.691182   0.0870549   0.025
0.714918   0.0870549   0.025
0.738041   0.0870549   0.025
0.760504   0.0870549   0.025
0.782266   0.0870549   0.025
[...]
POINT_DATA   50000
SCALARS Presion double
LOOKUP_TABLE   Presion

0 0 0 0 0 0 0 0 0 0 0 0 0 0 0 0 0 0 0 0 0 0 0 0 0 0 0 0 0 0 0 0 0 0 0 0 0 0 0 0 0 0 0 0 0 0 0 0 0 0 0.00165887 0.00180597 0.00198355 0.00211199 0.00217682 0.0021792 0.00212373 0.00201551 0.00185942 0.00165969 0.00141971 0.00114118 0.000682429 0.000403914 0.000155376 -6.11376e-05 -0.000240533 -0.000374438 -0.000453076 -0.000467665 -0.000412841 -0.000288686 -0.000101689 0.000135555 0.000385992 0.000635325 0.000849921 0.00100286 0.00107269 0.00104556 0.000916827 0.000691688 0.000384871 1.94794e-05 -0.000374894 -0.00076352 -0.00101201 -0.00137377 -0.00171051 -0.00200473 -0.00224597 -0.00242854 -0.00254954 -0.00260751 -0.0026017 -0.00253162 -0.00239732 -0.0022023 -0.00196702 -0.001784 0.0021776 0.00216648 0.00221635 0.00226713 0.00228914 0.00227014 0.00220642 0.00209829 0.00194793 0.00175857 0.00153453 0.00127982 0.00076013 0.00050821 0.000273567 6.33447e-05 -0.000115086 -0.000252696 -0.000339766 -0.000367762 -0.000331455 -0.000230765 -7.17523e-05 0.000131899 0.00035449 0.000572551 0.00075814 0.000885777 0.000935195 0.000893394 0.000756169 0.000528707 0.000225105 -0.00013316 -0.000519871 -0.000904921 -0.00108164 -0.00144046 -0.00176634 -0.00204785 -0.00227775 -0.00245232 -0.00257026 -0.00263206 -0.00263981 -0.00259778 -0.0025144 -0.00240705 -0.00231184 -0.00229826 0.00252921 0.00247934 0.00246476 0.00245937 0.00244171 0.00239818 0.00232161 0.00220923 0.0020611 0.00187939 0.0016685 0.00143172 0.000842436 0.000612936 0.000390667 0.000184815 4.24736e-06 -0.000141349 -0.000242025 -0.000289054 -0.00027677 -0.000204309 -7.68253e-05 9.08139e-05 0.000290203 0.000482964 0.00064705 0.000757896 0.000795328 0.000745913 0.000604766 0.000376313 7.37761e-05 -0.00028267 -0.000669048 -0.00105673 -0.00115769 -0.00151868 -0.00183925 -0.00211272 -0.00233528 -0.00250555 -0.00262415 -0.00269351 -0.00271801 -0.00270473 -0.00266497 -0.00261648 -0.00258516 -0.00260199 0.00282184 0.00276223 0.0027158 0.00267383 0.00262465 0.00255809 0.00246711 0.0023478 0.00219896 0.0020218 0.00182034 0.0015959 0.000931758 0.000718512 0.000504397 0.000298762 0.000111074 -4.85185e-05 -0.00016964 -0.000242908 -0.000261569 -0.000223212 -0.000131314 -1.20151e-06 0.000176914 0.000350476 0.000500825 0.00060399 0.00063892 0.000590527 0.000452069 0.000226312 -7.48501e-05 -0.000432397 -0.000823637 -0.00121935 -0.00124452 -0.00161171 -0.00193144 -0.00220106 -0.00242008 -0.00258949 -0.00271176 -0.00279077 -0.00283209 -0.00284336 -0.00283476 -0.00281919 -0.00281085 -0.00282085 0.00310489 0.00303696 0.00297071 0.00290378 0.00283044 0.0027441 0.00263908 0.00251149 0.00235952 0.00218363 0.00198713 0.00176886 0.00102747 0.000822705 0.0006099 0.000397667 0.000195363 1.3354e-05 -0.000137393 -0.00024635 -0.000304941 -0.000308311 -0.000257215 -0.000166295 -9.3348e-06 0.000150427 0.000294759 0.000400047 0.000443476 0.000407101 0.000281026 6.52077e-05 -0.00023056 -0.000588601 -0.000986917 -0.0013942 -0.00134706 -0.00172316 -0.00204512 -0.00231424 -0.00253306 -0.0027047 -0.00283297 -0.00292259 -0.00297925 -0.00300972 -0.00302168 -0.00302318 -0.00302121 -0.0030194 0.00339801 0.00331639 0.00323251 0.00314574 0.00305302 0.00294992 0.00283196 0.00269547 0.00253824 0.00236003 0.00216325 0.00194394 0.00112541 0.00091959 0.000698525 0.000469781 0.000242181 2.61404e-05 -0.000166586 -0.000323792 -0.000434271 -0.000489707 -0.000486896 -0.000438444 -0.00030252 -0.000153031 -7.52395e-06 0.000110451 0.000175462 0.000165451 6.58714e-05 -0.000127646 -0.000408647 -0.000761475 -0.00116474 -0.00158407 -0.00147171 -0.00185705 -0.00218235 -0.00245313 -0.00267454 -0.00285114 -0.00298747 -0.00308835 -0.00315895 -0.00320462 -0.00323068 -0.00324192 -0.00324187 -0.003232 0.00370532 0.00360386 0.00350068 0.00339537 0.00328562 0.00316781 0.00303784 0.00289189 0.00272718 0.00254254 0.00233924 0.00211031 0.0012168 0.000998258 0.000756372 0.000497633 0.000230157 -3.56091e-05 -0.000286845 -0.000509071 -0.000687582 -0.000809504 -0.000866334 -0.000867186 -0.000749637 -0.000610297 -0.00045769 -0.000315792 -0.000213494 -0.000178319 -0.00023126 -0.000383005 -0.000632309 -0.000966883 -0.0013665 -0.00179339 -0.00162738 -0.0020183 -0.00234522 -0.00261821 -0.00284428 -0.00302846 -0.00317511 -0.00328848 -0.00337277 -0.00343196 -0.00346961 -0.00348872 -0.00349142 -0.00347888 0.00402102 0.00389429 0.00376909 0.00364471 0.00351868 0.00338711 0.00324541 0.003089 0.00291399 0.00271792 0.00250052 0.00225169 0.00128677 0.00104129 0.000762651 0.00045633 0.000129743 -0.000206487 -0.000538091 -0.000847655 -0.00111606 -0.00132473 -0.00145852 -0.00152151 -0.00141442 -0.00129034 -0.0011271 -0.000949795 -0.000791574 -0.00068687 -0.000665229 -0.00074624 -0.000936506 -0.00122934 -0.00160712 -0.00202916 -0.0018273 -0.00221368 -0.00253631 -0.00280994 -0.00304196 -0.00323638 -0.00339623 -0.00352442 -0.00362386 -0.00369725 -0.00374703 -0.00377524 -0.00378362 -0.00377357 0.00433123 0.00417483 0.00402494 0.00388038 0.00373791 0.00359263 0.00343865 0.00326989 0.00308076 0.00286694 0.00262613 0.00234504 0.00131273 0.00102312 0.000687987 0.000311827 -9.8533e-05 -0.000532022 -0.000972433 -0.00139869 -0.00178631 -0.00210991 -0.00234633 -0.00249298 -0.00238142 -0.00228494 -0.0021115 -0.00188803 -0.00165258 -0.00144787 -0.00131436 -0.00128366 -0.00137375 -0.00158689 -0.0019106 -0.00230317 -0.00209199 -0.00245374 -0.00276021 -0.00302983 -0.00326795 -0.0034753 -0.00365201 -0.00379869 -0.00391651 -0.00400692 -0.00407149 -0.00411181 -0.00412956 -0.00412652 0.00461412 0.00442479 0.00424812 0.00408229 0.00392282 0.00376315 0.00359541 0.00341127 0.0032028 0.0029632 0.00268756 0.00235938 0.00126283 0.000908539 0.000492932 1.94619e-05 -0.000505487 -0.00107004 -0.00165548 -0.00223629 -0.00278164 -0.00325818 -0.00363359 -0.00389655 -0.00375945 -0.00371183 -0.00353454 -0.00325662 -0.00292119 -0.00258035 -0.0022877 -0.00209037 -0.00202205 -0.00209847 -0.00231633 -0.00263679 -0.00245415 -0.00275641 -0.00302625 -0.00328266 -0.00352494 -0.00374745 -0.00394523 -0.00411526 -0.00425627 -0.0043682 -0.00445176 -0.00450824 -0.00453937 -0.00454728 0.00483957 0.00461531 0.00441061 0.00422275 0.00404557 0.00387026 0.00368629 0.00348242 0.00324771 0.00297226 0.00264794 0.00225505 0.00109487 0.000651701 0.000127079 -0.000476782 -0.00115381 -0.00189092 -0.00266625 -0.00344899 -0.00420093 -0.00487956 -0.00544229 -0.00586654 -0.00568216 -0.00571446 -0.0055475 -0.00521179 -0.00475485 -0.00423844 -0.0037309 -0.00329808 -0.0029941 -0.00285382 -0.00288873 -0.00306983 -0.00296604 -0.0031531 -0.00335346 -0.0035802 -0.00382071 -0.00405881 -0.00428155 -0.0044804 -0.00465053 -0.00478973 -0.00489762 -0.00497506 -0.00502378 -0.00504622 0.00496911 0.00470932 0.00447633 0.00426617 0.00407053 0.00387777 0.00367406 0.00344467 0.00317499 0.00285142 0.00246195 0.0019837 0.000756091 0.00019616 -0.000470636 -0.00124363 -0.00211694 -0.00307585 -0.00409461 -0.00513615 -0.00615368 -0.00709426 -0.00790388 -0.00854545 -0.00830253 -0.00845454 -0.00832115 -0.00793213 -0.00733769 -0.00660801 -0.00582629 -0.00507911 -0.00444519 -0.00398457 -0.00373062 -0.00367513 -0.00370908 -0.00369743 -0.00377783 -0.00394666 -0.00417197 -0.00442176 -0.00467134 -0.00490399 -0.00510954 -0.00528255 -0.00542091 -0.00552473 -0.0055956 -0.00563615 0.00495642 0.00466212 0.00440168 0.0041695 0.00395465 0.00374206 0.00351408 0.00325188 0.00293666 0.00255047 0.00207682 0.00148961 0.00018448 -0.000523452 -0.00136976 -0.00235568 -0.0034754 -0.00471201 -0.00603499 -0.00739977 -0.00874955 -0.0100194 -0.0111427 -0.0120638 -0.011777 -0.0120935 -0.0120254 -0.011598 -0.010861 -0.00989015 -0.00878104 -0.00764053 -0.00657412 -0.00567225 -0.00499782 -0.00457865 -0.00480301 -0.00447553 -0.00436092 -0.00442519 -0.00460893 -0.00485825 -0.00513186 -0.00540106 -0.00564762 -0.00586114 -0.00603666 -0.00617291 -0.00627104 -0.00633374 0.00474903 0.00442307 0.00413722 0.00388389 0.00364903 0.0034137 0.00315591 0.00285225 0.00247922 0.00201399 0.00143498 0.000712661 -0.00068786 -0.00157746 -0.00264362 -0.00388973 -0.00530977 -0.00688386 -0.00857548 -0.010331 -0.0120817 -0.013749 -0.0152518 -0.0165123 -0.0162366 -0.0167607 -0.0167948 -0.0163553 -0.0154874 -0.0142669 -0.012797 -0.0112008 -0.00960902 -0.00814494 -0.00690771 -0.00597963 -0.00640823 -0.0056131 -0.00519701 -0.00508365 -0.00517962 -0.00540285 -0.00568931 -0.00599318 -0.00628424 -0.00654431 -0.00676388 -0.00693926 -0.00707058 -0.00716039 0.00429142 0.00393861 0.00363065 0.00335762 0.00310197 0.00284051 0.00254654 0.0021917 0.00174736 0.00118536 0.000478467 -0.000406624 -0.00192873 -0.00303443 -0.00436158 -0.00591573 -0.00769001 -0.00966039 -0.0117827 -0.013992 -0.0162058 -0.0183293 -0.0202656 -0.0219119 -0.0217469 -0.0225116 -0.0226842 -0.0222686 -0.0213007 -0.0198506 -0.0180213 -0.0159444 -0.0137698 -0.0116514 -0.00972819 -0.00815539 -0.00871157 -0.00727211 -0.00641422 -0.00601752 -0.00595291 -0.00610505 -0.00638046 -0.00670953 -0.00704457 -0.00735562 -0.00762587 -0.00784764 -0.00801914 -0.00814234 0.00352964 0.00315676 0.00283128 0.00254063 0.00226352 0.00197228 0.00163527 0.00121897 0.000689348 1.25767e-05 -0.000844646 -0.00191996 -0.00359728 -0.00495182 -0.00657865 -0.00848499 -0.010662 -0.0130798 -0.0156841 -0.0183965 -0.0211179 -0.023736 -0.026136 -0.0281902 -0.0282664 -0.0292871 -0.0296267 -0.0292754 -0.0282562 -0.0266279 -0.0244855 -0.0219585 -0.0192056 -0.0164038 -0.0137305 -0.0114262 -0.0118892 -0.0096307 -0.00816596 -0.00734794 -0.00701942 -0.00703093 -0.00725387 -0.00758752 -0.0079597 -0.00832312 -0.0086498 -0.00892555 -0.0091453 -0.00930974 0.0024172 0.00203294 0.00169572 0.0013902 0.00109126 0.000766669 0.000379859 -0.000107914 -0.00073617 -0.00154455 -0.00257258 -0.00386286 -0.00573355 -0.00736488 -0.00932351 -0.0116173 -0.0142336 -0.0171342 -0.0202525 -0.0234936 -0.0267399 -0.0298601 -0.0327217 -0.035175 -0.0356223 -0.0368925 -0.0374137 -0.0371634 -0.0361516 -0.0344226 -0.0320567 -0.0291716 -0.0259221 -0.0224958 -0.0191009 -0.0160627 -0.0160546 -0.0128473 -0.0106118 -0.00921378 -0.00848944 -0.00826332 -0.00837056 -0.00867303 -0.00906628 -0.0094786 -0.0098655 -0.0102027 -0.0104796 -0.0106947 0.000921737 0.000536322 0.000194259 -0.000122629 -0.000443226 -0.000804122 -0.00124666 -0.00181462 -0.00255287 -0.00350675 -0.00472182 -0.00624612 -0.0083479 -0.0102758 -0.0125874 -0.0152894 -0.0183632 -0.0217598 -0.0253971 -0.0291616 -0.0329163 -0.0365109 -0.039797 -0.0426096 -0.0435179 -0.0450116 -0.0457115 -0.0455876 -0.0446395 -0.0428983 -0.0404267 -0.0373234 -0.0337281 -0.0298243 -0.0258368 -0.0221557 -0.0212148 -0.0170202 -0.0138896 -0.0117561 -0.010486 -0.00989947 -0.00980335 -0.01002 -0.0104057 -0.0108562 -0.0113036 -0.0117086 -0.0120521 -0.0123283 -0.000968709 -0.00134397 -0.0016831 -0.00200705 -0.00234819 -0.00274714 -0.00324959 -0.00390399 -0.00476012 -0.00586857 -0.00728038 -0.00904907 -0.0114127 -0.0136455 -0.0163164 -0.0194289 -0.0229557 -0.0268345 -0.0309654 -0.0352156 -0.0394283 -0.043437 -0.0470806 -0.0501883 -0.0515807 -0.0532577 -0.054117 -0.0541281 -0.053286 -0.0516125 -0.049155 -0.0459912 -0.0422378 -0.0380606 -0.0336821 -0.0295174 -0.0272573 -0.0221545 -0.018083 -0.0150936 -0.0131297 -0.0120432 -0.0116331 -0.0116882 -0.012022 -0.0124901 -0.0129929 -0.0134698 -0.0138886 -0.0142373 -0.00324078 -0.00359415 -0.003922 -0.00424784 -0.00460716 -0.00504405 -0.00560802 -0.00635149 -0.00732853 -0.00859416 -0.010204 -0.0122163 -0.0148586 -0.0173914 -0.020411 -0.0239153 -0.0278665 -0.0321866 -0.0367576 -0.041427 -0.0460208 -0.0503596 -0.0542752 -0.0576005 -0.0594314 -0.0612453 -0.0622331 -0.0623702 -0.0616544 -0.0601044 -0.0577571 -0.054672 -0.0509407 -0.0467012 -0.0421541 -0.0376891 -0.0339667 -0.0281453 -0.0231881 -0.0192899 -0.0165143 -0.0147894 -0.0139395 -0.0137377 -0.013958 -0.0144106 -0.0149562 -0.015505 -0.0160065 -0.0164386 -0.00585358 -0.00617369 -0.0064817 -0.00680345 -0.00717702 -0.00764938 -0.00827309 -0.00910379 -0.0101989 -0.0116168 -0.0134163 -0.0156594 -0.0185776 -0.0213912 -0.0247316 -0.0285893 -0.0329145 -0.0376131 -0.0425489 -0.0475522 -0.052435 -0.0570099 -0.0611075 -0.0645712 -0.0667494 -0.068654 -0.0697339 -0.0699751 -0.0693837 -0.067981 -0.0658002 -0.0628881 -0.0593139 -0.0551838 -0.0506604 -0.0460646 -0.0410544 -0.0347761 -0.0290882 -0.0243195 -0.0206752 -0.0181998 -0.0167851 -0.0162184 -0.0162477 -0.0166383 -0.0172048 -0.0178201 -0.0184088 -0.0189343 -0.00873988 -0.0090165 -0.00929638 -0.00960734 -0.00998958 -0.0104922 -0.0111701 -0.0120812 -0.0132852 -0.0148426 -0.0168139 -0.019263 -0.0224317 -0.0254937 -0.029112 -0.0332686 -0.0379013 -0.0429009 -0.0481151 -0.0533599 -0.058438 -0.0631586 -0.0673557 -0.0708878 -0.0733087 -0.0752635 -0.0763997 -0.0767163 -0.0762306 -0.0749707 -0.072971 -0.0702727 -0.0669284 -0.0630143 -0.0586482 -0.0540583 -0.0481892 -0.0417357 -0.0355483 -0.0300433 -0.0255576 -0.0222744 -0.0201933 -0.0191545 -0.0189054 -0.0191755 -0.0197312 -0.0204011 -0.0210774 -0.0217043 -0.011811 -0.0120357 -0.0122799 -0.012573 -0.0129567 -0.0134817 -0.0142044 -0.015184 -0.0164815 -0.0181582 -0.0202749 -0.022895 -0.0262664 -0.0295334 -0.0333752 -0.0377654 -0.0426306 -0.0478484 -0.0532537 -0.0586523 -0.0638416 -0.0686313 -0.0728621 -0.0764082 -0.0789812 -0.0809537 -0.0821161 -0.0824796 -0.0820724 -0.0809311 -0.0790954 -0.0766059 -0.0735062 -0.0698494 -0.0657113 -0.0612289 -0.0550301 -0.0486559 -0.0422355 -0.0362072 -0.0309986 -0.0269269 -0.0241251 -0.0225265 -0.0219127 -0.0219966 -0.0225011 -0.0232066 -0.0239664 -0.0246994 -0.0149644 -0.0151314 -0.0153335 -0.0156015 -0.0159782 -0.0165153 -0.0172697 -0.0183014 -0.0196715 -0.0214412 -0.0236699 -0.0264188 -0.0299256 -0.0333463 -0.0373504 -0.0419043 -0.0469255 -0.0522816 -0.0577985 -0.063276 -0.0685093 -0.0733114 -0.0775303 -0.0810544 -0.0837165 -0.0856837 -0.0868504 -0.0872366 -0.0868797 -0.0858245 -0.0841174 -0.0818028 -0.0789218 -0.0755138 -0.0716238 -0.0673171 -0.0612633 -0.0551636 -0.0487663 -0.042469 -0.0367319 -0.0319733 -0.0284621 -0.0262547 -0.0252046 -0.0250374 -0.0254452 -0.0261614 -0.0269955 -0.0278359 -0.018094 -0.0182002 -0.0183555 -0.0185916 -0.018952 -0.0194886 -0.0202588 -0.0213224 -0.0227398 -0.024571 -0.0268735 -0.0297041 -0.0332649 -0.0367834 -0.0408861 -0.0455344 -0.0506393 -0.0560626 -0.0616248 -0.0671232 -0.0723535 -0.0771323 -0.0813141 -0.0847979 -0.0875142 -0.0894628 -0.0906203 -0.0910119 -0.090681 -0.0896792 -0.0880599 -0.0858736 -0.0831644 -0.0799677 -0.0763113 -0.0722175 -0.0666364 -0.0609327 -0.054766 -0.0484499 -0.0424194 -0.0371433 -0.0330037 -0.0301902 -0.0286611 -0.0281879 -0.0284538 -0.0291522 -0.0300473 -0.0309924 -0.0210995 -0.0211446 -0.0212503 -0.0214486 -0.0217831 -0.0223058 -0.0230735 -0.0241457 -0.0255816 -0.0274394 -0.0297743 -0.0326376 -0.0361621 -0.0397209 -0.0438596 -0.0485369 -0.0536614 -0.0590923 -0.0646488 -0.070128 -0.0753272 -0.080066 -0.084203 -0.0876436 -0.0904008 -0.0923261 -0.0934689 -0.0938555 -0.0935324 -0.092556 -0.0909862 -0.088881 -0.086291 -0.0832553 -0.079798 -0.0759248 -0.07098 -0.0657212 -0.059921 -0.0537915 -0.0477002 -0.0421125 -0.0374816 -0.0341191 -0.0321056 -0.0312904 -0.031375 -0.0320266 -0.0329666 -0.0340109 -0.0238952 -0.023882 -0.0239374 -0.0240933 -0.0243928 -0.0248872 -0.0256329 -0.0266882 -0.0281114 -0.0299587 -0.0322827 -0.0351292 -0.0385234 -0.0420655 -0.0461806 -0.050828 -0.0559172 -0.0613085 -0.0668227 -0.0722584 -0.0774145 -0.0821121 -0.0862104 -0.0896168 -0.0924147 -0.0943195 -0.0954484 -0.0958257 -0.0954983 -0.0945258 -0.0929739 -0.0909079 -0.0883875 -0.0854603 -0.082157 -0.0784866 -0.0742089 -0.0693829 -0.0640088 -0.0582023 -0.0522417 -0.0465457 -0.0415906 -0.037779 -0.0353135 -0.0341444 -0.034019 -0.0345974 -0.0355655 -0.0367013 -0.0264166 -0.0263504 -0.0263569 -0.0264674 -0.0267237 -0.0271759 -0.0278792 -0.028891 -0.0302683 -0.032066 -0.0343349 -0.0371156 -0.0402857 -0.0437559 -0.0477923 -0.0523578 -0.057366 -0.0626817 -0.0681293 -0.0735099 -0.0786234 -0.0832897 -0.0873656 -0.0907552 -0.0935995 -0.0954925 -0.0966133 -0.0969818 -0.0966436 -0.0956599 -0.0941012 -0.0920402 -0.089546 -0.0866776 -0.0834781 -0.0799728 -0.0763094 -0.071859 -0.0669036 -0.0614803 -0.0557769 -0.0501393 -0.0450242 -0.0408852 -0.0380293 -0.0365171 -0.0361659 -0.03665 -0.0376305 -0.0388497 -0.028623 -0.0285112 -0.0284725 -0.0285364 -0.0287428 -0.0291395 -0.0297801 -0.0307208 -0.032018 -0.0337259 -0.0358946 -0.0385612 -0.0414163 -0.0447617 -0.0486689 -0.0531071 -0.0579972 -0.0632105 -0.0685767 -0.0739 -0.0789799 -0.0836328 -0.0877093 -0.0911055 -0.0940028 -0.0958978 -0.09702 -0.0973843 -0.0970332 -0.0960286 -0.0944446 -0.0923611 -0.0898564 -0.0870012 -0.0838533 -0.0804604 -0.0773206 -0.0731594 -0.0685634 -0.0635144 -0.0581214 -0.0526497 -0.0475069 -0.0431585 -0.0399871 -0.0381592 -0.0375779 -0.0379521 -0.0389316 -0.0402274 -0.030498 -0.0303497 -0.0302712 -0.0302894 -0.0304408 -0.03077 -0.0313282 -0.03217 -0.0333517 -0.0349281 -0.0369508 -0.0394554 -0.0419091 -0.0450796 -0.0488118 -0.0530838 -0.0578257 -0.0629175 -0.0681952 -0.0734655 -0.0785263 -0.0831883 -0.0872925 -0.090723 -0.0936773 -0.0955919 -0.0967287 -0.0970968 -0.0967347 -0.095704 -0.0940818 -0.0919538 -0.089407 -0.086523 -0.0833737 -0.0800303 -0.0773167 -0.0733411 -0.0690098 -0.0642706 -0.0591724 -0.0539057 -0.048815 -0.0443476 -0.04093 -0.0388192 -0.0380102 -0.0382634 -0.0392312 -0.0405992 -0.0320469 -0.0318725 -0.0317614 -0.0317366 -0.0318298 -0.0320809 -0.0325374 -0.0332524 -0.0342823 -0.0356845 -0.0375142 -0.0398091 -0.0417808 -0.044729 -0.0482452 -0.0523181 -0.0568887 -0.0618465 -0.0670341 -0.0722602 -0.0773199 -0.082016 -0.0861775 -0.0896729 -0.0926831 -0.0946383 -0.0958063 -0.0961895 -0.0958223 -0.0947647 -0.0930956 -0.0909058 -0.0882894 -0.0853372 -0.0821331 -0.0787692 -0.0763938 -0.0724914 -0.0683073 -0.0637725 -0.0588953 -0.0538051 -0.0487835 -0.0442419 -0.0406235 -0.0382546 -0.0372195 -0.0373417 -0.0382888 -0.0397275 -0.0332931 -0.0331038 -0.0329686 -0.0329051 -0.0329384 -0.0331021 -0.0334385 -0.0339983 -0.0348392 -0.0360229 -0.0376119 -0.0396497 -0.0410657 -0.0437474 -0.0470118 -0.0508592 -0.0552421 -0.0600597 -0.0651606 -0.0703551 -0.0754338 -0.0801902 -0.0844395 -0.088032 -0.0910891 -0.0931093 -0.0943283 -0.094742 -0.0943795 -0.0932984 -0.0915786 -0.0893138 -0.0866038 -0.083546 -0.080233 -0.0767733 -0.0746623 -0.0707157 -0.0665465 -0.0620813 -0.0573045 -0.052302 -0.0473016 -0.0426739 -0.0388608 -0.0362373 -0.0349679 -0.0349451 -0.0358623 -0.0373732 -0.0342724 -0.0340805 -0.0339309 -0.0338343 -0.0338074 -0.033875 -0.0340726 -0.0344481 -0.0350614 -0.0359813 -0.0372811 -0.0390153 -0.0398104 -0.0421859 -0.0451689 -0.0487718 -0.0529581 -0.0576359 -0.0626588 -0.0678371 -0.0729565 -0.0777995 -0.0821667 -0.0858894 -0.0889751 -0.091087 -0.0923802 -0.0928434 -0.0924999 -0.0914038 -0.0896339 -0.0872854 -0.0844611 -0.0812623 -0.0777861 -0.074151 -0.0722413 -0.0681289 -0.0638315 -0.0592786 -0.0544446 -0.0493886 -0.0442994 -0.0395121 -0.0354599 -0.032552 -0.0310212 -0.0308297 -0.0317046 -0.033291 -0.0350293 -0.034848 -0.0346948 -0.0345718 -0.0344846 -0.0344469 -0.0344858 -0.0346462 -0.0349915 -0.0356011 -0.0365637 -0.0379499 -0.0380699 -0.0401052 -0.042785 -0.046133 -0.0501225 -0.0546682 -0.0596271 -0.0648083 -0.0699911 -0.0749471 -0.0794612 -0.0833466 -0.0864312 -0.0886635 -0.0900569 -0.0905924 -0.0902865 -0.0891886 -0.0873744 -0.0849382 -0.0819827 -0.0786097 -0.0749164 -0.071023 -0.0692546 -0.06485 -0.0602706 -0.0554534 -0.0503728 -0.0450768 -0.0397314 -0.0346482 -0.0302554 -0.0269895 -0.0251423 -0.0247427 -0.0255558 -0.0272216 -0.0356127 -0.0354568 -0.0353123 -0.03517 -0.0350215 -0.0348669 -0.0347239 -0.0346348 -0.0346694 -0.0349217 -0.0355011 -0.0364992 -0.0359034 -0.0375732 -0.0399375 -0.0430304 -0.0468323 -0.0512618 -0.0561766 -0.0613831 -0.0666535 -0.0717481 -0.0764366 -0.0805153 -0.0835579 -0.0859392 -0.0874607 -0.0880942 -0.0878485 -0.0867662 -0.0849183 -0.082395 -0.0792956 -0.0757183 -0.0717551 -0.0675183 -0.0658252 -0.0609959 -0.0559695 -0.0506921 -0.0451462 -0.0393819 -0.0335591 -0.0279823 -0.0230856 -0.0193369 -0.0170821 -0.0164127 -0.0171337 -0.0188812 -0.0360735 -0.0359611 -0.0358394 -0.0356845 -0.0354708 -0.0351827 -