# vtk DataFile Version 2.0
Presion
ASCII

DATASET STRUCTURED_GRID
DIMENSIONS   50   50   20

POINTS   50000   double
0.00568455   0.00568455   0.025
0.0174023   0.00568455   0.025
0.0298294   0.00568455   0.025
0.0429888   0.00568455   0.025
0.0569012   0.00568455   0.025
0.0715849   0.00568455   0.025
0.0870549   0.00568455   0.025
0.103323   0.00568455   0.025
0.120395   0.00568455   0.025
0.138275   0.00568455   0.025
0.156961   0.00568455   0.025
0.176443   0.00568455   0.025
0.196707   0.00568455   0.025
0.217734   0.00568455   0.025
0.239496   0.00568455   0.025
0.261959   0.00568455   0.025
0.285082   0.00568455   0.025
0.308818   0.00568455   0.025
0.333113   0.00568455   0.025
0.357906   0.00568455   0.025
0.383132   0.00568455   0.025
0.408719   0.00568455   0.025
0.434592   0.00568455   0.025
0.460672   0.00568455   0.025
0.486877   0.00568455   0.025
0.513123   0.00568455   0.025
0.539328   0.00568455   0.025
0.565408   0.00568455   0.025
0.591281   0.00568455   0.025
0.616868   0.00568455   0.025
0.642094   0.00568455   0.025
0.666887   0.00568455   0.025
0.691182   0.00568455   0.025
0.714918   0.00568455   0.025
0.738041   0.00568455   0.025
0.760504   0.00568455   0.025
0.782266   0.00568455   0.025
0.803293   0.00568455   0.025
0.823557   0.00568455   0.025
0.843039   0.00568455   0.025
0.861725   0.00568455   0.025
0.879605   0.00568455   0.025
0.896677   0.00568455   0.025
0.912945   0.00568455   0.025
0.928415   0.00568455   0.025
0.943099   0.00568455   0.025
0.957011   0.00568455   0.025
0.970171   0.00568455   0.025
0.982598   0.00568455   0.025
0.994315   0.00568455   0.025
0.00568455   0.0174023   0.025
0.0174023   0.0174023   0.025
0.0298294   0.0174023   0.025
0.0429888   0.0174023   0.025
0.0569012   0.0174023   0.025
0.0715849   0.0174023   0.025
0.0870549   0.0174023   0.025
0.103323   0.0174023   0.025
0.120395   0.0174023   0.025
0.138275   0.0174023   0.025
0.156961   0.0174023   0.025
0.176443   0.0174023   0.025
0.196707   0.0174023   0.025
0.217734   0.0174023   0.025
0.239496   0.0174023   0.025
0.261959   0.0174023   0.025
0.285082   0.0174023   0.025
0.308818   0.0174023   0.025
0.333113   0.0174023   0.025
0.357906   0.0174023   0.025
0.383132   0.0174023   0.025
0.408719   0.0174023   0.025
0.434592   0.0174023   0.025
0.460672   0.0174023   0.025
0.486877   0.0174023   0.025
0.513123   0.0174023   0.025
0.539328   0.0174023   0.025
0.565408   0.0174023   0.025
0.591281   0.0174023   0.025
0.616868   0.0174023   0.025
0.642094   0.0174023   0.025
0.666887   0.0174023   0.025
0.691182   0.0174023   0.025
0.714918   0.0174023   0.025
0.738041   0.0174023   0.025
0.760504   0.0174023   0.025
0.782266   0.0174023   0.025
0.803293   0.0174023   0.025
0.823557   0.0174023   0.025
0.843039   0.0174023   0.025
0.861725   0.0174023   0.025
0.879605   0.0174023   0.025
0.896677   0.0174023   0.025
0.912945   0.0174023   0.025
0.928415   0.0174023   0.025
0.943099   0.0174023   0.025
0.957011   0.0174023   0.025
0.970171   0.0174023   0.025
0.982598   0.0174023   0.025
0.994315   0.0174023   0.025
0.00568455   0.0298294   0.025
0.0174023   0.0298294   0.025
0.0298294   0.0298294   0.025
0.0429888   0.0298294   0.025
0.0569012   0.0298294   0.025
0.0715849   0.0298294   0.025
0.0870549   0.0298294   0.025
0.103323   0.0298294   0.025
0.120395   0.0298294   0.025
0.138275   0.0298294   0.025
0.156961   0.0298294   0.025
0.176443   0.0298294   0.025
0.196707   0.0298294   0.025
0.217734   0.0298294   0.025
0.239496   0.0298294   0.025
0.261959   0.0298294   0.025
0.285082   0.0298294   0.025
0.308818   0.0298294   0.025
0.333113   0.0298294   0.025
0.357906   0.0298294   0.025
0.383132   0.0298294   0.025
0.408719   0.0298294   0.025
0.434592   0.0298294   0.025
0.460672   0.0298294   0.025
0.486877   0.0298294   0.025
0.513123   0.0298294   0.025
0.539328   0.0298294   0.025
0.565408   0.0298294   0.025
0.591281   0.0298294   0.025
0.616868   0.0298294   0.025
0.642094   0.0298294   0.025
0.666887   0.0298294   0.025
0.691182   0.0298294   0.025
0.714918   0.0298294   0.025
0.738041   0.0298294   0.025
0.760504   0.0298294   0.025
0.782266   0.0298294   0.025
0.803293   0.0298294   0.025
0.823557   0.0298294   0.025
0.843039   0.0298294   0.025
0.861725   0.0298294   0.025
0.879605   0.0298294   0.025
0.896677   0.0298294   0.025
0.912945   0.0298294   0.025
0.928415   0.0298294   0.025
0.943099   0.0298294   0.025
0.957011   0.0298294   0.025
0.970171   0.0298294   0.025
0.982598   0.0298294   0.025
0.994315   0.0298294   0.025
0.00568455   0.0429888   0.025
0.0174023   0.0429888   0.025
0.0298294   0.0429888   0.025
0.0429888   0.0429888   0.025
0.0569012   0.0429888   0.025
0.0715849   0.0429888   0.025
0.0870549   0.0429888   0.025
0.103323   0.0429888   0.025
0.120395   0.0429888   0.025
0.138275   0.0429888   0.025
0.156961   0.0429888   0.025
0.176443   0.0429888   0.025
0.196707   0.0429888   0.025
0.217734   0.0429888   0.025
0.239496   0.0429888   0.025
0.261959   0.0429888   0.025
0.285082   0.0429888   0.025
0.308818   0.0429888   0.025
0.333113   0.0429888   0.025
0.357906   0.0429888   0.025
0.383132   0.0429888   0.025
0.408719   0.0429888   0.025
0.434592   0.0429888   0.025
0.460672   0.0429888   0.025
0.486877   0.0429888   0.025
0.513123   0.0429888   0.025
0.539328   0.0429888   0.025
0.565408   0.0429888   0.025
0.591281   0.0429888   0.025
0.616868   0.0429888   0.025
0.642094   0.0429888   0.025
0.666887   0.0429888   0.025
0.691182   0.0429888   0.025
0.714918   0.0429888   0.025
0.738041   0.0429888   0.025
0.760504   0.0429888   0.025
0.782266   0.0429888   0.025
0.803293   0.0429888   0.025
0.823557   0.0429888   0.025
0.843039   0.0429888   0.025
0.861725   0.0429888   0.025
0.879605   0.0429888   0.025
0.896677   0.0429888   0.025
0.912945   0.0429888   0.025
0.928415   0.0429888   0.025
0.943099   0.0429888   0.025
0.957011   0.0429888   0.025
0.970171   0.0429888   0.025
0.982598   0.0429888   0.025
0.994315   0.0429888   0.025
0.00568455   0.0569012   0.025
0.0174023   0.0569012   0.025
0.0298294   0.0569012   0.025
0.0429888   0.0569012   0.025
0.0569012   0.0569012   0.025
0.0715849   0.0569012   0.025
0.0870549   0.0569012   0.025
0.103323   0.0569012   0.025
0.120395   0.0569012   0.025
0.138275   0.0569012   0.025
0.156961   0.0569012   0.025
0.176443   0.0569012   0.025
0.196707   0.0569012   0.025
0.217734   0.0569012   0.025
0.239496   0.0569012   0.025
0.261959   0.0569012   0.025
0.285082   0.0569012   0.025
0.308818   0.0569012   0.025
0.333113   0.0569012   0.025
0.357906   0.0569012   0.025
0.383132   0.0569012   0.025
0.408719   0.0569012   0.025
0.434592   0.0569012   0.025
0.460672   0.0569012   0.025
0.486877   0.0569012   0.025
0.513123   0.0569012   0.025
0.539328   0.0569012   0.025
0.565408   0.0569012   0.025
0.591281   0.0569012   0.025
0.616868   0.0569012   0.025
0.642094   0.0569012   0.025
0.666887   0.0569012   0.025
0.691182   0.0569012   0.025
0.714918   0.0569012   0.025
0.738041   0.0569012   0.025
0.760504   0.0569012   0.025
0.782266   0.0569012   0.025
0.803293   0.0569012   0.025
0.823557   0.0569012   0.025
0.843039   0.0569012   0.025
0.861725   0.0569012   0.025
0.879605   0.0569012   0.025
0.896677   0.0569012   0.025
0.912945   0.0569012   0.025
0.928415   0.0569012   0.025
0.943099   0.0569012   0.025
0.957011   0.0569012   0.025
0.970171   0.0569012   0.025
0.982598   0.0569012   0.025
0.994315   0.0569012   0.025
0.00568455   0.0715849   0.025
0.0174023   0.0715849   0.025
0.0298294   0.0715849   0.025
0.0429888   0.0715849   0.025
0.0569012   0.0715849   0.025
0.0715849   0.0715849   0.025
0.0870549   0.0715849   0.025
0.103323   0.0715849   0.025
0.120395   0.0715849   0.025
0.138275   0.0715849   0.025
0.156961   0.0715849   0.025
0.176443   0.0715849   0.025
0.196707   0.0715849   0.025
0.217734   0.0715849   0.025
0.239496   0.0715849   0.025
0.261959   0.0715849   0.025
0.285082   0.0715849   0.025
0.308818   0.0715849   0.025
0.333113   0.0715849   0.025
0.357906   0.0715849   0.025
0.383132   0.0715849   0.025
0.408719   0.0715849   0.025
0.434592   0.0715849   0.025
0.460672   0.0715849   0.025
0.486877   0.0715849   0.025
0.513123   0.0715849   0.025
0.539328   0.0715849   0.025
0.565408   0.0715849   0.025
0.591281   0.0715849   0.025
0.616868   0.0715849   0.025
0.642094   0.0715849   0.025
0.666887   0.0715849   0.025
0.691182   0.0715849   0.025
0.714918   0.0715849   0.025
0.738041   0.0715849   0.025
0.760504   0.0715849   0.025
0.782266   0.0715849   0.025
0.803293   0.0715849   0.025
0.823557   0.0715849   0.025
0.843039   0.0715849   0.025
0.861725   0.0715849   0.025
0.879605   0.0715849   0.025
0.896677   0.0715849   0.025
0.912945   0.0715849   0.025
0.928415   0.0715849   0.025
0.943099   0.0715849   0.025
0.957011   0.0715849   0.025
0.970171   0.0715849   0.025
0.982598   0.0715849   0.025
0.994315   0.0715849   0.025
0.00568455   0.0870549   0.025
0.0174023   0.0870549   0.025
0.0298294   0.0870549   0.025
0.0429888   0.0870549   0.025
0.0569012   0.0870549   0.025
0.0715849   0.0870549   0.025
0.0870549   0.0870549   0.025
0.103323   0.0870549   0.025
0.120395   0.0870549   0.025
0.138275   0.0870549   0.025
0.156961   0.0870549   0.025
0.176443   0.0870549   0.025
0.196707   0.0870549   0.025
0.217734   0.0870549   0.025
0.239496   0.0870549   0.025
0.261959   0.0870549   0.025
0.285082   0.0870549   0.025
0.308818   0.0870549   0.025
0.333113   0.0870549   0.025
0.357906   0.0870549   0.025
0.383132   0.0870549   0.025
0.408719   0.0870549   0.025
0.434592   0.0870549   0.025
0.460672   0.0870549   0.025
0.486877   0.0870549   0.025
0.513123   0.0870549   0.025
0.539328   0.0870549   0.025
0.565408   0.0870549   0.025
0.591281   0.0870549   0.025
0.616868   0.0870549   0.025
0.642094   0.0870549   0.025
0.666887   0.0870549   0.025
0.691182   0.0870549   0.025
0.714918   0.0870549   0.025
0.738041   0.0870549   0.025
0.760504   0.0870549   0.025
0.782266   0.0870549   0.025
[...]
POINT_DATA   50000
SCALARS Presion double
LOOKUP_TABLE   Presion

0 0 0 0 0 0 0 0 0 0 0 0 0 0 0 0 0 0 0 0 0 0 0 0 0 0 0 0 0 0 0 0 0 0 0 0 0 0 0 0 0 0 0 0 0 0 0 0 0 0 0.0016623 0.00180973 0.00198771 0.00211645 0.00218143 0.00218381 0.00212819 0.00201967 0.00186314 0.00166287 0.00142224 0.00114299 0.000683268 0.000404026 0.000154795 -6.23571e-05 -0.000242309 -0.000376657 -0.000455592 -0.000470306 -0.000415426 -0.000291034 -0.00010364 0.000134135 0.000385066 0.000634958 0.000850077 0.00100345 0.0010736 0.00104665 0.000917942 0.000692683 0.000385619 1.98776e-05 -0.00037491 -0.00076397 -0.00101271 -0.00137487 -0.00171197 -0.0020065 -0.00224799 -0.00243075 -0.00255187 -0.00260991 -0.00260411 -0.00253398 -0.00239956 -0.00220438 -0.00196888 -0.0017857 0.00218204 0.00217091 0.00222092 0.00227183 0.00229389 0.00227484 0.00221095 0.00210251 0.00195173 0.00176185 0.0015372 0.00128181 0.000761086 0.000508492 0.000273187 6.23427e-05 -0.000116639 -0.000254698 -0.000342081 -0.000370231 -0.000333905 -0.000233025 -7.36677e-05 0.000130455 0.000353487 0.000572054 0.00075812 0.00088616 0.000935872 0.000894232 0.000757028 0.000529451 0.000225613 -0.000132985 -0.000520092 -0.000905565 -0.00108244 -0.00144165 -0.00176787 -0.00204966 -0.0022798 -0.00245454 -0.0025726 -0.00263447 -0.00264223 -0.00260018 -0.00251674 -0.0024093 -0.00231401 -0.00230044 0.00253429 0.00248435 0.00246977 0.0024644 0.00244671 0.00240306 0.00232628 0.00221359 0.00206505 0.00188283 0.00167135 0.00143392 0.000843535 0.000613404 0.000390497 0.00018403 2.90456e-06 -0.00014316 -0.000244183 -0.000291412 -0.000279166 -0.00020658 -7.88193e-05 8.92166e-05 0.000289005 0.000482231 0.000646766 0.000758001 0.000795724 0.000746478 0.000605365 0.000376812 7.40555e-05 -0.000282707 -0.00066947 -0.00105757 -0.0011586 -0.00151997 -0.00184087 -0.00211461 -0.00233738 -0.00250781 -0.00262653 -0.00269596 -0.00272049 -0.00270721 -0.00266743 -0.00261891 -0.00258758 -0.00260444 0.00282744 0.00276775 0.00272128 0.00267924 0.00262996 0.00256324 0.00247202 0.00235238 0.00220311 0.00202546 0.00182342 0.00159835 0.000933036 0.000719185 0.00050444 0.000298183 0.000109913 -5.01891e-05 -0.000171714 -0.000245253 -0.000264032 -0.000225635 -0.000133542 -3.11774e-06 0.000175356 0.000349352 0.00050014 0.000603703 0.000638947 0.000590755 0.000452367 0.000226545 -7.48073e-05 -0.000432649 -0.000824262 -0.00122039 -0.00124556 -0.00161313 -0.00193316 -0.00220304 -0.00242225 -0.00259182 -0.0027142 -0.00279329 -0.00283466 -0.00284594 -0.00283736 -0.0028218 -0.00281347 -0.0028235 0.00311101 0.003043 0.00297667 0.00290963 0.00283614 0.0027496 0.00264431 0.00251637 0.00236396 0.00218755 0.00199048 0.00177158 0.00102897 0.000823599 0.00061015 0.000397262 0.000194326 1.17387e-05 -0.000139498 -0.000248826 -0.000307644 -0.000311082 -0.000259893 -0.000168752 -1.14841e-05 0.000148693 0.000293471 0.000399188 0.000442983 0.000406872 0.000280934 6.51124e-05 -0.000230794 -0.000589091 -0.000987756 -0.00139544 -0.00134827 -0.00172472 -0.00204697 -0.00231632 -0.00253533 -0.00270711 -0.0028355 -0.0029252 -0.00298192 -0.00301244 -0.00302443 -0.00302595 -0.00302401 -0.00302222 0.00340471 0.003323 0.00323899 0.00315208 0.00305917 0.00295584 0.00283757 0.0027007 0.00254302 0.00236428 0.00216691 0.00194695 0.00112716 0.000920707 0.000698952 0.000469489 0.000241171 2.44457e-05 -0.000168895 -0.000326609 -0.000437456 -0.000493097 -0.000490315 -0.000441743 -0.000305572 -0.000155681 -9.70432e-06 0.000108755 0.000174215 0.000164569 6.52311e-05 -0.000128188 -0.000409241 -0.000762257 -0.00116582 -0.00158552 -0.00147312 -0.00185879 -0.00218436 -0.00245534 -0.00267692 -0.00285366 -0.0029901 -0.00309108 -0.00316175 -0.00320748 -0.00323358 -0.00324486 -0.00324484 -0.003235 0.00371266 0.00361107 0.00350774 0.00340225 0.00329228 0.00317421 0.0030439 0.00289755 0.00273235 0.00254716 0.00234322 0.00211359 0.00121882 0.000999575 0.000756912 0.000497346 0.00022902 -3.75827e-05 -0.000289603 -0.000512519 -0.000691581 -0.000813878 -0.000870881 -0.000871727 -0.000753999 -0.000614269 -0.000461157 -0.000318694 -0.00021583 -0.000180148 -0.000232692 -0.000384188 -0.000633406 -0.000968053 -0.00136788 -0.00179509 -0.00162907 -0.00202026 -0.00234738 -0.00262056 -0.00284679 -0.0030311 -0.00317787 -0.00329135 -0.00337572 -0.00343497 -0.00347268 -0.00349184 -0.00349458 -0.00348207 0.00402906 0.00390214 0.00377675 0.00365217 0.00352589 0.00339403 0.00325197 0.00309512 0.00291959 0.00272291 0.00250481 0.0022552 0.00128903 0.00104274 0.000763186 0.000455878 0.000128256 -0.00020902 -0.000541634 -0.00085212 -0.0011213 -0.00133056 -0.00146469 -0.00152781 -0.00142061 -0.00129616 -0.00113237 -0.000954396 -0.000795457 -0.000690056 -0.000667806 -0.000748349 -0.000938324 -0.00123105 -0.0016089 -0.00203114 -0.00182935 -0.0022159 -0.00253867 -0.00281244 -0.00304461 -0.00323916 -0.00339913 -0.00352744 -0.00362697 -0.00370045 -0.00375029 -0.00377857 -0.00378699 -0.00377697 0.00433999 0.00418336 0.00403323 0.00388843 0.00374569 0.00360008 0.00344572 0.00327648 0.00308678 0.00287228 0.00263067 0.00234868 0.00131515 0.00102457 0.000688333 0.000310963 -0.000100681 -0.000535488 -0.000977195 -0.00140466 -0.00179334 -0.00211776 -0.00235474 -0.00250168 -0.00239007 -0.00229324 -0.00211921 -0.00189495 -0.00165859 -0.00145295 -0.00131855 -0.0012871 -0.00137661 -0.00158938 -0.00191293 -0.0023055 -0.00209453 -0.00245629 -0.0027628 -0.00303251 -0.00327074 -0.00347824 -0.00365507 -0.00380188 -0.00391981 -0.00401032 -0.00407497 -0.00411537 -0.00413318 -0.00413018 0.00462357 0.00443396 0.00425701 0.0040909 0.00393113 0.00377111 0.00360295 0.00341829 0.00320917 0.00296879 0.00269223 0.00236298 0.00126527 0.000909781 0.000492814 1.7847e-05 -0.000508703 -0.00107491 -0.00166199 -0.00224435 -0.00279108 -0.00326874 -0.00364494 -0.00390837 -0.00377127 -0.00372337 -0.00354543 -0.0032666 -0.00293004 -0.00258799 -0.00229412 -0.00209567 -0.00202639 -0.00210206 -0.00231943 -0.0026396 -0.00245735 -0.0027594 -0.00302913 -0.00328556 -0.00352792 -0.00375056 -0.00394848 -0.00411865 -0.00425979 -0.00437184 -0.0044555 -0.00451207 -0.00454327 -0.00455122 0.00484964 0.00462503 0.00442001 0.00423184 0.00405433 0.00387864 0.0036942 0.00348975 0.00325431 0.00297796 0.00265255 0.00225835 0.00109706 0.000652424 0.000126125 -0.000479586 -0.0011586 -0.00189776 -0.00267514 -0.00345982 -0.00421349 -0.00489355 -0.00545735 -0.00588226 -0.00569793 -0.00573001 -0.00556237 -0.0052256 -0.00476733 -0.0042494 -0.00374026 -0.00330588 -0.00300048 -0.00285898 -0.00289294 -0.00307336 -0.00297017 -0.00315668 -0.00335675 -0.00358339 -0.00382394 -0.00406214 -0.00428502 -0.00448403 -0.00465431 -0.00479365 -0.00490166 -0.00497919 -0.00502799 -0.0050505 0.00497963 0.00471943 0.00448608 0.00427558 0.00407959 0.00388641 0.00368219 0.00345213 0.00318161 0.00285697 0.0024662 0.00198639 0.000757687 0.00019595 -0.000472898 -0.00124815 -0.00212389 -0.00308531 -0.00410656 -0.00515045 -0.00617008 -0.0071124 -0.00792333 -0.00856574 -0.00832299 -0.00847482 -0.00834071 -0.00795052 -0.00735453 -0.00662304 -0.00583935 -0.00509015 -0.00445429 -0.00399191 -0.00373644 -0.00367976 -0.0037145 -0.00370187 -0.0037817 -0.00395028 -0.00417553 -0.00442538 -0.00467509 -0.00490791 -0.00511362 -0.00528679 -0.00542529 -0.00552922 -0.00560019 -0.00564082 0.00496713 0.00467238 0.00441154 0.004179 0.00396376 0.00375071 0.00352215 0.00325919 0.00294298 0.00255554 0.00208034 0.00149126 0.000185005 -0.000525109 -0.00137389 -0.00236254 -0.00348516 -0.00472475 -0.00605066 -0.00741819 -0.00877041 -0.0100423 -0.011167 -0.0120891 -0.0118027 -0.012119 -0.0120501 -0.0116214 -0.0108828 -0.00990985 -0.00879844 -0.0076555 -0.00658666 -0.00568246 -0.00500591 -0.00458496 -0.00481018 -0.00448119 -0.00436566 -0.00442944 -0.00461298 -0.00486229 -0.00513599 -0.00540534 -0.00565208 -0.00586576 -0.00604144 -0.00617782 -0.00627606 -0.00633885 0.00475956 0.00443312 0.00414685 0.00389313 0.00365785 0.00342202 0.00316356 0.00285903 0.00248485 0.00201815 0.0014373 0.000712779 -0.000688965 -0.00158115 -0.00265023 -0.00389954 -0.00532296 -0.00690049 -0.00859545 -0.0103541 -0.0121075 -0.0137769 -0.0152813 -0.0165428 -0.0162677 -0.0167916 -0.0168248 -0.0163839 -0.0155142 -0.0142915 -0.0128192 -0.0112202 -0.00962561 -0.00815874 -0.00691884 -0.00598842 -0.00641767 -0.00562043 -0.00520298 -0.00508882 -0.00518437 -0.00540745 -0.00569393 -0.00599792 -0.00628915 -0.0065494 -0.00676913 -0.00694466 -0.00707612 -0.00716602 0.00430132 0.00394802 0.00363963 0.00336619 0.0031101 0.00284807 0.00255335 0.0021975 0.00175183 0.00118813 0.000479101 -0.000408556 -0.00193208 -0.00304078 -0.00437128 -0.00592908 -0.00770719 -0.00968139 -0.0118073 -0.01402 -0.0162365 -0.0183622 -0.0203 -0.021947 -0.021783 -0.0225472 -0.0227188 -0.0223018 -0.0213321 -0.0198797 -0.0180479 -0.0159682 -0.0137907 -0.0116692 -0.00974309 -0.00816757 -0.00872371 -0.00728158 -0.00642184 -0.00602393 -0.00595862 -0.00611042 -0.00638573 -0.00671486 -0.00705004 -0.00736126 -0.00763169 -0.00785362 -0.00802527 -0.00814858 0.00353839 0.00316503 0.00283912 0.00254805 0.00227047 0.0019786 0.00164074 0.0012233 0.000692153 1.34307e-05 -0.000846225 -0.00192445 -0.00360346 -0.00496139 -0.00659199 -0.00850237 -0.0106836 -0.0131054 -0.0157135 -0.0184292 -0.0211533 -0.0237733 -0.0261744 -0.028229 -0.0283065 -0.0293263 -0.0296648 -0.0293119 -0.0282909 -0.0266605 -0.0245158 -0.0219862 -0.0192306 -0.0164258 -0.0137495 -0.0114425 -0.0119042 -0.00964266 -0.00817561 -0.00735595 -0.00702637 -0.00703728 -0.00725996 -0.00759357 -0.00796584 -0.0083294 -0.00865626 -0.00893218 -0.0091521 -0.00931668 0.00242426 0.00203954 0.0017019 0.00139596 0.00109651 0.000771237 0.000383481 -0.000105581 -0.000735545 -0.00154611 -0.00257686 -0.00387037 -0.00574309 -0.00737814 -0.00934086 -0.0116389 -0.0142596 -0.0171644 -0.0202864 -0.0235306 -0.0267791 -0.0299007 -0.0327629 -0.035216 -0.0356645 -0.0369336 -0.0374532 -0.0372013 -0.0361877 -0.0344569 -0.0320891 -0.0292019 -0.0259501 -0.0225213 -0.0191239 -0.0160832 -0.0160723 -0.0128619 -0.0106237 -0.00922368 -0.00849791 -0.00827089 -0.00837765 -0.00867994 -0.00907319 -0.00948563 -0.00987269 -0.01021 -0.0104872 -0.0107024 0.000926553 0.000540729 0.000198281 -0.000119025 -0.000440156 -0.000801793 -0.00124537 -0.00181475 -0.00255488 -0.00351116 -0.00472918 -0.00625699 -0.00836115 -0.010293 -0.0126089 -0.0153153 -0.0183935 -0.0217941 -0.0254348 -0.029202 -0.0329582 -0.0365536 -0.0398394 -0.0426511 -0.0435602 -0.0450523 -0.0457503 -0.0456247 -0.044675 -0.0429322 -0.040459 -0.0373543 -0.0337574 -0.0298518 -0.0258625 -0.0221795 -0.0212344 -0.017037 -0.0139038 -0.0117681 -0.0104962 -0.00990848 -0.00981163 -0.0100279 -0.0104135 -0.0108641 -0.0113116 -0.0117168 -0.0120605 -0.0123369 -0.000966602 -0.0013422 -0.00168168 -0.00200603 -0.00234773 -0.00274746 -0.00325104 -0.00390697 -0.00476513 -0.00587614 -0.00729107 -0.00906344 -0.0114298 -0.0136667 -0.016342 -0.0194588 -0.0229898 -0.0268722 -0.031006 -0.035258 -0.0394716 -0.0434801 -0.0471225 -0.0502285 -0.0516209 -0.0532958 -0.0541531 -0.0541623 -0.0533186 -0.0516439 -0.0491853 -0.0460206 -0.0422663 -0.0380881 -0.0337087 -0.0295428 -0.027278 -0.0221731 -0.0180993 -0.0151076 -0.0131417 -0.0120538 -0.0116427 -0.0116973 -0.0120308 -0.0124989 -0.0130018 -0.0134788 -0.0138978 -0.0142466 -0.00324173 -0.00359537 -0.00392351 -0.00424973 -0.00460961 -0.00504733 -0.00561247 -0.00635757 -0.00733673 -0.00860503 -0.0102181 -0.0122342 -0.0148794 -0.0174163 -0.0204402 -0.0239487 -0.0279036 -0.0322268 -0.0367998 -0.0414702 -0.0460639 -0.0504015 -0.0543151 -0.0576378 -0.0594679 -0.0612792 -0.0622647 -0.0623999 -0.0616826 -0.0601315 -0.0577835 -0.0546979 -0.0509664 -0.0467268 -0.0421794 -0.0377139 -0.0339873 -0.0281647 -0.0232057 -0.0193056 -0.0165281 -0.0148016 -0.0139505 -0.013748 -0.0139679 -0.0144203 -0.014966 -0.0155148 -0.0160166 -0.0164488 -0.00585779 -0.00617807 -0.00648632 -0.00680841 -0.00718253 -0.00765574 -0.00828066 -0.00911303 -0.0102103 -0.0116309 -0.0134336 -0.0156805 -0.0186018 -0.0214194 -0.0247639 -0.0286254 -0.0329537 -0.0376547 -0.0425917 -0.0475949 -0.0524766 -0.0570494 -0.061144 -0.0646045 -0.0667809 -0.0686827 -0.06976 -0.0699992 -0.0694063 -0.0680027 -0.0658214 -0.0629093 -0.0593353 -0.0552057 -0.0506826 -0.0460868 -0.0410738 -0.0347952 -0.0291065 -0.0243363 -0.0206903 -0.0182134 -0.0167975 -0.0162298 -0.0162586 -0.0166489 -0.0172154 -0.0178308 -0.0184196 -0.0189453 -0.00874736 -0.00902405 -0.0093041 -0.00961537 -0.00999813 -0.0105016 -0.0111807 -0.0120935 -0.0132996 -0.0148597 -0.0168342 -0.0192869 -0.0224588 -0.0255246 -0.0291466 -0.0333064 -0.0379416 -0.0429428 -0.0481572 -0.0534011 -0.058477 -0.0631946 -0.0673881 -0.0709164 -0.0733346 -0.0752863 -0.0764199 -0.0767345 -0.0762473 -0.0749865 -0.0729866 -0.0702885 -0.0669447 -0.0630313 -0.058666 -0.0540766 -0.0482065 -0.0417535 -0.0355661 -0.0300604 -0.0255735 -0.0222891 -0.0202067 -0.019167 -0.0189173 -0.0191871 -0.0197425 -0.0204125 -0.0210889 -0.0217159 -0.0118215 -0.0120463 -0.0122905 -0.0125839 -0.0129681 -0.0134939 -0.0142178 -0.0151991 -0.0164987 -0.018178 -0.0202978 -0.0229213 -0.0262957 -0.0295662 -0.0334113 -0.0378042 -0.0426712 -0.0478897 -0.0532944 -0.0586912 -0.0638774 -0.0686634 -0.07289 -0.0764318 -0.0790016 -0.0809707 -0.0821304 -0.0824918 -0.0820832 -0.0809412 -0.0791054 -0.0766163 -0.0735172 -0.0698613 -0.0657243 -0.0612428 -0.0550445 -0.0486715 -0.0422518 -0.0362235 -0.0310144 -0.026942 -0.0241392 -0.0225398 -0.0219253 -0.0220088 -0.022513 -0.0232185 -0.0239784 -0.0247115 -0.0149778 -0.0151447 -0.0153468 -0.015615 -0.0159922 -0.0165299 -0.0172855 -0.0183188 -0.019691 -0.0214631 -0.0236947 -0.0264468 -0.0299564 -0.0333803 -0.0373872 -0.0419432 -0.0469656 -0.0523216 -0.0578371 -0.063312 -0.0685417 -0.0733395 -0.0775537 -0.0810732 -0.0837316 -0.0856953 -0.0868591 -0.0872432 -0.0868851 -0.0858292 -0.0841221 -0.081808 -0.0789278 -0.0755209 -0.0716321 -0.0673266 -0.0612743 -0.0551762 -0.0487803 -0.0424838 -0.0367469 -0.0319881 -0.0284764 -0.0262683 -0.0252177 -0.02505 -0.0254575 -0.0261736 -0.0270078 -0.0278482 -0.0181097 -0.0182157 -0.0183709 -0.0186072 -0.018968 -0.0195053 -0.0202766 -0.0213417 -0.022761 -0.0245945 -0.0268997 -0.0297332 -0.0332965 -0.0368178 -0.0409229 -0.0455728 -0.0506783 -0.0561008 -0.0616611 -0.0671563 -0.0723824 -0.0771564 -0.0813332 -0.0848122 -0.0875245 -0.0894695 -0.0906241 -0.0910137 -0.0906816 -0.0896792 -0.0880599 -0.0858743 -0.083166 -0.0799704 -0.0763154 -0.072223 -0.0666441 -0.0609421 -0.0547772 -0.0484624 -0.0424328 -0.0371571 -0.0330175 -0.0302037 -0.0286742 -0.0282006 -0.0284662 -0.0291644 -0.0300595 -0.0310047 -0.0211169 -0.0211619 -0.0212674 -0.0214658 -0.0218007 -0.0223239 -0.0230927 -0.0241662 -0.0256039 -0.0274639 -0.0298012 -0.0326672 -0.0361939 -0.0397552 -0.0438958 -0.0485742 -0.0536989 -0.0591286 -0.0646826 -0.0701582 -0.0753528 -0.0800866 -0.0842183 -0.087654 -0.090407 -0.0923286 -0.0934685 -0.0938531 -0.0935288 -0.092552 -0.0909824 -0.0888778 -0.0862889 -0.0832544 -0.0797986 -0.0759268 -0.0709845 -0.0657275 -0.0599292 -0.0538014 -0.0477115 -0.0421247 -0.0374943 -0.0341319 -0.0321182 -0.0313028 -0.0313872 -0.0320385 -0.0329785 -0.0340228 -0.0239139 -0.0239005 -0.0239557 -0.0241116 -0.0244114 -0.0249063 -0.0256529 -0.0267095 -0.0281342 -0.0299835 -0.0323098 -0.0351586 -0.0385548 -0.0420991 -0.0462158 -0.050864 -0.055953 -0.0613428 -0.0668542 -0.072286 -0.0774374 -0.0821297 -0.0862227 -0.089624 -0.0924176 -0.0943186 -0.0954446 -0.0958199 -0.0954914 -0.0945185 -0.0929669 -0.0909017 -0.0883825 -0.0854566 -0.0821547 -0.078486 -0.0742106 -0.0693864 -0.0640142 -0.0582096 -0.0522507 -0.046556 -0.0416018 -0.0377907 -0.0353253 -0.034156 -0.0340305 -0.0346087 -0.0355768 -0.0367125 -0.026436 -0.0263695 -0.0263759 -0.0264863 -0.0267428 -0.0271954 -0.0278995 -0.0289124 -0.0302911 -0.0320907 -0.0343617 -0.0371445 -0.0403164 -0.0437885 -0.0478262 -0.0523923 -0.0574001 -0.0627141 -0.0681587 -0.0735353 -0.078644 -0.083305 -0.0873756 -0.09076 -0.0936 -0.0954892 -0.0966071 -0.0969736 -0.0966342 -0.0956502 -0.0940918 -0.0920317 -0.0895387 -0.0866718 -0.0834738 -0.07997 -0.0763089 -0.0718603 -0.0669066 -0.0614851 -0.0557835 -0.0501474 -0.0450335 -0.0408954 -0.0380398 -0.0365277 -0.0361765 -0.0366604 -0.0376408 -0.0388599 -0.0286426 -0.0285305 -0.0284916 -0.0285554 -0.0287619 -0.0291589 -0.0298002 -0.0307419 -0.0320404 -0.0337499 -0.0359205 -0.038589 -0.0414458 -0.0447929 -0.0487014 -0.05314 -0.0580295 -0.0632411 -0.0686045 -0.0739238 -0.0789989 -0.0836465 -0.0877176 -0.0911087 -0.0940017 -0.0958929 -0.0970122 -0.0973745 -0.0970222 -0.0960173 -0.0944337 -0.0923511 -0.0898477 -0.0869939 -0.0838476 -0.0804562 -0.0773186 -0.073159 -0.0685646 -0.0635172 -0.0581259 -0.0526558 -0.0475143 -0.043167 -0.0399962 -0.0381686 -0.0375874 -0.0379615 -0.0389408 -0.0402365 -0.0305174 -0.0303688 -0.03029 -0.0303082 -0.0304595 -0.030789 -0.0313477 -0.0321904 -0.0333732 -0.0349512 -0.0369756 -0.0394819 -0.0419371 -0.0451092 -0.0488426 -0.053115 -0.0578564 -0.0629466 -0.0682216 -0.073488 -0.0785442 -0.083201 -0.0872999 -0.0907254 -0.0936755 -0.0955863 -0.0967202 -0.0970862 -0.096723 -0.0956919 -0.0940701 -0.0919431 -0.0893975 -0.086515 -0.0833673 -0.0800254 -0.0773137 -0.0733395 -0.0690096 -0.0642719 -0.0591752 -0.0539099 -0.0488206 -0.0443543 -0.0409375 -0.0388271 -0.0380183 -0.0382715 -0.0392391 -0.040607 -0.0320658 -0.0318911 -0.0317797 -0.0317547 -0.0318478 -0.0320991 -0.0325561 -0.0332718 -0.0343027 -0.0357062 -0.0375375 -0.0398341 -0.041807 -0.0447567 -0.0482742 -0.0523476 -0.0569179 -0.0618743 -0.0670594 -0.072282 -0.0773373 -0.0820285 -0.0861849 -0.0896752 -0.0926814 -0.0946328 -0.0957978 -0.096179 -0.0958106 -0.0947526 -0.0930839 -0.090895 -0.0882799 -0.0853292 -0.0821266 -0.0787641 -0.0763903 -0.0724892 -0.0683063 -0.0637728 -0.0588967 -0.0538078 -0.0487875 -0.044247 -0.0406294 -0.0382611 -0.0372262 -0.0373484 -0.0382954 -0.039734 -0.0333111 -0.0331216 -0.0329861 -0.0329223 -0.0329556 -0.0331194 -0.033456 -0.0340164 -0.0348581 -0.0360431 -0.0376334 -0.0396729 -0.0410899 -0.0437732 -0.0470389 -0.050887 -0.0552698 -0.0600864 -0.0651852 -0.0703765 -0.0754512 -0.0802029 -0.0844472 -0.0880348 -0.0910882 -0.0931047 -0.0943207 -0.0947322 -0.0943685 -0.093287 -0.0915675 -0.0893036 -0.0865947 -0.0835384 -0.0802268 -0.0767685 -0.0746588 -0.0707133 -0.0665451 -0.0620809 -0.0573051 -0.0523035 -0.0473042 -0.0426775 -0.0388651 -0.0362423 -0.0349731 -0.0349504 -0.0358675 -0.0373783 -0.0342895 -0.0340973 -0.0339473 -0.0338505 -0.0338235 -0.0338911 -0.0340889 -0.0344648 -0.0350788 -0.0359997 -0.0373008 -0.0390365 -0.0398325 -0.0422095 -0.0451939 -0.0487977 -0.0529844 -0.0576615 -0.0626828 -0.0678584 -0.0729741 -0.0778129 -0.0821753 -0.0858933 -0.0889755 -0.0910838 -0.092374 -0.092835 -0.0924901 -0.0913936 -0.0896239 -0.0872762 -0.084453 -0.0812555 -0.0777806 -0.0741468 -0.0722381 -0.0681267 -0.0638301 -0.0592779 -0.0544446 -0.0493893 -0.0443009 -0.0395143 -0.0354629 -0.0325555 -0.031025 -0.0308336 -0.0317084 -0.0332947 -0.0350453 -0.0348637 -0.0347102 -0.034587 -0.0344995 -0.0344617 -0.0345007 -0.0346613 -0.0350072 -0.0356176 -0.0365814 -0.037969 -0.0380896 -0.0401265 -0.0428078 -0.046157 -0.0501472 -0.0546928 -0.0596505 -0.0648295 -0.0700092 -0.0749613 -0.079471 -0.0833518 -0.0864334 -0.0886621 -0.0900525 -0.0905857 -0.0902785 -0.0891799 -0.0873659 -0.0849303 -0.0819758 -0.0786041 -0.0749119 -0.0710196 -0.0692518 -0.0648481 -0.0602693 -0.0554526 -0.0503724 -0.0450769 -0.039732 -0.0346494 -0.0302571 -0.0269917 -0.0251447 -0.0247452 -0.0255583 -0.0272239 -0.0356275 -0.0354713 -0.0353265 -0.035184 -0.0350352 -0.0348805 -0.0347374 -0.0346484 -0.0346833 -0.0349362 -0.0355166 -0.0365161 -0.0359206 -0.037592 -0.039958 -0.0430524 -0.0468554 -0.0512852 -0.0561995 -0.0614043 -0.0666721 -0.0717633 -0.0764477 -0.0805221 -0.0835623 -0.0859399 -0.0874584 -0.0880896 -0.0878424 -0.0867594 -0.0849114 -0.0823886 -0.0792901 -0.0757139 -0.0717517 -0.0675159 -0.0658231 -0.0609944 -0.0559684 -0.0506913 -0.0451456 -0.0393814 -0.0335589 -0.0279825 -0.0230862 -0.0193377 -0.0170832 -0.0164138 -0.0171348 -0.0188822 -0.0360871 -0.0359743 -0.0358524 -0.0356972 -0.0