# vtk DataFile Version 2.0
Presion
ASCII

DATASET STRUCTURED_GRID
DIMENSIONS   50   50   20

POINTS   50000   double
0.00568455   0.00568455   0.025
0.0174023   0.00568455   0.025
0.0298294   0.00568455   0.025
0.0429888   0.00568455   0.025
0.0569012   0.00568455   0.025
0.0715849   0.00568455   0.025
0.0870549   0.00568455   0.025
0.103323   0.00568455   0.025
0.120395   0.00568455   0.025
0.138275   0.00568455   0.025
0.156961   0.00568455   0.025
0.176443   0.00568455   0.025
0.196707   0.00568455   0.025
0.217734   0.00568455   0.025
0.239496   0.00568455   0.025
0.261959   0.00568455   0.025
0.285082   0.00568455   0.025
0.308818   0.00568455   0.025
0.333113   0.00568455   0.025
0.357906   0.00568455   0.025
0.383132   0.00568455   0.025
0.408719   0.00568455   0.025
0.434592   0.00568455   0.025
0.460672   0.00568455   0.025
0.486877   0.00568455   0.025
0.513123   0.00568455   0.025
0.539328   0.00568455   0.025
0.565408   0.00568455   0.025
0.591281   0.00568455   0.025
0.616868   0.00568455   0.025
0.642094   0.00568455   0.025
0.666887   0.00568455   0.025
0.691182   0.00568455   0.025
0.714918   0.00568455   0.025
0.738041   0.00568455   0.025
0.760504   0.00568455   0.025
0.782266   0.00568455   0.025
0.803293   0.00568455   0.025
0.823557   0.00568455   0.025
0.843039   0.00568455   0.025
0.861725   0.00568455   0.025
0.879605   0.00568455   0.025
0.896677   0.00568455   0.025
0.912945   0.00568455   0.025
0.928415   0.00568455   0.025
0.943099   0.00568455   0.025
0.957011   0.00568455   0.025
0.970171   0.00568455   0.025
0.982598   0.00568455   0.025
0.994315   0.00568455   0.025
0.00568455   0.0174023   0.025
0.0174023   0.0174023   0.025
0.0298294   0.0174023   0.025
0.0429888   0.0174023   0.025
0.0569012   0.0174023   0.025
0.0715849   0.0174023   0.025
0.0870549   0.0174023   0.025
0.103323   0.0174023   0.025
0.120395   0.0174023   0.025
0.138275   0.0174023   0.025
0.156961   0.0174023   0.025
0.176443   0.0174023   0.025
0.196707   0.0174023   0.025
0.217734   0.0174023   0.025
0.239496   0.0174023   0.025
0.261959   0.0174023   0.025
0.285082   0.0174023   0.025
0.308818   0.0174023   0.025
0.333113   0.0174023   0.025
0.357906   0.0174023   0.025
0.383132   0.0174023   0.025
0.408719   0.0174023   0.025
0.434592   0.0174023   0.025
0.460672   0.0174023   0.025
0.486877   0.0174023   0.025
0.513123   0.0174023   0.025
0.539328   0.0174023   0.025
0.565408   0.0174023   0.025
0.591281   0.0174023   0.025
0.616868   0.0174023   0.025
0.642094   0.0174023   0.025
0.666887   0.0174023   0.025
0.691182   0.0174023   0.025
0.714918   0.0174023   0.025
0.738041   0.0174023   0.025
0.760504   0.0174023   0.025
0.782266   0.0174023   0.025
0.803293   0.0174023   0.025
0.823557   0.0174023   0.025
0.843039   0.0174023   0.025
0.861725   0.0174023   0.025
0.879605   0.0174023   0.025
0.896677   0.0174023   0.025
0.912945   0.0174023   0.025
0.928415   0.0174023   0.025
0.943099   0.0174023   0.025
0.957011   0.0174023   0.025
0.970171   0.0174023   0.025
0.982598   0.0174023   0.025
0.994315   0.0174023   0.025
0.00568455   0.0298294   0.025
0.0174023   0.0298294   0.025
0.0298294   0.0298294   0.025
0.0429888   0.0298294   0.025
0.0569012   0.0298294   0.025
0.0715849   0.0298294   0.025
0.0870549   0.0298294   0.025
0.103323   0.0298294   0.025
0.120395   0.0298294   0.025
0.138275   0.0298294   0.025
0.156961   0.0298294   0.025
0.176443   0.0298294   0.025
0.196707   0.0298294   0.025
0.217734   0.0298294   0.025
0.239496   0.0298294   0.025
0.261959   0.0298294   0.025
0.285082   0.0298294   0.025
0.308818   0.0298294   0.025
0.333113   0.0298294   0.025
0.357906   0.0298294   0.025
0.383132   0.0298294   0.025
0.408719   0.0298294   0.025
0.434592   0.0298294   0.025
0.460672   0.0298294   0.025
0.486877   0.0298294   0.025
0.513123   0.0298294   0.025
0.539328   0.0298294   0.025
0.565408   0.0298294   0.025
0.591281   0.0298294   0.025
0.616868   0.0298294   0.025
0.642094   0.0298294   0.025
0.666887   0.0298294   0.025
0.691182   0.0298294   0.025
0.714918   0.0298294   0.025
0.738041   0.0298294   0.025
0.760504   0.0298294   0.025
0.782266   0.0298294   0.025
0.803293   0.0298294   0.025
0.823557   0.0298294   0.025
0.843039   0.0298294   0.025
0.861725   0.0298294   0.025
0.879605   0.0298294   0.025
0.896677   0.0298294   0.025
0.912945   0.0298294   0.025
0.928415   0.0298294   0.025
0.943099   0.0298294   0.025
0.957011   0.0298294   0.025
0.970171   0.0298294   0.025
0.982598   0.0298294   0.025
0.994315   0.0298294   0.025
0.00568455   0.0429888   0.025
0.0174023   0.0429888   0.025
0.0298294   0.0429888   0.025
0.0429888   0.0429888   0.025
0.0569012   0.0429888   0.025
0.0715849   0.0429888   0.025
0.0870549   0.0429888   0.025
0.103323   0.0429888   0.025
0.120395   0.0429888   0.025
0.138275   0.0429888   0.025
0.156961   0.0429888   0.025
0.176443   0.0429888   0.025
0.196707   0.0429888   0.025
0.217734   0.0429888   0.025
0.239496   0.0429888   0.025
0.261959   0.0429888   0.025
0.285082   0.0429888   0.025
0.308818   0.0429888   0.025
0.333113   0.0429888   0.025
0.357906   0.0429888   0.025
0.383132   0.0429888   0.025
0.408719   0.0429888   0.025
0.434592   0.0429888   0.025
0.460672   0.0429888   0.025
0.486877   0.0429888   0.025
0.513123   0.0429888   0.025
0.539328   0.0429888   0.025
0.565408   0.0429888   0.025
0.591281   0.0429888   0.025
0.616868   0.0429888   0.025
0.642094   0.0429888   0.025
0.666887   0.0429888   0.025
0.691182   0.0429888   0.025
0.714918   0.0429888   0.025
0.738041   0.0429888   0.025
0.760504   0.0429888   0.025
0.782266   0.0429888   0.025
0.803293   0.0429888   0.025
0.823557   0.0429888   0.025
0.843039   0.0429888   0.025
0.861725   0.0429888   0.025
0.879605   0.0429888   0.025
0.896677   0.0429888   0.025
0.912945   0.0429888   0.025
0.928415   0.0429888   0.025
0.943099   0.0429888   0.025
0.957011   0.0429888   0.025
0.970171   0.0429888   0.025
0.982598   0.0429888   0.025
0.994315   0.0429888   0.025
0.00568455   0.0569012   0.025
0.0174023   0.0569012   0.025
0.0298294   0.0569012   0.025
0.0429888   0.0569012   0.025
0.0569012   0.0569012   0.025
0.0715849   0.0569012   0.025
0.0870549   0.0569012   0.025
0.103323   0.0569012   0.025
0.120395   0.0569012   0.025
0.138275   0.0569012   0.025
0.156961   0.0569012   0.025
0.176443   0.0569012   0.025
0.196707   0.0569012   0.025
0.217734   0.0569012   0.025
0.239496   0.0569012   0.025
0.261959   0.0569012   0.025
0.285082   0.0569012   0.025
0.308818   0.0569012   0.025
0.333113   0.0569012   0.025
0.357906   0.0569012   0.025
0.383132   0.0569012   0.025
0.408719   0.0569012   0.025
0.434592   0.0569012   0.025
0.460672   0.0569012   0.025
0.486877   0.0569012   0.025
0.513123   0.0569012   0.025
0.539328   0.0569012   0.025
0.565408   0.0569012   0.025
0.591281   0.0569012   0.025
0.616868   0.0569012   0.025
0.642094   0.0569012   0.025
0.666887   0.0569012   0.025
0.691182   0.0569012   0.025
0.714918   0.0569012   0.025
0.738041   0.0569012   0.025
0.760504   0.0569012   0.025
0.782266   0.0569012   0.025
0.803293   0.0569012   0.025
0.823557   0.0569012   0.025
0.843039   0.0569012   0.025
0.861725   0.0569012   0.025
0.879605   0.0569012   0.025
0.896677   0.0569012   0.025
0.912945   0.0569012   0.025
0.928415   0.0569012   0.025
0.943099   0.0569012   0.025
0.957011   0.0569012   0.025
0.970171   0.0569012   0.025
0.982598   0.0569012   0.025
0.994315   0.0569012   0.025
0.00568455   0.0715849   0.025
0.0174023   0.0715849   0.025
0.0298294   0.0715849   0.025
0.0429888   0.0715849   0.025
0.0569012   0.0715849   0.025
0.0715849   0.0715849   0.025
0.0870549   0.0715849   0.025
0.103323   0.0715849   0.025
0.120395   0.0715849   0.025
0.138275   0.0715849   0.025
0.156961   0.0715849   0.025
0.176443   0.0715849   0.025
0.196707   0.0715849   0.025
0.217734   0.0715849   0.025
0.239496   0.0715849   0.025
0.261959   0.0715849   0.025
0.285082   0.0715849   0.025
0.308818   0.0715849   0.025
0.333113   0.0715849   0.025
0.357906   0.0715849   0.025
0.383132   0.0715849   0.025
0.408719   0.0715849   0.025
0.434592   0.0715849   0.025
0.460672   0.0715849   0.025
0.486877   0.0715849   0.025
0.513123   0.0715849   0.025
0.539328   0.0715849   0.025
0.565408   0.0715849   0.025
0.591281   0.0715849   0.025
0.616868   0.0715849   0.025
0.642094   0.0715849   0.025
0.666887   0.0715849   0.025
0.691182   0.0715849   0.025
0.714918   0.0715849   0.025
0.738041   0.0715849   0.025
0.760504   0.0715849   0.025
0.782266   0.0715849   0.025
0.803293   0.0715849   0.025
0.823557   0.0715849   0.025
0.843039   0.0715849   0.025
0.861725   0.0715849   0.025
0.879605   0.0715849   0.025
0.896677   0.0715849   0.025
0.912945   0.0715849   0.025
0.928415   0.0715849   0.025
0.943099   0.0715849   0.025
0.957011   0.0715849   0.025
0.970171   0.0715849   0.025
0.982598   0.0715849   0.025
0.994315   0.0715849   0.025
0.00568455   0.0870549   0.025
0.0174023   0.0870549   0.025
0.0298294   0.0870549   0.025
0.0429888   0.0870549   0.025
0.0569012   0.0870549   0.025
0.0715849   0.0870549   0.025
0.0870549   0.0870549   0.025
0.103323   0.0870549   0.025
0.120395   0.0870549   0.025
0.138275   0.0870549   0.025
0.156961   0.0870549   0.025
0.176443   0.0870549   0.025
0.196707   0.0870549   0.025
0.217734   0.0870549   0.025
0.239496   0.0870549   0.025
0.261959   0.0870549   0.025
0.285082   0.0870549   0.025
0.308818   0.0870549   0.025
0.333113   0.0870549   0.025
0.357906   0.0870549   0.025
0.383132   0.0870549   0.025
0.408719   0.0870549   0.025
0.434592   0.0870549   0.025
0.460672   0.0870549   0.025
0.486877   0.0870549   0.025
0.513123   0.0870549   0.025
0.539328   0.0870549   0.025
0.565408   0.0870549   0.025
0.591281   0.0870549   0.025
0.616868   0.0870549   0.025
0.642094   0.0870549   0.025
0.666887   0.0870549   0.025
0.691182   0.0870549   0.025
0.714918   0.0870549   0.025
0.738041   0.0870549   0.025
0.760504   0.0870549   0.025
0.782266   0.0870549   0.025
[...]
POINT_DATA   50000
SCALARS Presion double
LOOKUP_TABLE   Presion

0 0 0 0 0 0 0 0 0 0 0 0 0 0 0 0 0 0 0 0 0 0 0 0 0 0 0 0 0 0 0 0 0 0 0 0 0 0 0 0 0 0 0 0 0 0 0 0 0 0 0.00166251 0.00180997 0.00198797 0.00211672 0.00218171 0.00218409 0.00212844 0.0020199 0.00186334 0.00166302 0.00142234 0.00114304 0.000683241 0.000403946 0.000154666 -6.25303e-05 -0.000242519 -0.000376893 -0.000455843 -0.000470557 -0.000415661 -0.000291239 -0.000103802 0.000134028 0.000385009 0.000634957 0.000850127 0.00100355 0.00107373 0.0010468 0.000918101 0.000692837 0.000385757 1.99897e-05 -0.00037483 -0.000763925 -0.00101268 -0.00137488 -0.00171201 -0.00200656 -0.00224807 -0.00243085 -0.00255198 -0.00261004 -0.00260424 -0.00253411 -0.00239969 -0.0022045 -0.00196898 -0.00178579 0.00218231 0.00217119 0.00222121 0.00227212 0.00229418 0.00227512 0.00221121 0.00210275 0.00195194 0.00176201 0.00153732 0.00128188 0.00076107 0.000508428 0.000273075 6.21879e-05 -0.00011683 -0.000254916 -0.000342315 -0.000370467 -0.00033413 -0.000233224 -7.38267e-05 0.000130345 0.000353423 0.000572041 0.000758155 0.000886236 0.00093598 0.00089436 0.000757164 0.000529583 0.000225729 -0.000132894 -0.000520032 -0.000905539 -0.00108243 -0.00144167 -0.00176792 -0.00204973 -0.00227989 -0.00245465 -0.00257272 -0.0026346 -0.00264237 -0.00260031 -0.00251687 -0.00240942 -0.00231413 -0.00230056 0.0025346 0.00248466 0.00247008 0.00246471 0.00244701 0.00240335 0.00232656 0.00221384 0.00206527 0.001883 0.00167148 0.001434 0.000843531 0.000613355 0.000390402 0.000183893 2.73043e-06 -0.000143363 -0.000244405 -0.00029164 -0.000279387 -0.00020678 -7.8986e-05 8.90929e-05 0.000288923 0.000482196 0.000646777 0.000758052 0.000795807 0.000746581 0.000605477 0.000376922 7.41506e-05 -0.000282635 -0.000669428 -0.00105757 -0.00115859 -0.00152 -0.00184092 -0.00211469 -0.00233747 -0.00250792 -0.00262665 -0.00269609 -0.00272063 -0.00270735 -0.00266757 -0.00261905 -0.00258772 -0.00260458 0.0028278 0.0027681 0.00272162 0.00267958 0.00263028 0.00256355 0.00247231 0.00235264 0.00220335 0.00202565 0.00182357 0.00159846 0.000933048 0.000719153 0.000504363 0.000298062 0.000109753 -5.03819e-05 -0.000171931 -0.000245481 -0.00026426 -0.000225849 -0.00013373 -3.26998e-06 0.000175242 0.000349283 0.000500116 0.000603719 0.000638996 0.000590828 0.000452452 0.00022663 -7.4734e-05 -0.000432597 -0.000824239 -0.0012204 -0.00124557 -0.00161317 -0.00193323 -0.00220313 -0.00242235 -0.00259194 -0.00271433 -0.00279343 -0.0028348 -0.00284609 -0.00283751 -0.00282195 -0.00281362 -0.00282365 0.0031114 0.00304339 0.00297704 0.00291 0.00283649 0.00274993 0.00264462 0.00251665 0.00236421 0.00218777 0.00199065 0.00177171 0.001029 0.000823584 0.000610089 0.000397155 0.000194175 1.15485e-05 -0.000139719 -0.000249068 -0.000307894 -0.000311328 -0.000260121 -0.000168952 -1.16495e-05 0.000148571 0.000293394 0.000399154 0.000442987 0.000406905 0.000280984 6.51676e-05 -0.000230746 -0.000589061 -0.000987752 -0.00139547 -0.00134829 -0.00172478 -0.00204705 -0.00231642 -0.00253545 -0.00270724 -0.00283563 -0.00292534 -0.00298207 -0.00301259 -0.00302459 -0.00302611 -0.00302417 -0.00302239 0.00340515 0.00332342 0.00323941 0.00315248 0.00305956 0.00295621 0.00283792 0.00270102 0.0025433 0.00236452 0.0021671 0.00194709 0.00112721 0.000920709 0.000698904 0.000469389 0.000241019 2.42462e-05 -0.000169136 -0.000326882 -0.00043775 -0.000493397 -0.000490608 -0.000442016 -0.000305815 -0.000155882 -9.85849e-06 0.000108649 0.000174153 0.000164544 6.52327e-05 -0.000128173 -0.000409225 -0.000762253 -0.00116584 -0.00158557 -0.00147316 -0.00185886 -0.00218445 -0.00245545 -0.00267704 -0.00285379 -0.00299025 -0.00309123 -0.00316191 -0.00320765 -0.00323376 -0.00324503 -0.00324502 -0.00323517 0.00371314 0.00361153 0.00350819 0.00340269 0.00329271 0.00317461 0.00304428 0.00289789 0.00273266 0.00254742 0.00234344 0.00211376 0.00121889 0.00099959 0.000756869 0.000497242 0.000228854 -3.78089e-05 -0.000289885 -0.000512848 -0.000691945 -0.000814262 -0.00087127 -0.000872105 -0.000754354 -0.000614582 -0.000461421 -0.000318903 -0.000215985 -0.000180255 -0.00023276 -0.000384229 -0.000633435 -0.000968084 -0.00136793 -0.00179516 -0.00162913 -0.00202035 -0.00234749 -0.00262068 -0.00284693 -0.00303125 -0.00317803 -0.00329151 -0.00337589 -0.00343515 -0.00347287 -0.00349203 -0.00349477 -0.00348226 0.00402959 0.00390266 0.00377725 0.00365265 0.00352635 0.00339447 0.00325238 0.0030955 0.00291993 0.00272321 0.00250505 0.00225538 0.00128911 0.00104276 0.000763139 0.000455756 0.000128057 -0.000209296 -0.000541984 -0.000852536 -0.00112177 -0.00133107 -0.00146522 -0.00152833 -0.00142112 -0.00129663 -0.00113278 -0.000954747 -0.000795742 -0.000690277 -0.00066797 -0.00074847 -0.000938416 -0.00123113 -0.00160898 -0.00203123 -0.00182945 -0.00221601 -0.0025388 -0.00281258 -0.00304475 -0.00323932 -0.0033993 -0.00352761 -0.00362716 -0.00370064 -0.00375049 -0.00377877 -0.0037872 -0.00377718 0.00434057 0.00418392 0.00403377 0.00388895 0.00374619 0.00360056 0.00344616 0.00327689 0.00308714 0.00287259 0.00263093 0.00234886 0.00131525 0.00102459 0.000688264 0.000310802 -0.00010094 -0.000535846 -0.000977649 -0.00140521 -0.00179396 -0.00211844 -0.00235545 -0.0025024 -0.00239077 -0.00229391 -0.00211982 -0.00189549 -0.00165905 -0.00145333 -0.00131885 -0.00128733 -0.00137679 -0.00158952 -0.00191306 -0.00230563 -0.00209467 -0.00245643 -0.00276294 -0.00303266 -0.0032709 -0.00347841 -0.00365526 -0.00380207 -0.00392001 -0.00401053 -0.00407519 -0.00411559 -0.0041334 -0.00413041 0.0046242 0.00443456 0.00425759 0.00409146 0.00393166 0.00377162 0.00360342 0.00341873 0.00320956 0.00296912 0.00269249 0.00236315 0.00126535 0.000909773 0.000492701 1.76181e-05 -0.000509054 -0.00107539 -0.00166259 -0.00224507 -0.0027919 -0.00326963 -0.00364589 -0.00390934 -0.00377223 -0.0037243 -0.0035463 -0.00326738 -0.00293073 -0.00258857 -0.0022946 -0.00209605 -0.00202669 -0.0021023 -0.00231962 -0.00263977 -0.00245754 -0.00275957 -0.0030293 -0.00328573 -0.0035281 -0.00375075 -0.00394868 -0.00411886 -0.00426001 -0.00437207 -0.00445574 -0.00451231 -0.00454352 -0.00455148 0.00485031 0.00462567 0.00442062 0.00423243 0.0040549 0.00387918 0.0036947 0.00349021 0.00325471 0.00297828 0.00265279 0.00225849 0.00109712 0.000652365 0.000125936 -0.000479919 -0.00115908 -0.00189841 -0.00267594 -0.00346076 -0.00421456 -0.00489472 -0.00545858 -0.00588353 -0.0056992 -0.00573125 -0.00556355 -0.00522669 -0.0047683 -0.00425024 -0.00374097 -0.00330647 -0.00300095 -0.00285935 -0.00289323 -0.00307359 -0.00297044 -0.0031569 -0.00335695 -0.00358358 -0.00382413 -0.00406234 -0.00428524 -0.00448426 -0.00465455 -0.0047939 -0.00490192 -0.00497946 -0.00502827 -0.00505078 0.00498032 0.00472009 0.00448671 0.00427618 0.00408017 0.00388695 0.00368269 0.00345258 0.00318199 0.00285727 0.0024664 0.00198647 0.000757684 0.000195806 -0.000473202 -0.00124863 -0.00212456 -0.00308616 -0.0041076 -0.00515166 -0.00617144 -0.00711389 -0.0079249 -0.00856736 -0.00832462 -0.00847642 -0.00834224 -0.00795195 -0.00735583 -0.00662419 -0.00584034 -0.00509099 -0.00445498 -0.00399245 -0.00373687 -0.00368008 -0.00371487 -0.00370217 -0.00378195 -0.00395051 -0.00417576 -0.00442561 -0.00467533 -0.00490816 -0.00511388 -0.00528706 -0.00542558 -0.00552952 -0.00560049 -0.00564113 0.00496782 0.00467304 0.00441216 0.00417959 0.00396432 0.00375124 0.00352263 0.00325962 0.00294333 0.00255579 0.00208047 0.00149124 0.000184905 -0.00052538 -0.00137436 -0.00236321 -0.00348605 -0.00472586 -0.00605199 -0.00741972 -0.00877211 -0.0100441 -0.0111689 -0.0120911 -0.0118047 -0.012121 -0.012052 -0.0116232 -0.0108845 -0.00991134 -0.00879976 -0.00765663 -0.00658761 -0.00568323 -0.00500651 -0.00458542 -0.00481069 -0.00448158 -0.00436598 -0.00442972 -0.00461324 -0.00486256 -0.00513626 -0.00540562 -0.00565237 -0.00586607 -0.00604175 -0.00617815 -0.0062764 -0.0063392 0.00476022 0.00443375 0.00414744 0.00389369 0.00365838 0.00342251 0.003164 0.0028594 0.00248513 0.00201832 0.00143733 0.000712629 -0.000689207 -0.00158159 -0.0026509 -0.00390045 -0.00532412 -0.0069019 -0.0085971 -0.0103559 -0.0121095 -0.0137791 -0.0152835 -0.0165451 -0.0162701 -0.0167939 -0.016827 -0.016386 -0.0155162 -0.0142933 -0.0128208 -0.0112216 -0.00962684 -0.00815976 -0.00691967 -0.00598908 -0.00641834 -0.00562095 -0.0052034 -0.00508917 -0.00518469 -0.00540776 -0.00569424 -0.00599824 -0.00628947 -0.00654974 -0.00676948 -0.00694503 -0.00707649 -0.00716641 0.00430192 0.00394858 0.00364015 0.00336669 0.00311056 0.00284849 0.00255371 0.00219778 0.00175201 0.00118817 0.000478977 -0.000408878 -0.00193251 -0.00304143 -0.0043722 -0.00593027 -0.00770865 -0.00968313 -0.0118093 -0.0140222 -0.0162389 -0.0183647 -0.0203025 -0.0219496 -0.0217856 -0.0225498 -0.0227213 -0.0223042 -0.0213343 -0.0198818 -0.0180498 -0.0159699 -0.0137922 -0.0116706 -0.00974419 -0.00816848 -0.00872457 -0.00728225 -0.00642238 -0.00602439 -0.00595902 -0.00611079 -0.00638609 -0.00671522 -0.00705041 -0.00736164 -0.00763208 -0.00785402 -0.00802568 -0.00814901 0.00353888 0.00316549 0.00283954 0.00254844 0.00227082 0.0019789 0.00164098 0.00122344 0.000692184 1.33109e-05 -0.000846532 -0.00192499 -0.00360412 -0.00496231 -0.00659318 -0.00850386 -0.0106853 -0.0131074 -0.0157158 -0.0184318 -0.021156 -0.023776 -0.0261772 -0.0282318 -0.0283093 -0.0293291 -0.0296674 -0.0293144 -0.0282932 -0.0266628 -0.0245179 -0.0219881 -0.0192323 -0.0164274 -0.0137509 -0.0114437 -0.0119053 -0.0096435 -0.00817629 -0.00735652 -0.00702686 -0.00703772 -0.00726038 -0.00759398 -0.00796625 -0.00832983 -0.0086567 -0.00893263 -0.00915256 -0.00931715 0.0024246 0.00203985 0.00170218 0.00139621 0.00109672 0.000771391 0.000383562 -0.0001056 -0.000735695 -0.00154643 -0.00257738 -0.00387114 -0.00574401 -0.00737933 -0.00934235 -0.0116407 -0.0142617 -0.0171668 -0.020289 -0.0235333 -0.026782 -0.0299036 -0.0327658 -0.0352187 -0.0356673 -0.0369363 -0.0374558 -0.0372038 -0.0361901 -0.0344591 -0.0320912 -0.0292038 -0.0259519 -0.022523 -0.0191254 -0.0160847 -0.0160734 -0.0128629 -0.0106245 -0.00922437 -0.0084985 -0.00827142 -0.00837814 -0.00868041 -0.00907367 -0.00948611 -0.00987318 -0.0102105 -0.0104877 -0.0107029 0.000926704 0.000540852 0.000198376 -0.000118961 -0.000440132 -0.000801825 -0.00124548 -0.00181497 -0.00255525 -0.0035117 -0.00472995 -0.00625801 -0.00836235 -0.0102945 -0.0126106 -0.0153174 -0.0183959 -0.0217968 -0.0254376 -0.0292049 -0.0329612 -0.0365565 -0.0398422 -0.0426537 -0.0435629 -0.0450548 -0.0457527 -0.0456269 -0.0446771 -0.0429341 -0.040461 -0.0373561 -0.0337592 -0.0298535 -0.0258642 -0.0221811 -0.0212357 -0.0170382 -0.0139048 -0.0117689 -0.0104969 -0.0099091 -0.0098122 -0.0100285 -0.010414 -0.0108646 -0.0113122 -0.0117173 -0.012061 -0.0123374 -0.000966673 -0.00134229 -0.00168179 -0.00200618 -0.00234791 -0.00274771 -0.00325137 -0.00390742 -0.00476572 -0.00587692 -0.00729209 -0.00906473 -0.0114312 -0.0136684 -0.0163441 -0.0194611 -0.0229924 -0.026875 -0.0310089 -0.0352609 -0.0394744 -0.0434828 -0.047125 -0.0502308 -0.0516232 -0.0532979 -0.054155 -0.054164 -0.0533203 -0.0516454 -0.0491868 -0.0460221 -0.0422678 -0.0380897 -0.0337103 -0.0295444 -0.0272792 -0.0221742 -0.0181003 -0.0151085 -0.0131425 -0.0120546 -0.0116434 -0.0116979 -0.0120314 -0.0124994 -0.0130024 -0.0134794 -0.0138984 -0.0142473 -0.00324205 -0.0035957 -0.00392385 -0.00425011 -0.00461002 -0.0050478 -0.00561303 -0.00635825 -0.00733756 -0.00860606 -0.0102193 -0.0122357 -0.0148812 -0.0174183 -0.0204425 -0.0239512 -0.0279063 -0.0322297 -0.0368027 -0.0414731 -0.0460665 -0.050404 -0.0543173 -0.0576397 -0.0594696 -0.0612807 -0.062266 -0.0624011 -0.0616837 -0.0601325 -0.0577845 -0.054699 -0.0509675 -0.046728 -0.0421807 -0.0377153 -0.0339884 -0.0281658 -0.0232068 -0.0193066 -0.016529 -0.0148024 -0.0139513 -0.0137487 -0.0139685 -0.0144209 -0.0149666 -0.0155155 -0.0160172 -0.0164495 -0.00585835 -0.00617864 -0.0064869 -0.00680902 -0.00718318 -0.00765644 -0.00828145 -0.00911395 -0.0102114 -0.0116322 -0.0134351 -0.0156822 -0.0186038 -0.0214216 -0.0247664 -0.028628 -0.0329565 -0.0376575 -0.0425945 -0.0475976 -0.052479 -0.0570514 -0.0611458 -0.0646059 -0.066782 -0.0686835 -0.0697607 -0.0699997 -0.0694067 -0.0680031 -0.0658218 -0.0629097 -0.0593359 -0.0552064 -0.0506834 -0.0460878 -0.0410747 -0.0347962 -0.0291074 -0.0243373 -0.0206912 -0.0182143 -0.0167983 -0.0162306 -0.0162593 -0.0166496 -0.017216 -0.0178315 -0.0184203 -0.018946 -0.00874816 -0.00902486 -0.00930491 -0.0096162 -0.009999 -0.0105026 -0.0111818 -0.0120946 -0.0133009 -0.0148612 -0.0168359 -0.0192888 -0.0224609 -0.0255269 -0.0291491 -0.0333091 -0.0379444 -0.0429455 -0.0481598 -0.0534034 -0.058479 -0.0631962 -0.0673893 -0.0709172 -0.0733351 -0.0752865 -0.0764198 -0.0767342 -0.076247 -0.0749862 -0.0729864 -0.0702883 -0.0669446 -0.0630315 -0.0586663 -0.0540771 -0.048207 -0.0417542 -0.0355669 -0.0300613 -0.0255744 -0.0222899 -0.0202076 -0.0191678 -0.018918 -0.0191878 -0.0197432 -0.0204132 -0.0210896 -0.0217166 -0.0118226 -0.0120473 -0.0122916 -0.0125849 -0.0129691 -0.013495 -0.014219 -0.0152004 -0.0165001 -0.0181796 -0.0202996 -0.0229234 -0.0262979 -0.0295686 -0.0334139 -0.0378069 -0.0426739 -0.0478923 -0.0532967 -0.0586932 -0.063879 -0.0686645 -0.0728906 -0.076432 -0.0790014 -0.0809702 -0.0821296 -0.0824909 -0.0820822 -0.0809402 -0.0791044 -0.0766155 -0.0735166 -0.0698609 -0.0657241 -0.0612428 -0.0550446 -0.0486719 -0.0422523 -0.0362242 -0.0310152 -0.0269428 -0.02414 -0.0225405 -0.021926 -0.0220095 -0.0225138 -0.0232192 -0.0239791 -0.0247122 -0.014979 -0.0151459 -0.015348 -0.0156162 -0.0159934 -0.0165312 -0.0172869 -0.0183203 -0.0196926 -0.0214649 -0.0236967 -0.0264489 -0.0299587 -0.0333827 -0.0373897 -0.0419458 -0.046968 -0.0523239 -0.0578391 -0.0633136 -0.0685428 -0.0733401 -0.0775538 -0.0810728 -0.0837308 -0.0856941 -0.0868577 -0.0872417 -0.0868834 -0.0858276 -0.0841205 -0.0818066 -0.0789266 -0.0755199 -0.0716313 -0.0673261 -0.061274 -0.0551762 -0.0487805 -0.0424842 -0.0367475 -0.0319888 -0.0284771 -0.026269 -0.0252184 -0.0250507 -0.0254582 -0.0261743 -0.0270085 -0.0278489 -0.0181111 -0.018217 -0.0183723 -0.0186086 -0.0189693 -0.0195067 -0.0202781 -0.0213432 -0.0227627 -0.0245963 -0.0269017 -0.0297353 -0.0332988 -0.0368202 -0.0409254 -0.0455752 -0.0506806 -0.0561029 -0.0616628 -0.0671575 -0.0723831 -0.0771566 -0.0813328 -0.0848113 -0.0875232 -0.0894677 -0.0906221 -0.0910115 -0.0906793 -0.089677 -0.0880578 -0.0858723 -0.0831643 -0.079969 -0.0763142 -0.072222 -0.0666434 -0.0609418 -0.0547771 -0.0484625 -0.0424332 -0.0371576 -0.0330181 -0.0302044 -0.0286749 -0.0282012 -0.0284668 -0.0291651 -0.0300601 -0.0310053 -0.0211184 -0.0211633 -0.0212689 -0.0214673 -0.0218021 -0.0223254 -0.0230942 -0.0241678 -0.0256056 -0.0274658 -0.0298032 -0.0326693 -0.0361961 -0.0397575 -0.0438981 -0.0485765 -0.0537009 -0.0591304 -0.064684 -0.0701591 -0.0753532 -0.0800863 -0.0842175 -0.0876526 -0.0904052 -0.0923264 -0.093466 -0.0938505 -0.0935261 -0.0925493 -0.0909798 -0.0888755 -0.0862868 -0.0832525 -0.079797 -0.0759255 -0.0709835 -0.0657268 -0.0599288 -0.0538013 -0.0477116 -0.042125 -0.0374948 -0.0341325 -0.0321188 -0.0313034 -0.0313878 -0.0320391 -0.0329791 -0.0340233 -0.0239155 -0.023902 -0.0239572 -0.0241131 -0.0244129 -0.0249079 -0.0256545 -0.0267111 -0.028136 -0.0299854 -0.0323117 -0.0351607 -0.038557 -0.0421013 -0.046218 -0.0508661 -0.0559549 -0.0613444 -0.0668553 -0.0722866 -0.0774374 -0.0821291 -0.0862215 -0.0896222 -0.0924154 -0.094316 -0.0954417 -0.0958168 -0.0954883 -0.0945155 -0.0929639 -0.090899 -0.08838 -0.0854544 -0.0821528 -0.0784844 -0.0742093 -0.0693854 -0.0640136 -0.0582092 -0.0522505 -0.0465561 -0.0416021 -0.0377911 -0.0353258 -0.0341566 -0.034031 -0.0346093 -0.0355773 -0.036713 -0.0264376 -0.0263711 -0.0263774 -0.0264878 -0.0267443 -0.027197 -0.0279011 -0.028914 -0.0302929 -0.0320925 -0.0343636 -0.0371465 -0.0403184 -0.0437906 -0.0478283 -0.0523942 -0.0574018 -0.0627155 -0.0681596 -0.0735357 -0.0786438 -0.0833042 -0.0873741 -0.0907579 -0.0935975 -0.0954863 -0.0966039 -0.0969702 -0.0966308 -0.0956469 -0.0940886 -0.0920287 -0.089536 -0.0866694 -0.0834717 -0.0799682 -0.0763075 -0.0718591 -0.0669058 -0.0614845 -0.0557831 -0.0501473 -0.0450336 -0.0408956 -0.0380402 -0.0365282 -0.036177 -0.0366609 -0.0376412 -0.0388603 -0.0286442 -0.028532 -0.0284931 -0.0285569 -0.0287634 -0.0291605 -0.0298018 -0.0307435 -0.0320421 -0.0337517 -0.0359224 -0.038591 -0.0414477 -0.0447949 -0.0487033 -0.0531418 -0.0580311 -0.0632424 -0.0686053 -0.073924 -0.0789985 -0.0836455 -0.087716 -0.0911065 -0.093999 -0.0958898 -0.0970088 -0.0973709 -0.0970186 -0.0960138 -0.0944304 -0.092348 -0.0898448 -0.0869914 -0.0838454 -0.0804543 -0.077317 -0.0731577 -0.0685636 -0.0635164 -0.0581254 -0.0526555 -0.0475143 -0.0431671 -0.0399964 -0.0381689 -0.0375877 -0.0379619 -0.0389412 -0.0402369 -0.0305189 -0.0303703 -0.0302915 -0.0303096 -0.030461 -0.0307905 -0.0313492 -0.0321919 -0.0333748 -0.0349528 -0.0369773 -0.0394837 -0.0419389 -0.045111 -0.0488444 -0.0531167 -0.0578579 -0.0629478 -0.0682222 -0.0734882 -0.0785437 -0.0832 -0.0872983 -0.0907231 -0.0936728 -0.0955831 -0.0967168 -0.0970826 -0.0967193 -0.0956884 -0.0940667 -0.0919399 -0.0893946 -0.0865124 -0.0833651 -0.0800235 -0.0773121 -0.0733382 -0.0690086 -0.0642711 -0.0591746 -0.0539095 -0.0488204 -0.0443543 -0.0409377 -0.0388274 -0.0380186 -0.0382718 -0.0392394 -0.0406073 -0.0320673 -0.0318926 -0.0317811 -0.0317561 -0.0318493 -0.0321006 -0.0325575 -0.0332732 -0.0343042 -0.0357078 -0.0375391 -0.0398358 -0.0418087 -0.0447585 -0.0482759 -0.0523492 -0.0569192 -0.0618754 -0.06706 -0.0722821 -0.0773369 -0.0820274 -0.0861832 -0.089673 -0.0926787 -0.0946297 -0.0957945 -0.0961754 -0.095807 -0.0947491 -0.0930806 -0.0908919 -0.0882771 -0.0853267 -0.0821244 -0.0787622 -0.0763888 -0.072488 -0.0683053 -0.063772 -0.0588961 -0.0538074 -0.0487872 -0.0442469 -0.0406295 -0.0382612 -0.0372264 -0.0373486 -0.0382956 -0.0397342 -0.0333126 -0.033123 -0.0329874 -0.0329237 -0.0329569 -0.0331207 -0.0334574 -0.0340178 -0.0348595 -0.0360445 -0.037635 -0.0396744 -0.0410915 -0.0437748 -0.0470405 -0.0508885 -0.0552711 -0.0600874 -0.0651859 -0.0703766 -0.0754508 -0.0802019 -0.0844456 -0.0880327 -0.0910857 -0.0931017 -0.0943174 -0.0947288 -0.094365 -0.0932836 -0.0915642 -0.0893006 -0.086592 -0.083536 -0.0802248 -0.0767667 -0.0746574 -0.0707121 -0.0665442 -0.0620802 -0.0573045 -0.0523031 -0.047304 -0.0426774 -0.0388652 -0.0362424 -0.0349733 -0.0349506 -0.0358677 -0.0373785 -0.0342908 -0.0340986 -0.0339486 -0.0338518 -0.0338248 -0.0338923 -0.0340901 -0.0344661 -0.0350801 -0.0360011 -0.0373022 -0.0390379 -0.039834 -0.042211 -0.0451954 -0.0487991 -0.0529856 -0.0576626 -0.0626835 -0.0678586 -0.0729738 -0.0778121 -0.0821739 -0.0858913 -0.0889732 -0.0910811 -0.092371 -0.0928318 -0.0924869 -0.0913904 -0.0896209 -0.0872734 -0.0844505 -0.0812533 -0.0777788 -0.0741453 -0.0722368 -0.0681257 -0.0638293 -0.0592773 -0.0544441 -0.049389 -0.0443007 -0.0395143 -0.0354629 -0.0325556 -0.0310251 -0.0308338 -0.0317086 -0.0332949 -0.0350466 -0.0348649 -0.0347114 -0.0345882 -0.0345007 -0.0344629 -0.0345019 -0.0346625 -0.0350084 -0.0356189 -0.0365827 -0.0379703 -0.038091 -0.0401279 -0.0428092 -0.0461584 -0.0501484 -0.0546938 -0.0596513 -0.0648299 -0.0700091 -0.0749607 -0.0794698 -0.0833501 -0.0864314 -0.0886596 -0.0900498 -0.0905828 -0.0902755 -0.089177 -0.0873631 -0.0849278 -0.0819736 -0.0786021 -0.0749103 -0.0710183 -0.0692508 -0.0648472 -0.0602687 -0.0554521 -0.0503721 -0.0450767 -0.0397319 -0.0346494 -0.0302572 -0.0269918 -0.0251449 -0.0247454 -0.0255585 -0.0272241 -0.0356287 -0.0354725 -0.0353277 -0.0351851 -0.0350363 -0.0348816 -0.0347385 -0.0346495 -0.0346844 -0.0349374 -0.0355178 -0.0365173 -0.0359218 -0.0375932 -0.0399593 -0.0430538 -0.0468566 -0.0512863 -0.0562003 -0.0614048 -0.0666722 -0.0717629 -0.0764468 -0.0805206 -0.0835605 -0.0859378 -0.087456 -0.0880871 -0.0878397 -0.0867568 -0.0849089 -0.0823864 -0.0792882 -0.0757122 -0.0717504 -0.0675149 -0.0658222 -0.0609938 -0.055968 -0.050691 -0.0451455 -0.0393814 -0.033559 -0.0279825 -0.0230863 -0.0193379 -0.0170835 -0.0164141 -0.017135 -0.0188825 -0.0360882 -0.0359754 -0.0358534 -0.0356982 -0.0354843 -0.03519