# vtk DataFile Version 2.0
Velocidades
ASCII

DATASET STRUCTURED_GRID
DIMENSIONS   50   50   20

POINTS   50000   double
0.00568455   0.00568455   0.025
0.0174023   0.00568455   0.025
0.0298294   0.00568455   0.025
0.0429888   0.00568455   0.025
0.0569012   0.00568455   0.025
0.0715849   0.00568455   0.025
0.0870549   0.00568455   0.025
0.103323   0.00568455   0.025
0.120395   0.00568455   0.025
0.138275   0.00568455   0.025
0.156961   0.00568455   0.025
0.176443   0.00568455   0.025
0.196707   0.00568455   0.025
0.217734   0.00568455   0.025
0.239496   0.00568455   0.025
0.261959   0.00568455   0.025
0.285082   0.00568455   0.025
0.308818   0.00568455   0.025
0.333113   0.00568455   0.025
0.357906   0.00568455   0.025
0.383132   0.00568455   0.025
0.408719   0.00568455   0.025
0.434592   0.00568455   0.025
0.460672   0.00568455   0.025
0.486877   0.00568455   0.025
0.513123   0.00568455   0.025
0.539328   0.00568455   0.025
0.565408   0.00568455   0.025
0.591281   0.00568455   0.025
0.616868   0.00568455   0.025
0.642094   0.00568455   0.025
0.666887   0.00568455   0.025
0.691182   0.00568455   0.025
0.714918   0.00568455   0.025
0.738041   0.00568455   0.025
0.760504   0.00568455   0.025
0.782266   0.00568455   0.025
0.803293   0.00568455   0.025
0.823557   0.00568455   0.025
0.843039   0.00568455   0.025
0.861725   0.00568455   0.025
0.879605   0.00568455   0.025
0.896677   0.00568455   0.025
0.912945   0.00568455   0.025
0.928415   0.00568455   0.025
0.943099   0.00568455   0.025
0.957011   0.00568455   0.025
0.970171   0.00568455   0.025
0.982598   0.00568455   0.025
0.994315   0.00568455   0.025
0.00568455   0.0174023   0.025
0.0174023   0.0174023   0.025
0.0298294   0.0174023   0.025
0.0429888   0.0174023   0.025
0.0569012   0.0174023   0.025
0.0715849   0.0174023   0.025
0.0870549   0.0174023   0.025
0.103323   0.0174023   0.025
0.120395   0.0174023   0.025
0.138275   0.0174023   0.025
0.156961   0.0174023   0.025
0.176443   0.0174023   0.025
0.196707   0.0174023   0.025
0.217734   0.0174023   0.025
0.239496   0.0174023   0.025
0.261959   0.0174023   0.025
0.285082   0.0174023   0.025
0.308818   0.0174023   0.025
0.333113   0.0174023   0.025
0.357906   0.0174023   0.025
0.383132   0.0174023   0.025
0.408719   0.0174023   0.025
0.434592   0.0174023   0.025
0.460672   0.0174023   0.025
0.486877   0.0174023   0.025
0.513123   0.0174023   0.025
0.539328   0.0174023   0.025
0.565408   0.0174023   0.025
0.591281   0.0174023   0.025
0.616868   0.0174023   0.025
0.642094   0.0174023   0.025
0.666887   0.0174023   0.025
0.691182   0.0174023   0.025
0.714918   0.0174023   0.025
0.738041   0.0174023   0.025
0.760504   0.0174023   0.025
0.782266   0.0174023   0.025
0.803293   0.0174023   0.025
0.823557   0.0174023   0.025
0.843039   0.0174023   0.025
0.861725   0.0174023   0.025
0.879605   0.0174023   0.025
0.896677   0.0174023   0.025
0.912945   0.0174023   0.025
0.928415   0.0174023   0.025
0.943099   0.0174023   0.025
0.957011   0.0174023   0.025
0.970171   0.0174023   0.025
0.982598   0.0174023   0.025
0.994315   0.0174023   0.025
0.00568455   0.0298294   0.025
0.0174023   0.0298294   0.025
0.0298294   0.0298294   0.025
0.0429888   0.0298294   0.025
0.0569012   0.0298294   0.025
0.0715849   0.0298294   0.025
0.0870549   0.0298294   0.025
0.103323   0.0298294   0.025
0.120395   0.0298294   0.025
0.138275   0.0298294   0.025
0.156961   0.0298294   0.025
0.176443   0.0298294   0.025
0.196707   0.0298294   0.025
0.217734   0.0298294   0.025
0.239496   0.0298294   0.025
0.261959   0.0298294   0.025
0.285082   0.0298294   0.025
0.308818   0.0298294   0.025
0.333113   0.0298294   0.025
0.357906   0.0298294   0.025
0.383132   0.0298294   0.025
0.408719   0.0298294   0.025
0.434592   0.0298294   0.025
0.460672   0.0298294   0.025
0.486877   0.0298294   0.025
0.513123   0.0298294   0.025
0.539328   0.0298294   0.025
0.565408   0.0298294   0.025
0.591281   0.0298294   0.025
0.616868   0.0298294   0.025
0.642094   0.0298294   0.025
0.666887   0.0298294   0.025
0.691182   0.0298294   0.025
0.714918   0.0298294   0.025
0.738041   0.0298294   0.025
0.760504   0.0298294   0.025
0.782266   0.0298294   0.025
0.803293   0.0298294   0.025
0.823557   0.0298294   0.025
0.843039   0.0298294   0.025
0.861725   0.0298294   0.025
0.879605   0.0298294   0.025
0.896677   0.0298294   0.025
0.912945   0.0298294   0.025
0.928415   0.0298294   0.025
0.943099   0.0298294   0.025
0.957011   0.0298294   0.025
0.970171   0.0298294   0.025
0.982598   0.0298294   0.025
0.994315   0.0298294   0.025
0.00568455   0.0429888   0.025
0.0174023   0.0429888   0.025
0.0298294   0.0429888   0.025
0.0429888   0.0429888   0.025
0.0569012   0.0429888   0.025
0.0715849   0.0429888   0.025
0.0870549   0.0429888   0.025
0.103323   0.0429888   0.025
0.120395   0.0429888   0.025
0.138275   0.0429888   0.025
0.156961   0.0429888   0.025
0.176443   0.0429888   0.025
0.196707   0.0429888   0.025
0.217734   0.0429888   0.025
0.239496   0.0429888   0.025
0.261959   0.0429888   0.025
0.285082   0.0429888   0.025
0.308818   0.0429888   0.025
0.333113   0.0429888   0.025
0.357906   0.0429888   0.025
0.383132   0.0429888   0.025
0.408719   0.0429888   0.025
0.434592   0.0429888   0.025
0.460672   0.0429888   0.025
0.486877   0.0429888   0.025
0.513123   0.0429888   0.025
0.539328   0.0429888   0.025
0.565408   0.0429888   0.025
0.591281   0.0429888   0.025
0.616868   0.0429888   0.025
0.642094   0.0429888   0.025
0.666887   0.0429888   0.025
0.691182   0.0429888   0.025
0.714918   0.0429888   0.025
0.738041   0.0429888   0.025
0.760504   0.0429888   0.025
0.782266   0.0429888   0.025
0.803293   0.0429888   0.025
0.823557   0.0429888   0.025
0.843039   0.0429888   0.025
0.861725   0.0429888   0.025
0.879605   0.0429888   0.025
0.896677   0.0429888   0.025
0.912945   0.0429888   0.025
0.928415   0.0429888   0.025
0.943099   0.0429888   0.025
0.957011   0.0429888   0.025
0.970171   0.0429888   0.025
0.982598   0.0429888   0.025
0.994315   0.0429888   0.025
0.00568455   0.0569012   0.025
0.0174023   0.0569012   0.025
0.0298294   0.0569012   0.025
0.0429888   0.0569012   0.025
0.0569012   0.0569012   0.025
0.0715849   0.0569012   0.025
0.0870549   0.0569012   0.025
0.103323   0.0569012   0.025
0.120395   0.0569012   0.025
0.138275   0.0569012   0.025
0.156961   0.0569012   0.025
0.176443   0.0569012   0.025
0.196707   0.0569012   0.025
0.217734   0.0569012   0.025
0.239496   0.0569012   0.025
0.261959   0.0569012   0.025
0.285082   0.0569012   0.025
0.308818   0.0569012   0.025
0.333113   0.0569012   0.025
0.357906   0.0569012   0.025
0.383132   0.0569012   0.025
0.408719   0.0569012   0.025
0.434592   0.0569012   0.025
0.460672   0.0569012   0.025
0.486877   0.0569012   0.025
0.513123   0.0569012   0.025
0.539328   0.0569012   0.025
0.565408   0.0569012   0.025
0.591281   0.0569012   0.025
0.616868   0.0569012   0.025
0.642094   0.0569012   0.025
0.666887   0.0569012   0.025
0.691182   0.0569012   0.025
0.714918   0.0569012   0.025
0.738041   0.0569012   0.025
0.760504   0.0569012   0.025
0.782266   0.0569012   0.025
0.803293   0.0569012   0.025
0.823557   0.0569012   0.025
0.843039   0.0569012   0.025
0.861725   0.0569012   0.025
0.879605   0.0569012   0.025
0.896677   0.0569012   0.025
0.912945   0.0569012   0.025
0.928415   0.0569012   0.025
0.943099   0.0569012   0.025
0.957011   0.0569012   0.025
0.970171   0.0569012   0.025
0.982598   0.0569012   0.025
0.994315   0.0569012   0.025
0.00568455   0.0715849   0.025
0.0174023   0.0715849   0.025
0.0298294   0.0715849   0.025
0.0429888   0.0715849   0.025
0.0569012   0.0715849   0.025
0.0715849   0.0715849   0.025
0.0870549   0.0715849   0.025
0.103323   0.0715849   0.025
0.120395   0.0715849   0.025
0.138275   0.0715849   0.025
0.156961   0.0715849   0.025
0.176443   0.0715849   0.025
0.196707   0.0715849   0.025
0.217734   0.0715849   0.025
0.239496   0.0715849   0.025
0.261959   0.0715849   0.025
0.285082   0.0715849   0.025
0.308818   0.0715849   0.025
0.333113   0.0715849   0.025
0.357906   0.0715849   0.025
0.383132   0.0715849   0.025
0.408719   0.0715849   0.025
0.434592   0.0715849   0.025
0.460672   0.0715849   0.025
0.486877   0.0715849   0.025
0.513123   0.0715849   0.025
0.539328   0.0715849   0.025
0.565408   0.0715849   0.025
0.591281   0.0715849   0.025
0.616868   0.0715849   0.025
0.642094   0.0715849   0.025
0.666887   0.0715849   0.025
0.691182   0.0715849   0.025
0.714918   0.0715849   0.025
0.738041   0.0715849   0.025
0.760504   0.0715849   0.025
0.782266   0.0715849   0.025
0.803293   0.0715849   0.025
0.823557   0.0715849   0.025
0.843039   0.0715849   0.025
0.861725   0.0715849   0.025
0.879605   0.0715849   0.025
0.896677   0.0715849   0.025
0.912945   0.0715849   0.025
0.928415   0.0715849   0.025
0.943099   0.0715849   0.025
0.957011   0.0715849   0.025
0.970171   0.0715849   0.025
0.982598   0.0715849   0.025
0.994315   0.0715849   0.025
0.00568455   0.0870549   0.025
0.0174023   0.0870549   0.025
0.0298294   0.0870549   0.025
0.0429888   0.0870549   0.025
0.0569012   0.0870549   0.025
0.0715849   0.0870549   0.025
0.0870549   0.0870549   0.025
0.103323   0.0870549   0.025
0.120395   0.0870549   0.025
0.138275   0.0870549   0.025
0.156961   0.0870549   0.025
0.176443   0.0870549   0.025
0.196707   0.0870549   0.025
0.217734   0.0870549   0.025
0.239496   0.0870549   0.025
0.261959   0.0870549   0.025
0.285082   0.0870549   0.025
0.308818   0.0870549   0.025
0.333113   0.0870549   0.025
0.357906   0.0870549   0.025
0.383132   0.0870549   0.025
0.408719   0.0870549   0.025
0.434592   0.0870549   0.025
0.460672   0.0870549   0.025
0.486877   0.0870549   0.025
0.513123   0.0870549   0.025
0.539328   0.0870549   0.025
0.565408   0.0870549   0.025
0.591281   0.0870549   0.025
0.616868   0.0870549   0.025
0.642094   0.0870549   0.025
0.666887   0.0870549   0.025
0.691182   0.0870549   0.025
0.714918   0.0870549   0.025
0.738041   0.0870549   0.025
0.760504   0.0870549   0.025
0.782266   0.0870549   0.025
[...]
POINT_DATA   50000
VECTORS Velocidades double

-7.68549e-05 -0.0016891 0
-0.000207938 -0.00331769 0
-0.000285518 -0.00423469 0
-0.000313954 -0.00474997 0
-0.000321017 -0.00498907 0
-0.000333961 -0.00501542 0
-0.000373534 -0.00486801 0
-0.000454319 -0.00457453 0
-0.000586152 -0.0041561 0
-0.000775649 -0.00362803 0
-0.00102825 -0.00299675 0
-0.00115406 -0.00224624 0
-0.00133393 -0.00127787 0
-0.0017762 -0.000549369 0
-0.00229379 5.82159e-05 0
-0.00285926 0.000571666 0
-0.00346322 0.000987861 0
-0.00409659 0.00128984 0
-0.00474624 0.00145512 0
-0.00539321 0.00146222 0
-0.00601212 0.0012966 0
-0.0065717 0.000955602 0
-0.00703754 0.00045199 0
-0.00736377 -0.000183605 0
-0.00750858 -0.000890814 0
-0.00744392 -0.00160258 0
-0.00715228 -0.00223945 0
-0.00663738 -0.00272693 0
-0.0059232 -0.00300118 0
-0.00505449 -0.00301769 0
-0.00409264 -0.00275853 0
-0.0031076 -0.00223596 0
-0.00216773 -0.00149157 0
-0.00132983 -0.000591985 0
-0.000630627 0.000376107 0
-0.00023874 0.00130413 0
2.03391e-06 0.00203254 0
0.000272504 0.00287549 0
0.000437752 0.00367522 0
0.00050397 0.00437278 0
0.000490936 0.00494232 0
0.000418457 0.00537201 0
0.000304781 0.00565576 0
0.000167081 0.0057888 0
2.25199e-05 0.0057644 0
-0.000110305 0.00556988 0
-0.000209566 0.00517968 0
-0.00024926 0.00453932 0
-0.000204944 0.00352215 0
-7.95912e-05 0.00179165 0
-0.000257136 -0.0031053 0
-0.000677371 -0.00647228 0
-0.000894645 -0.00841826 0
-0.000950723 -0.00949825 0
-0.000950667 -0.00997979 0
-0.000977581 -0.0100077 0
-0.00109059 -0.00967203 0
-0.00133116 -0.00903582 0
-0.00172803 -0.0081462 0
-0.0023015 -0.00703627 0
-0.00306952 -0.00571851 0
-0.00340577 -0.00415628 0
-0.00396948 -0.00216868 0
-0.005398 -0.000666823 0
-0.00701035 0.000578041 0
-0.00877024 0.00162675 0
-0.0106525 0.0024743 0
-0.0126266 0.00308456 0
-0.0146469 0.00340886 0
-0.0166484 0.00340012 0
-0.0185457 0.00302542 0
-0.0202366 0.00227684 0
-0.0216106 0.00117956 0
-0.0225382 -0.000202797 0
-0.0229004 -0.00176858 0
-0.0226185 -0.00334784 0
-0.0216591 -0.0047782 0
-0.0200477 -0.0059006 0
-0.0178629 -0.00657515 0
-0.0152378 -0.00670113 0
-0.0123482 -0.0062339 0
-0.00939214 -0.00519379 0
-0.00656415 -0.00366541 0
-0.00402959 -0.00178921 0
-0.00190123 0.000248207 0
-0.000743839 0.00220935 0
-2.39489e-06 0.00376256 0
0.000881119 0.00554827 0
0.00140365 0.00724386 0
0.00161396 0.00872361 0
0.00157385 0.00993403 0
0.0013438 0.0108512 0
0.000980284 0.0114623 0
0.000537166 0.0117562 0
6.84408e-05 0.011716 0
-0.000367891 0.0113106 0
-0.000704054 0.0104786 0
-0.000854948 0.00909483 0
-0.000720678 0.00689289 0
-0.000284628 0.00328121 0
-0.000185441 -0.00262381 0
-0.000589097 -0.00607792 0
-0.000961407 -0.00821305 0
-0.00122066 -0.00939717 0
-0.00142816 -0.00988989 0
-0.00167605 -0.00986114 0
-0.00204809 -0.0094255 0
-0.00261095 -0.00866454 0
-0.00341515 -0.00763786 0
-0.00449914 -0.00638556 0
-0.0058952 -0.00492097 0
-0.00652754 -0.00320351 0
-0.00750034 -0.00108788 0
-0.00990139 0.000530295 0
-0.0126 0.00185928 0
-0.0155513 0.00297008 0
-0.0187087 0.00385877 0
-0.022012 0.00448308 0
-0.0253758 0.0047846 0
-0.0286841 0.00470545 0
-0.0317898 0.004203 0
-0.0345208 0.00326283 0
-0.0366932 0.00190929 0
-0.0381362 0.000210418 0
-0.0386532 -0.0017569 0
-0.0381078 -0.00375489 0
-0.0364873 -0.00560435 0
-0.0338391 -0.00711978 0
-0.0302907 -0.00813031 0
-0.0260481 -0.00850581 0
-0.0213792 -0.0081793 0
-0.0165845 -0.00716022 0
-0.0119611 -0.00553611 0
-0.00776529 -0.00346502 0
-0.00417969 -0.00116595 0
-0.00220686 0.00107719 0
-0.000922105 0.00290139 0
0.000637198 0.00495897 0
0.00161215 0.00691172 0
0.00208667 0.00861864 0
0.00215626 0.0100214 0
0.00191669 0.0110939 0
0.00146125 0.0118204 0
0.000881893 0.012184 0
0.000271775 0.0121586 0
-0.000272035 0.0116988 0
-0.000648088 0.0107237 0
-0.000760782 0.00909052 0
-0.000565349 0.00655606 0
-0.000195204 0.00275957 0
-0.000117116 -0.00227585 0
-0.0004503 -0.00560437 0
-0.000900756 -0.00781094 0
-0.00137305 -0.00905989 0
-0.00187743 -0.00954607 0
-0.00247869 -0.00943714 0
-0.00325697 -0.00886474 0
-0.00428805 -0.00792952 0
-0.00563642 -0.00670651 0
-0.00735471 -0.00524604 0
-0.00948501 -0.003567 0
-0.0104787 -0.001636 0
-0.0118951 0.00065127 0
-0.0152946 0.002436 0
-0.0190926 0.00389861 0
-0.0232419 0.00510885 0
-0.0276743 0.006059 0
-0.0322953 0.00669652 0
-0.0369749 0.0069486 0
-0.041543 0.00674201 0
-0.0457904 0.0060208 0
-0.0494787 0.00476238 0
-0.0523567 0.00299059 0
-0.0542492 0.000780213 0
-0.0548803 -0.00178742 0
-0.0540517 -0.00441724 0
-0.0518011 -0.00689593 0
-0.0481943 -0.00899991 0
-0.0433971 -0.0105152 0
-0.0376719 -0.0112712 0
-0.0313576 -0.0111695 0
-0.024835 -0.0102032 0
-0.0184851 -0.00846199 0
-0.0126444 -0.00612586 0
-0.0075653 -0.00345505 0
-0.00474501 -0.000787741 0
-0.00287181 0.00147222 0
-0.000540452 0.00394702 0
0.00100287 0.00628531 0
0.00187612 0.00833401 0
0.00220298 0.010028 0
0.00210878 0.0113353 0
0.00171899 0.0122331 0
0.00115878 0.012695 0
0.000552244 0.0126827 0
1.92401e-05 0.0121372 0
-0.000334315 0.0109696 0
-0.000439858 0.00905474 0
-0.000310726 0.00624206 0
-9.80218e-05 0.00242335 0
-8.39429e-05 -0.00203092 0
-0.000381466 -0.00510907 0
-0.000899006 -0.00722317 0
-0.00158082 -0.00842283 0
-0.00242053 -0.00883196 0
-0.00345573 -0.00859293 0
-0.00474856 -0.00783835 0
-0.00636869 -0.00668024 0
-0.00838282 -0.00520675 0
-0.0108492 -0.0034798 0
-0.0138131 -0.00152902 0
-0.0152223 0.000661142 0
-0.0171189 0.00314908 0
-0.0215635 0.00514345 0
-0.0264912 0.00678641 0
-0.0318554 0.00813182 0
-0.037567 0.00915941 0
-0.043496 0.0098007 0
-0.0494656 0.00996396 0
-0.055251 0.00955698 0
-0.0605836 0.00850838 0
-0.0651646 0.00678726 0
-0.0686861 0.0044192 0
-0.0709863 0.00149278 0
-0.0717162 -0.00187793 0
-0.0706244 -0.00534846 0
-0.0678098 -0.00866341 0
-0.0633485 -0.0115515 0
-0.0574301 -0.0137454 0
-0.0503556 -0.015024 0
-0.0425148 -0.0152492 0
-0.0343512 -0.0143908 0
-0.0263164 -0.012537 0
-0.0188217 -0.00988987 0
-0.0121937 -0.0067539 0
-0.00849383 -0.00352402 0
-0.00598038 -0.000651582 0
-0.00275311 0.00238674 0
-0.000501414 0.0052366 0
0.00092324 0.00774019 0
0.00166656 0.00982483 0
0.00187648 0.011449 0
0.0017034 0.0125787 0
0.00129706 0.0131758 0
0.000800873 0.0131916 0
0.000342654 0.0125632 0
1.99139e-05 0.011214 0
-0.000120896 0.00906521 0
-0.000105452 0.00606787 0
-3.34816e-05 0.00226459 0
-7.80876e-05 -0.00182185 0
-0.0003917 -0.00456185 0
-0.001013 -0.00642867 0
-0.00192898 -0.00743303 0
-0.00313927 -0.00765291 0
-0.00466701 -0.00720161 0
-0.0065559 -0.00620096 0
-0.0088618 -0.0047643 0
-0.0116441 -0.00298707 0
-0.0149579 -0.000941369 0
-0.0188451 0.00132894 0
-0.0207158 0.00381427 0
-0.0231279 0.00652291 0
-0.0286732 0.00876196 0
-0.0347717 0.0106251 0
-0.0413753 0.0121353 0
-0.0483752 0.0132486 0
-0.0556056 0.0138738 0
-0.0628441 0.0138957 0
-0.0698138 0.0132007 0
-0.0761927 0.0117015 0
-0.0816309 0.00936079 0
-0.0857762 0.00620997 0
-0.0884695 0.00236035 0
-0.0893122 -0.00202228 0
-0.0880284 -0.00653598 0
-0.0847611 -0.0108922 0
-0.0795822 -0.0147643 0
-0.0726886 -0.0178225 0
-0.0644003 -0.0197859 0
-0.0551403 -0.020467 0
-0.0453997 -0.0198033 0
-0.0356926 -0.0178736 0
-0.0265045 -0.0148974 0
-0.0182439 -0.011221 0
-0.0136202 -0.00729611 0
-0.010402 -0.00362904 0
-0.00612564 0.000117365 0
-0.00299744 0.00360301 0
-0.000846452 0.00667583 0
0.000486338 0.00925603 0
0.00116323 0.0112886 0
0.00135156 0.012725 0
0.00121742 0.0135156 0
0.000915487 0.0136064 0
0.000576593 0.0129414 0
0.000294316 0.0114699 0
0.000113814 0.0091646 0
2.99773e-05 0.00604897 0
4.30275e-06 0.0022282 0
-9.04304e-05 -0.00159212 0
-0.000467059 -0.0038913 0
-0.00124637 -0.00536211 0
-0.00244433 -0.00601587 0
-0.0040719 -0.00591148 0
-0.00614689 -0.00514109 0
-0.00869891 -0.003812 0
-0.0117685 -0.00203123 0
-0.0154025 0.000105113 0
-0.0196466 0.00251789 0
-0.0245341 0.00514804 0
-0.0269041 0.00795694 0
-0.0298636 0.0109007 0
-0.0365665 0.0134125 0
-0.0438802 0.015527 0
-0.051752 0.0172221 0
-0.0600526 0.0184193 0
-0.0685822 0.018997 0
-0.0770761 0.0188129 0
-0.0852117 0.0177309 0
-0.0926229 0.0156491 0
-0.0989206 0.012527 0
-0.103721 0.00840729 0
-0.106821 0.00343083 0
-0.107822 -0.00217818 0
-0.106477 -0.00793006 0
-0.10292 -0.0135336 0
-0.097199 -0.0186003 0
-0.0895001 -0.0227292 0
-0.080143 -0.0255698 0
-0.0695663 -0.0268738 0
-0.0582965 -0.0265336 0
-0.0469046 -0.0246059 0
-0.0359528 -0.021317 0
-0.025941 -0.0170479 0
-0.0203308 -0.0123049 0
-0.0163253 -0.00765819 0
-0.0108107 -0.00306518 0
-0.00660332 0.00117895 0
-0.00352316 0.0049411 0
-0.00140973 0.00813413 0
-9.50847e-05 0.010685 0
0.000598474 0.0125274 0
0.000848639 0.0136004 0
0.000819553 0.0138496 0
0.000648747 0.0132319 0
0.000437358 0.0117254 0
0.000246814 0.0093435 0
0.000105208 0.00615031 0
2.42215e-05 0.00226771 0
-0.000115239 -0.00129696 0
-0.000593305 -0.00301375 0
-0.00158592 -0.00392934 0
-0.0031234 -0.00407116 0
-0.00522384 -0.00349634 0
-0.007902 -0.00228555 0
-0.0111766 -0.000532592 0
-0.0150737 0.00166618 0
-0.0196258 0.00421954 0
-0.0248658 0.00704526 0
-0.0308155 0.0100701 0
-0.0337138 0.0132253 0
-0.0372475 0.0164154 0
-0.0451594 0.0192224 0
-0.0537307 0.0216102 0
-0.062899 0.0234997 0
-0.0725138 0.0247674 0
-0.0823443 0.0252553 0
-0.0920897 0.0247913 0
-0.101391 0.0232172 0
-0.10985 0.0204195 0
-0.117051 0.0163589 0
-0.122591 0.0110935 0
-0.126137 0.00479591 0
-0.12737 -0.00225596 0
-0.126159 -0.00943402 0
-0.122527 -0.0164967 0
-0.116482 -0.0229857 0
-0.108178 -0.0284209 0
-0.0979172 -0.0323722 0
-0.0861353 -0.034516 0
-0.073382 -0.0346824 0
-0.0602794 -0.0328881 0
-0.0474693 -0.0293486 0
-0.0355541 -0.0244669 0
-0.0288757 -0.0187987 0
-0.0239783 -0.0129865 0
-0.0169911 -0.00741976 0
-0.0114584 -0.00229482 0
-0.00721111 0.00228898 0
-0.0041015 0.00623373 0
-0.00196409 0.00944102 0
-0.000614458 0.0118218 0
0.000136449 0.0133026 0
0.000465785 0.0138295 0
0.000525636 0.013373 0
0.000435843 0.0119349 0
0.000284101 0.00955603 0
0.000133106 0.00631987 0
3.21981e-05 0.00234872 0
-0.000149136 -0.000898751 0
-0.000759406 -0.00184464 0
-0.00201482 -0.00202291 0
-0.00394861 -0.00148117 0
-0.00657877 -0.000282902 0
-0.00991467 0.00149651 0
-0.0139645 0.00377528 0
-0.0187406 0.00647027 0
-0.024261 0.00949962 0
-0.030545 0.012782 0
-0.0376019 0.0162322 0
-0.041048 0.0197528 0
-0.0451753 0.0231997 0
-0.0543376 0.0263198 0
-0.0642003 0.0289939 0
-0.0746876 0.0310758 0
-0.0856275 0.0323898 0
-0.0967629 0.032737 0
-0.107765 0.0319145 0
-0.118251 0.0297442 0
-0.127801 0.026105 0
-0.135987 0.0209625 0
-0.142393 0.0143919 0
-0.146442 0.00659448 0
-0.148008 -0.00211126 0
-0.14718 -0.0108988 0
-0.143736 -0.0196425 0
-0.137625 -0.0278036 0
-0.128955 -0.0348163 0
-0.117989 -0.0401605 0
-0.105143 -0.0434215 0
-0.0909738 -0.044346 0
-0.0761448 -0.0428852 0
-0.0613765 -0.0392196 0
-0.0473825 -0.0337538 0
-0.0395425 -0.0270815 0
-0.0336265 -0.0199236 0
-0.0248773 -0.0132743 0
-0.0177207 -0.00714394 0
-0.0120254 -0.00158508 0
-0.00767314 0.00328282 0
-0.00450684 0.00732334 0
-0.00233561 0.010416 0
-0.000955304 0.0124703 0
-0.000169007 0.0134298 0
0.000198682 0.0132751 0
0.000294836 0.0120247 0
0.000238251 0.00973612 0
0.000124348 0.00650257 0
3.18706e-05 0.00244492 0
-0.000189906 -0.000364091 0
-0.000956587 -0.000302789 0
-0.00251577 0.000467246 0
-0.00489526 0.00187846 0
-0.00810581 0.0038593 0
-0.012147 0.00633814 0
-0.0170147 0.00924574 0
-0.0227076 0.0125151 0
-0.0292297 0.016078 0
-0.036587 0.0198579 0
-0.044777 0.023761 0
-0.0487803 0.0276639 0
-0.0535118 0.0313791 0
-0.0639498 0.0348263 0
-0.0751236 0.0377913 0
-0.0869407 0.0400537 0
-0.0992089 0.0413808 0
-0.111651 0.0415314 0
-0.12392 0.0402729 0
-0.135618 0.0374106 0
-0.14632 0.0328196 0
-0.155593 0.0264727 0
-0.163017 0.0184615 0
-0.167628 0.00900749 0
-0.169639 -0.00154571 0
-0.169482 -0.0121247 0
-0.166521 -0.0227828 0
-0.16064 -0.0328872 0
-0.151887 -0.0417839 0
-0.140467 -0.0488542 0
-0.126756 -0.0535768 0
-0.111295 -0.0555904 0
-0.0947713 -0.0547505 0
-0.0779735 -0.0511685 0
-0.0617287 -0.04522 0
-0.05264 -0.037516 0
-0.0455607 -0.0288533 0
-0.0346988 -0.0210408 0
-0.0255604 -0.013773 0
-0.018089 -0.00705338 0
-0.0122117 -0.00104625 0
-0.00778376 0.00405359 0
-0.00460485 0.00808084 0
-0.00244945 0.0109194 0
-0.00109276 0.012505 0
-0.000327784 0.0128223 0
2.62797e-05 0.0119004 0
0.000122253 0.00980775 0
8.71457e-05 0.00664483 0
2.55956e-05 0.00253507 0
-0.000235751 0.000337096 0
-0.00117684 0.00168686 0
-0.00307061 0.0036457 0
-0.00593335 0.00612803 0
-0.00976253 0.00905633 0
-0.0145434 0.0123654 0
-0.020257 0.0160022 0
-0.0268874 0.0199204 0
-0.0344251 0.0240704 0
-0.042864 0.028385 0
-0.0521914 0.0327655 0
-0.05675 0.0370665 0
-0.0620855 0.0410638 0
-0.0738032 0.0448484 0
-0.0862866 0.0481012 0
-0.099425 0.0505235 0
-0.113009 0.0518247 0
-0.126748 0.051722 0
-0.140285 0.0499562 0
-0.15322 0.0463197 0
-0.16513 0.0406867 0
-0.175584 0.0330385 0
-0.184165 0.0234791 0
-0.189384 0.0122409 0
-0.191947 -0.000319984 0
-0.192752 -0.0128743 0
-0.190579 -0.0256855 0
-0.185249 -0.0380159 0
-0.176741 -0.0491277 0
-0.16519 -0.0583004 0
-0.150903 -0.0648931 0
-0.134376 -0.0684132 0
-0.116286 -0.0685854 0
-0.0974684 -0.0654096 0
-0.0788495 -0.0591886 0
-0.0684625 -0.0505141 0
-0.0600699 -0.0402419 0
-0.0466859 -0.0312246 0
-0.0351523 -0.0226728 0
-0.0255314 -0.0145629 0
-0.0178104 -0.00714426 0
-0.0118583 -0.000699561 0
-0.00746111 0.00454239 0
-0.00436477 0.0084283 0
-0.00230856 0.0108779 0
-0.00104632 0.0118742 0
-0.000357825 0.0114524 0
-5.30792e-05 0.00968975 0
2.75568e-05 0.00669554 0
1.49711e-05 0.00260137 0
-0.000284868 0.00123093 0
-0.00141172 0.00418959 0
-0.00365904 0.007604 0
-0.00702716 0.0113732 0
-0.0114957 0.0154183 0
-0.0170317 0.0196865 0
-0.0235989 0.0241476 0
-0.0311661 0.028783 0
-0.0397104 0.0335677 0
-0.0492149 0.0384494 0
-0.0596589 0.0433287 0
-0.0647591 0.0480431 0
-0.0706851 0.052339 0
-0.083658 0.0564672 0
-0.0974202 0.0599973 0
-0.111843 0.0625519 0
-0.126704 0.0637845 0
-0.141702 0.063374 0
-0.156482 0.0610381 0
-0.170647 0.0565601 0
-0.183782 0.0498157 0
-0.195466 0.040794 0
-0.205289 0.029608 0
-0.211122 0.016495 0
-0.214314 0.0018175 0
-0.216334 -0.0128959 0
-0.215231 -0.0280877 0
-0.210778 -0.0429168 0
-0.202889 -0.0565755 0
-0.19161 -0.0682469 0
-0.177154 -0.0771663 0
-0.15993 -0.0826913 0
-0.140562 -0.0843814 0
-0.119881 -0.0820753 0
-0.098881 -0.075945 0
-0.0872298 -0.0665062 0
-0.0773928 -0.0546327 0
-0.0610417 -0.0444189 0
-0.0466657 -0.0344149 0
-0.0344914 -0.0246339 0
-0.0245777 -0.0154687 0
-0.0168091 -0.00732693 0
-0.0109553 -0.000524777 0
-0.00672874 0.00473199 0
-0.00382604 0.00833725 0
-0.00195514 0.0102662 0
-0.000850647 0.0105573 0
-0.000281029 0.00929658 0
-5.06227e-05 0.00660511 0
9.92917e-07 0.00262824 0
-0.000335205 0.00233788 0
-0.00165158 0.00725591 0
-0.00425746 0.0124123 0
-0.00813434 0.017694 0
-0.013241 0.023027 0
-0.0195238 0.0283794 0
-0.0269274 0.0337532 0
-0.0354045 0.0391662 0
-0.0449193 0.044626 0
-0.0554453 0.0501014 0
-0.0669555 0.0554976 0
-0.0725701 0.0606401 0
-0.0790574 0.0652531 0
-0.0932243 0.069725 0
-0.108196 0.0735138 0
-0.123826 0.0761666 0
-0.139881 0.0772848 0
-0.156057 0.0765134 0
-0.172001 0.0735514 0
-0.187325 0.0681758 0
-0.201625 0.0602656 0
-0.214495 0.0498182 0
-0.225542 0.036956 0
-0.23194 0.0219208 0
-0.235784 0.00508555 0
-0.239182 -0.0119602 0
-0.239365 -0.0297201 0
-0.236095 -0.0472768 0
-0.229221 -0.0637761 0
-0.218694 -0.0783232 0
-0.204604 -0.0900389 0
-0.18723 -0.0981242 0
-0.16708 -0.101946 0
-0.144916 -0.101133 0
-0.121731 -0.0956554 0
-0.108992 -0.085876 0
-0.0976402 -0.0726111 0
-0.0778997 -0.0612662 0
-0.0602517 -0.0496229 0
-0.0451211 -0.0378461 0
-0.0326495 -0.0265411 0
-0.0227447 -0.0162833 0
-0.0151657 -0.00750505 0
-0.00959165 -0.00048494 0
-0.00567299 0.00463199 0
-0.00306635 0.00780577 0
-0.00145529 0.00907503 0
-0.000561014 0.00853533 0
-0.000146374 0.00632265 0
-1.59866e-05 0.00260094 0
-0.000384345 0.00367029 0
-0.0018851 0.0109153 0
-0.00483835 0.0181104 0
-0.00920557 0.0251337 0
-0.0149235 0.0319238 0
-0.0219166 0.0384796 0
-0.03011 0.0448463 0
-0.0394399 0.0510887 0
-0.0498579 0.0572561 0
-0.061329 0.0633454 0
-0.073821 0.0692721 0
-0.0799078 0.0748551 0
-0.0869083 0.079803 0
-0.102163 0.0846102 0
-0.118225 0.0886293 0
-0.134931 0.0913372 0
-0.152039 0.0922891 0
-0.169242 0.0911006 0
-0.186191 0.0874557 0
-0.202507 0.0811283 0
-0.217799 0.0720034 0
-0.231683 0.060091 0
-0.243796 0.0455284 0
-0.250637 0.0285711 0
-0.255082 0.00961358 0
-0.259878 -0.00990361 0
-0.261463 -0.0303423 0
-0.259616 -0.0507691 0
-0.254139 -0.0703151 0
-0.244886 -0.0880409 0
-0.231805 -0.10298 0
-0.215003 -0.114188 0
-0.194808 -0.120831 0
-0.171823 -0.122285 0
-0.146947 -0.118253 0
-0.133496 -0.108848 0
-0.120679 -0.0947162 0
-0.0972614 -0.0823674 0
-0.0760165 -0.0689093 0
-0.0575798 -0.0548049 0
-0.042193 -0.0409354 0
-0.0298136 -0.0280882 0
-0.0202097 -0.016849 0
-0.0130376 -0.00759781 0
-0.00790438 -0.000538177 0
-0.0044124 0.00426342 0
-0.00218864 0.00684092 0
-0.000900387 0.007299 0
-0.000262056 0.00579104 0
-3.63622e-05 0.00250346 0
-0.00042949 0.00522949 0
-0.00209934 0.0151695 0
-0.00537046 0.0246976 0
-0.0101851 0.0336873 0
-0.0164587 0.0420973 0
-0.0240946 0.0499677 0
-0.0329986 0.0573985 0
-0.0430907 0.0645131 0
-0.0543104 0.0714121 0
-0.0666141 0.0781279 0
-0.079965 0.0845926 0
-0.0864656 0.0906235 0
-0.0939093 0.0959193 0
-0.110092 0.101041 0
-0.127066 0.105247 0
-0.144651 0.107954 0
-0.162595 0.108675 0
-0.180587 0.107001 0
-0.198281 0.102605 0
-0.215303 0.0952608 0
-0.231282 0.084867 0
-0.245861 0.0714548 0
-0.258723 0.0551893 0
-0.265818 0.0363556 0
-0.270725 0.015385 0
-0.276766 -0.00667254 0
-0.279723 -0.0297875 0
-0.279429 -0.0530977 0
-0.275658 -0.0757559 0
-0.26818 -0.0968264 0
-0.256799 -0.1153 0
-0.24142 -0.130127 0
-0.22213 -0.140285 0
-0.199287 -0.144885 0
-0.173578 -0.143306 0
-0.16002 -0.135324 0
-0.145985 -0.121269 0
-0.118903 -0.108129 0
-0.0939627 -0.0927752 0
-0.0719953 -0.0760838 0
-0.0533852 -0.0592495 0
-0.0381937 -0.0433173 0
-0.0262405 -0.0290763 0
-0.0171857 -0.0170509 0
-0.0106047 -0.00753435 0
-0.00604816 -0.0006391 0
-0.00308272 0.00365439 0
-0.00131511 0.00545687 0
-0.000403629 0.00494006 0
-6.1314e-05 0.0023157 0
-0.000467557 0.007003 0
-0.00228013 0.0199853 0
-0.00581985 0.0321244 0
-0.0110128 0.0432917 0
-0.0177562 0.0534729 0
-0.0259344 0.0627591 0
-0.0354355 0.0713161 0
-0.0461642 0.0793365 0
-0.0580477 0.0869817 0
-0.0710332 0.0943279 0
-0.0850787 0.101329 0
-0.091917 0.107806 0
-0.0997102 0.113452 0
-0.116602 0.118848 0
-0.134244 0.12318 0
-0.152438 0.12581 0
-0.170917 0.126215 0
-0.189367 0.123964 0
-0.207437 0.118724 0
-0.224764 0.110277 0
-0.240995 0.0985462 0
-0.255815 0.083598 0
-0.268968 0.0656437 0
-0.276072 0.0450174 0
-0.281223 0.0221997 0
-0.288175 -0.00235605 0
-0.292318 -0.0280068 0
-0.293557 -0.0540527 0
-0.291666 -0.0797061 0
-0.286358 -0.104093 0
-0.277309 -0.126223 0
-0.264221 -0.145002 0
-0.24691 -0.159268 0
-0.225416 -0.167891 0
-0.200103 -0.169908 0
-0.187238 -0.164694 0
-0.17249 -0.152115 0
-0.142256 -0.138558 0
-0.11388 -0.121471 0
-0.0883764 -0.102131 0
-0.0663496 -0.0820477 0
-0.0480508 -0.0625723 0
-0.033422 -0.0447649 0
-0.0221747 -0.0293586 0
-0.0138795 -0.0167866 0
-0.00804628 -0.00724019 0
-0.00418212 -0.000732853 0
-0.00182844 0.00284403 0
-0.000580126 0.00367889 0
-9.26938e-05 0.00201048 0
-0.000495371 0.00896225 0
-0.00241298 0.0252904 0
-0.00615194 0.0402852 0
-0.0116278 0.0538179 0
-0.0187244 0.0659055 0
-0.0273117 0.0766969 0
-0.0372625 0.0864324 0
-0.0484671 0.095383 0
-0.0608402 0.10378 0
-0.0743186 0.111749 0
-0.0888525 0.119273 0
-0.0959351 0.12618 0
-0.10396 0.13216 0
-0.121282 0.137768 0
-0.139284 0.142139 0
-0.157745 0.144588 0
-0.176383 0.144562 0
-0.194875 0.141613 0
-0.212867 0.135407 0
-0.230006 0.125747 0
-0.245968 0.112594 0
-0.260488 0.0960711 0
-0.273383 0.0764545 0
-0.280226 0.054145 0
-0.285351 0.0296768 0
-0.292741 0.0028072 0
-0.297738 -0.0250979 0
-0.300323 -0.0535626 0
-0.300302 -0.0818953 0
-0.297368 -0.109341 0
-0.291109 -0.135 0
-0.281052 -0.157811 0
-0.266753 -0.176555 0
-0.247908 -0.189925 0
-0.224483 -0.196652 0
-0.213193 -0.195692 0
-0.198509 -0.186336 0