# vtk DataFile Version 2.0
Velocidades
ASCII

DATASET STRUCTURED_GRID
DIMENSIONS   50   50   20

POINTS   50000   double
0.00568455   0.00568455   0.025
0.0174023   0.00568455   0.025
0.0298294   0.00568455   0.025
0.0429888   0.00568455   0.025
0.0569012   0.00568455   0.025
0.0715849   0.00568455   0.025
0.0870549   0.00568455   0.025
0.103323   0.00568455   0.025
0.120395   0.00568455   0.025
0.138275   0.00568455   0.025
0.156961   0.00568455   0.025
0.176443   0.00568455   0.025
0.196707   0.00568455   0.025
0.217734   0.00568455   0.025
0.239496   0.00568455   0.025
0.261959   0.00568455   0.025
0.285082   0.00568455   0.025
0.308818   0.00568455   0.025
0.333113   0.00568455   0.025
0.357906   0.00568455   0.025
0.383132   0.00568455   0.025
0.408719   0.00568455   0.025
0.434592   0.00568455   0.025
0.460672   0.00568455   0.025
0.486877   0.00568455   0.025
0.513123   0.00568455   0.025
0.539328   0.00568455   0.025
0.565408   0.00568455   0.025
0.591281   0.00568455   0.025
0.616868   0.00568455   0.025
0.642094   0.00568455   0.025
0.666887   0.00568455   0.025
0.691182   0.00568455   0.025
0.714918   0.00568455   0.025
0.738041   0.00568455   0.025
0.760504   0.00568455   0.025
0.782266   0.00568455   0.025
0.803293   0.00568455   0.025
0.823557   0.00568455   0.025
0.843039   0.00568455   0.025
0.861725   0.00568455   0.025
0.879605   0.00568455   0.025
0.896677   0.00568455   0.025
0.912945   0.00568455   0.025
0.928415   0.00568455   0.025
0.943099   0.00568455   0.025
0.957011   0.00568455   0.025
0.970171   0.00568455   0.025
0.982598   0.00568455   0.025
0.994315   0.00568455   0.025
0.00568455   0.0174023   0.025
0.0174023   0.0174023   0.025
0.0298294   0.0174023   0.025
0.0429888   0.0174023   0.025
0.0569012   0.0174023   0.025
0.0715849   0.0174023   0.025
0.0870549   0.0174023   0.025
0.103323   0.0174023   0.025
0.120395   0.0174023   0.025
0.138275   0.0174023   0.025
0.156961   0.0174023   0.025
0.176443   0.0174023   0.025
0.196707   0.0174023   0.025
0.217734   0.0174023   0.025
0.239496   0.0174023   0.025
0.261959   0.0174023   0.025
0.285082   0.0174023   0.025
0.308818   0.0174023   0.025
0.333113   0.0174023   0.025
0.357906   0.0174023   0.025
0.383132   0.0174023   0.025
0.408719   0.0174023   0.025
0.434592   0.0174023   0.025
0.460672   0.0174023   0.025
0.486877   0.0174023   0.025
0.513123   0.0174023   0.025
0.539328   0.0174023   0.025
0.565408   0.0174023   0.025
0.591281   0.0174023   0.025
0.616868   0.0174023   0.025
0.642094   0.0174023   0.025
0.666887   0.0174023   0.025
0.691182   0.0174023   0.025
0.714918   0.0174023   0.025
0.738041   0.0174023   0.025
0.760504   0.0174023   0.025
0.782266   0.0174023   0.025
0.803293   0.0174023   0.025
0.823557   0.0174023   0.025
0.843039   0.0174023   0.025
0.861725   0.0174023   0.025
0.879605   0.0174023   0.025
0.896677   0.0174023   0.025
0.912945   0.0174023   0.025
0.928415   0.0174023   0.025
0.943099   0.0174023   0.025
0.957011   0.0174023   0.025
0.970171   0.0174023   0.025
0.982598   0.0174023   0.025
0.994315   0.0174023   0.025
0.00568455   0.0298294   0.025
0.0174023   0.0298294   0.025
0.0298294   0.0298294   0.025
0.0429888   0.0298294   0.025
0.0569012   0.0298294   0.025
0.0715849   0.0298294   0.025
0.0870549   0.0298294   0.025
0.103323   0.0298294   0.025
0.120395   0.0298294   0.025
0.138275   0.0298294   0.025
0.156961   0.0298294   0.025
0.176443   0.0298294   0.025
0.196707   0.0298294   0.025
0.217734   0.0298294   0.025
0.239496   0.0298294   0.025
0.261959   0.0298294   0.025
0.285082   0.0298294   0.025
0.308818   0.0298294   0.025
0.333113   0.0298294   0.025
0.357906   0.0298294   0.025
0.383132   0.0298294   0.025
0.408719   0.0298294   0.025
0.434592   0.0298294   0.025
0.460672   0.0298294   0.025
0.486877   0.0298294   0.025
0.513123   0.0298294   0.025
0.539328   0.0298294   0.025
0.565408   0.0298294   0.025
0.591281   0.0298294   0.025
0.616868   0.0298294   0.025
0.642094   0.0298294   0.025
0.666887   0.0298294   0.025
0.691182   0.0298294   0.025
0.714918   0.0298294   0.025
0.738041   0.0298294   0.025
0.760504   0.0298294   0.025
0.782266   0.0298294   0.025
0.803293   0.0298294   0.025
0.823557   0.0298294   0.025
0.843039   0.0298294   0.025
0.861725   0.0298294   0.025
0.879605   0.0298294   0.025
0.896677   0.0298294   0.025
0.912945   0.0298294   0.025
0.928415   0.0298294   0.025
0.943099   0.0298294   0.025
0.957011   0.0298294   0.025
0.970171   0.0298294   0.025
0.982598   0.0298294   0.025
0.994315   0.0298294   0.025
0.00568455   0.0429888   0.025
0.0174023   0.0429888   0.025
0.0298294   0.0429888   0.025
0.0429888   0.0429888   0.025
0.0569012   0.0429888   0.025
0.0715849   0.0429888   0.025
0.0870549   0.0429888   0.025
0.103323   0.0429888   0.025
0.120395   0.0429888   0.025
0.138275   0.0429888   0.025
0.156961   0.0429888   0.025
0.176443   0.0429888   0.025
0.196707   0.0429888   0.025
0.217734   0.0429888   0.025
0.239496   0.0429888   0.025
0.261959   0.0429888   0.025
0.285082   0.0429888   0.025
0.308818   0.0429888   0.025
0.333113   0.0429888   0.025
0.357906   0.0429888   0.025
0.383132   0.0429888   0.025
0.408719   0.0429888   0.025
0.434592   0.0429888   0.025
0.460672   0.0429888   0.025
0.486877   0.0429888   0.025
0.513123   0.0429888   0.025
0.539328   0.0429888   0.025
0.565408   0.0429888   0.025
0.591281   0.0429888   0.025
0.616868   0.0429888   0.025
0.642094   0.0429888   0.025
0.666887   0.0429888   0.025
0.691182   0.0429888   0.025
0.714918   0.0429888   0.025
0.738041   0.0429888   0.025
0.760504   0.0429888   0.025
0.782266   0.0429888   0.025
0.803293   0.0429888   0.025
0.823557   0.0429888   0.025
0.843039   0.0429888   0.025
0.861725   0.0429888   0.025
0.879605   0.0429888   0.025
0.896677   0.0429888   0.025
0.912945   0.0429888   0.025
0.928415   0.0429888   0.025
0.943099   0.0429888   0.025
0.957011   0.0429888   0.025
0.970171   0.0429888   0.025
0.982598   0.0429888   0.025
0.994315   0.0429888   0.025
0.00568455   0.0569012   0.025
0.0174023   0.0569012   0.025
0.0298294   0.0569012   0.025
0.0429888   0.0569012   0.025
0.0569012   0.0569012   0.025
0.0715849   0.0569012   0.025
0.0870549   0.0569012   0.025
0.103323   0.0569012   0.025
0.120395   0.0569012   0.025
0.138275   0.0569012   0.025
0.156961   0.0569012   0.025
0.176443   0.0569012   0.025
0.196707   0.0569012   0.025
0.217734   0.0569012   0.025
0.239496   0.0569012   0.025
0.261959   0.0569012   0.025
0.285082   0.0569012   0.025
0.308818   0.0569012   0.025
0.333113   0.0569012   0.025
0.357906   0.0569012   0.025
0.383132   0.0569012   0.025
0.408719   0.0569012   0.025
0.434592   0.0569012   0.025
0.460672   0.0569012   0.025
0.486877   0.0569012   0.025
0.513123   0.0569012   0.025
0.539328   0.0569012   0.025
0.565408   0.0569012   0.025
0.591281   0.0569012   0.025
0.616868   0.0569012   0.025
0.642094   0.0569012   0.025
0.666887   0.0569012   0.025
0.691182   0.0569012   0.025
0.714918   0.0569012   0.025
0.738041   0.0569012   0.025
0.760504   0.0569012   0.025
0.782266   0.0569012   0.025
0.803293   0.0569012   0.025
0.823557   0.0569012   0.025
0.843039   0.0569012   0.025
0.861725   0.0569012   0.025
0.879605   0.0569012   0.025
0.896677   0.0569012   0.025
0.912945   0.0569012   0.025
0.928415   0.0569012   0.025
0.943099   0.0569012   0.025
0.957011   0.0569012   0.025
0.970171   0.0569012   0.025
0.982598   0.0569012   0.025
0.994315   0.0569012   0.025
0.00568455   0.0715849   0.025
0.0174023   0.0715849   0.025
0.0298294   0.0715849   0.025
0.0429888   0.0715849   0.025
0.0569012   0.0715849   0.025
0.0715849   0.0715849   0.025
0.0870549   0.0715849   0.025
0.103323   0.0715849   0.025
0.120395   0.0715849   0.025
0.138275   0.0715849   0.025
0.156961   0.0715849   0.025
0.176443   0.0715849   0.025
0.196707   0.0715849   0.025
0.217734   0.0715849   0.025
0.239496   0.0715849   0.025
0.261959   0.0715849   0.025
0.285082   0.0715849   0.025
0.308818   0.0715849   0.025
0.333113   0.0715849   0.025
0.357906   0.0715849   0.025
0.383132   0.0715849   0.025
0.408719   0.0715849   0.025
0.434592   0.0715849   0.025
0.460672   0.0715849   0.025
0.486877   0.0715849   0.025
0.513123   0.0715849   0.025
0.539328   0.0715849   0.025
0.565408   0.0715849   0.025
0.591281   0.0715849   0.025
0.616868   0.0715849   0.025
0.642094   0.0715849   0.025
0.666887   0.0715849   0.025
0.691182   0.0715849   0.025
0.714918   0.0715849   0.025
0.738041   0.0715849   0.025
0.760504   0.0715849   0.025
0.782266   0.0715849   0.025
0.803293   0.0715849   0.025
0.823557   0.0715849   0.025
0.843039   0.0715849   0.025
0.861725   0.0715849   0.025
0.879605   0.0715849   0.025
0.896677   0.0715849   0.025
0.912945   0.0715849   0.025
0.928415   0.0715849   0.025
0.943099   0.0715849   0.025
0.957011   0.0715849   0.025
0.970171   0.0715849   0.025
0.982598   0.0715849   0.025
0.994315   0.0715849   0.025
0.00568455   0.0870549   0.025
0.0174023   0.0870549   0.025
0.0298294   0.0870549   0.025
0.0429888   0.0870549   0.025
0.0569012   0.0870549   0.025
0.0715849   0.0870549   0.025
0.0870549   0.0870549   0.025
0.103323   0.0870549   0.025
0.120395   0.0870549   0.025
0.138275   0.0870549   0.025
0.156961   0.0870549   0.025
0.176443   0.0870549   0.025
0.196707   0.0870549   0.025
0.217734   0.0870549   0.025
0.239496   0.0870549   0.025
0.261959   0.0870549   0.025
0.285082   0.0870549   0.025
0.308818   0.0870549   0.025
0.333113   0.0870549   0.025
0.357906   0.0870549   0.025
0.383132   0.0870549   0.025
0.408719   0.0870549   0.025
0.434592   0.0870549   0.025
0.460672   0.0870549   0.025
0.486877   0.0870549   0.025
0.513123   0.0870549   0.025
0.539328   0.0870549   0.025
0.565408   0.0870549   0.025
0.591281   0.0870549   0.025
0.616868   0.0870549   0.025
0.642094   0.0870549   0.025
0.666887   0.0870549   0.025
0.691182   0.0870549   0.025
0.714918   0.0870549   0.025
0.738041   0.0870549   0.025
0.760504   0.0870549   0.025
0.782266   0.0870549   0.025
[...]
POINT_DATA   50000
VECTORS Velocidades double

-7.66073e-05 -0.00168353 0
-0.000207286 -0.00330652 0
-0.000284688 -0.00422019 0
-0.000313175 -0.0047335 0
-0.000320429 -0.00497162 0
-0.000333604 -0.00499785 0
-0.00037336 -0.00485107 0
-0.000454209 -0.00455889 0
-0.000585938 -0.00414231 0
-0.000775132 -0.00361654 0
-0.00102722 -0.00298793 0
-0.00115277 -0.00224039 0
-0.00133224 -0.0012754 0
-0.0017735 -0.000549739 0
-0.00228991 5.52777e-05 0
-0.00285407 0.000566426 0
-0.0034566 0.000980653 0
-0.00408844 0.0012811 0
-0.0047365 0.00144538 0
-0.00538186 0.00145209 0
-0.00599917 0.00128672 0
-0.00655723 0.00094662 0
-0.0070217 0.000444498 0
-0.00734693 -0.000189136 0
-0.00749114 -0.000894244 0
-0.00742623 -0.00160372 0
-0.00713489 -0.00223838 0
-0.00662085 -0.00272395 0
-0.00590806 -0.00299676 0
-0.00504118 -0.00301242 0
-0.00408145 -0.00275306 0
-0.00309866 -0.00223094 0
-0.00216097 -0.00148755 0
-0.00132506 -0.000589379 0
-0.000627526 0.000377064 0
-0.000236602 0.00130344 0
3.58743e-06 0.00203059 0
0.000273416 0.0028721 0
0.000438225 0.00367053 0
0.000504176 0.00436701 0
0.000491001 0.00493569 0
0.000418478 0.00536472 0
0.000304827 0.00564803 0
0.000167202 0.00578084 0
2.27413e-05 0.0057564 0
-0.00010998 0.00556209 0
-0.000209164 0.00517237 0
-0.000248847 0.00453285 0
-0.000204624 0.00351709 0
-7.94697e-05 0.00178904 0
-0.000256307 -0.00309504 0
-0.000675255 -0.0064504 0
-0.000892067 -0.00838927 0
-0.000948412 -0.00946505 0
-0.000949009 -0.00994458 0
-0.000976661 -0.00997231 0
-0.00109025 -0.009638 0
-0.00133104 -0.00900453 0
-0.00172762 -0.00811881 0
-0.0023002 -0.0070137 0
-0.00306667 -0.00570146 0
-0.0034022 -0.00414534 0
-0.00396462 -0.00216462 0
-0.00538987 -0.000668563 0
-0.00699845 0.000571073 0
-0.00875412 0.0016151 0
-0.0106318 0.00245866 0
-0.0126009 0.00306582 0
-0.0146162 0.00338811 0
-0.0166125 0.00337862 0
-0.0185049 0.00300452 0
-0.0201913 0.00225786 0
-0.0215613 0.00116374 0
-0.0224862 -0.000214485 0
-0.0228471 -0.00177568 0
-0.0225648 -0.00335001 0
-0.0216068 -0.00477558 0
-0.0199983 -0.00589379 0
-0.0178179 -0.00656513 0
-0.0151983 -0.00668917 0
-0.012315 -0.0062214 0
-0.00936546 -0.00518213 0
-0.00654388 -0.0036558 0
-0.00401519 -0.00178258 0
-0.00189184 0.000251319 0
-0.000737259 0.00220893 0
2.41656e-06 0.00375935 0
0.000883867 0.00554198 0
0.00140503 0.00723481 0
0.0016145 0.00871225 0
0.00157396 0.00992085 0
0.00134378 0.0108366 0
0.000980359 0.0114468 0
0.000537503 0.0117401 0
6.91305e-05 0.0116999 0
-0.000366834 0.0112949 0
-0.000702713 0.0104639 0
-0.000853533 0.00908192 0
-0.000719555 0.00688301 0
-0.000284195 0.00327646 0
-0.000184883 -0.00261506 0
-0.000587431 -0.00605708 0
-0.000958987 -0.00818427 0
-0.00121814 -0.00936364 0
-0.001426 -0.00985413 0
-0.00167436 -0.00982525 0
-0.00204666 -0.00939127 0
-0.00260927 -0.00863348 0
-0.00341247 -0.00761119 0
-0.00449455 -0.00636423 0
-0.0058877 -0.00490567 0
-0.00651865 -0.00319476 0
-0.00748922 -0.00108627 0
-0.00988473 0.000525782 0
-0.012577 0.00184927 0
-0.0155212 0.00295517 0
-0.0186709 0.00383971 0
-0.021966 0.00446085 0
-0.0253214 0.00476038 0
-0.0286214 0.00468063 0
-0.0317192 0.00417904 0
-0.0344431 0.00324121 0
-0.0366096 0.00189135 0
-0.0380488 0.000197253 0
-0.038564 -0.0017645 0
-0.0380188 -0.00375659 0
-0.0364009 -0.00560029 0
-0.0337577 -0.0071106 0
-0.0302164 -0.00811712 0
-0.0259826 -0.00849004 0
-0.0213236 -0.0081626 0
-0.0165393 -0.00714422 0
-0.011926 -0.00552229 0
-0.00773967 -0.00345455 0
-0.00416227 -0.00115953 0
-0.00219408 0.00107943 0
-0.000912315 0.00290014 0
0.000643392 0.00495408 0
0.00161585 0.00690364 0
0.00208872 0.00860791 0
0.00215733 0.0100085 0
0.00191729 0.0110794 0
0.00146177 0.0118047 0
0.000882597 0.0121677 0
0.000272803 0.0121421 0
-0.00027068 0.0116828 0
-0.000646553 0.0107089 0
-0.000759357 0.0090778 0
-0.000564397 0.00654679 0
-0.000194891 0.00275563 0
-0.000116821 -0.00226808 0
-0.000449256 -0.00558462 0
-0.000898921 -0.00778272 0
-0.00137071 -0.00902643 0
-0.00187482 -0.00951018 0
-0.00247581 -0.00940123 0
-0.00325348 -0.00883085 0
-0.00428331 -0.00789936 0
-0.00562949 -0.00668141 0
-0.00734444 -0.00522701 0
-0.00947014 -0.0035547 0
-0.0104616 -0.00163086 0
-0.0118747 0.000648894 0
-0.0152663 0.00242706 0
-0.0190554 0.00388376 0
-0.0231948 0.00508877 0
-0.0276165 0.00603456 0
-0.0322262 0.00666884 0
-0.0368944 0.00691906 0
-0.0414514 0.00671217 0
-0.0456885 0.00599234 0
-0.0493678 0.00473698 0
-0.0522387 0.00296978 0
-0.0541267 0.00076528 0
-0.0547559 -0.00179541 0
-0.0539283 -0.00441794 0
-0.0516818 -0.00688947 0
-0.048082 -0.00898703 0
-0.0432943 -0.0104972 0
-0.0375808 -0.0112497 0
-0.0312794 -0.0111465 0
-0.0247704 -0.0101807 0
-0.0184341 -0.0084418 0
-0.012606 -0.00610947 0
-0.00753813 -0.00344345 0
-0.00472421 -0.000781243 0
-0.00285523 0.00147415 0
-0.000529133 0.00394451 0
0.00101037 0.00627896 0
0.00188092 0.00832449 0
0.00220599 0.0100159 0
0.00211071 0.0113212 0
0.0017204 0.0122176 0
0.00116004 0.0126786 0
0.000553565 0.012666 0
2.06519e-05 0.012121 0
-0.000332938 0.0109548 0
-0.000438746 0.00904237 0
-0.000310086 0.00623345 0
-9.78403e-05 0.00241997 0
-8.37873e-05 -0.0020237 0
-0.000380791 -0.00509027 0
-0.000897521 -0.00719581 0
-0.00157841 -0.00839004 0
-0.00241708 -0.00879672 0
-0.00345097 -0.00855789 0
-0.00474195 -0.00780581 0
-0.0063594 -0.0066521 0
-0.00836973 -0.00518452 0
-0.010831 -0.00346452 0
-0.0137883 -0.00152133 0
-0.0151943 0.000660953 0
-0.0170865 0.00314098 0
-0.0215208 0.00512823 0
-0.0264371 0.00676474 0
-0.0317885 0.00810451 0
-0.0374866 0.00912752 0
-0.0434015 0.00976559 0
-0.0493572 0.00992726 0
-0.0551292 0.00952054 0
-0.0604498 0.00847415 0
-0.0650206 0.0067572 0
-0.0685344 0.00439508 0
-0.0708296 0.00147608 0
-0.0715579 -0.001886 0
-0.0704682 -0.00534745 0
-0.0676592 -0.00865352 0
-0.0632066 -0.0115336 0
-0.0572999 -0.013721 0
-0.0502393 -0.014995 0
-0.042414 -0.0152179 0
-0.0342666 -0.0143597 0
-0.0262482 -0.0125083 0
-0.018769 -0.00986545 0
-0.0121551 -0.00673512 0
-0.00846317 -0.00351149 0
-0.00595515 -0.000645059 0
-0.00273494 0.0023878 0
-0.000488594 0.00523301 0
0.000932053 0.00773272 0
0.0016725 0.00981418 0
0.00188047 0.0114359 0
0.00170617 0.0125636 0
0.00129914 0.0131596 0
0.00080257 0.0131751 0
0.000344093 0.0125472 0
2.10791e-05 0.0111994 0
-0.000120092 0.00905328 0
-0.000105053 0.0060598 0
-3.33828e-05 0.00226156 0
-7.79752e-05 -0.00181498 0
-0.000391106 -0.00454393 0
-0.00101143 -0.00640253 0
-0.00192595 -0.00740169 0
-0.0031343 -0.0076194 0
-0.00465947 -0.00716874 0
-0.00654499 -0.00617123 0
-0.00884648 -0.00473979 0
-0.0116231 -0.0029694 0
-0.0149297 -0.000931663 0
-0.0188081 0.0013301 0
-0.0206744 0.00380678 0
-0.023081 0.00650712 0
-0.0286136 0.00873841 0
-0.034698 0.0105945 0
-0.0412864 0.0120986 0
-0.0482702 0.0132072 0
-0.0554842 0.0138293 0
-0.0627066 0.0138502 0
-0.0696613 0.0131563 0
-0.0760271 0.0116606 0
-0.0814546 0.00932549 0
-0.0855923 0.00618239 0
-0.0882808 0.00234213 0
-0.0891222 -0.00202988 0
-0.0878416 -0.0065325 0
-0.084581 -0.0108779 0
-0.0794123 -0.0147402 0
-0.0725319 -0.0177903 0
-0.0642593 -0.0197478 0
-0.0550166 -0.0204257 0
-0.0452945 -0.0197616 0
-0.0356061 -0.0178343 0
-0.0264361 -0.0148628 0
-0.018192 -0.0111929 0
-0.0135778 -0.00727563 0
-0.0103662 -0.00361631 0
-0.00609886 0.000123432 0
-0.00297779 0.00360346 0
-0.000832374 0.00667154 0
0.000496189 0.00924778 0
0.00117001 0.0112771 0
0.0013562 0.0127111 0
0.00122064 0.0135001 0
0.000917751 0.0135904 0
0.000578185 0.0129258 0
0.00029538 0.0114558 0
0.00011443 0.00915314 0
3.02375e-05 0.00604133 0
4.35827e-06 0.00222537 0
-9.02952e-05 -0.00158559 0
-0.000466308 -0.00387448 0
-0.00124427 -0.00533776 0
-0.00244007 -0.00598699 0
-0.00406462 -0.00588107 0
-0.00613561 -0.00511204 0
-0.00868255 -0.00378692 0
-0.0117458 -0.00201234 0
-0.0153719 0.000116103 0
-0.0196066 0.00251984 0
-0.0244829 0.00514044 0
-0.0268474 0.0079399 0
-0.0298002 0.010875 0
-0.0364879 0.0133784 0
-0.0437852 0.0154852 0
-0.0516395 0.0171739 0
-0.0599218 0.0183664 0
-0.0684331 0.0189414 0
-0.0769095 0.0187571 0
-0.0850293 0.0176775 0
-0.0924269 0.0156007 0
-0.0987141 0.0124863 0
-0.103507 0.00837638 0
-0.106603 0.00341153 0
-0.107603 -0.00218466 0
-0.106263 -0.00792332 0
-0.102713 -0.0135139 0
-0.0970031 -0.0185689 0
-0.0893183 -0.0226879 0
-0.0799779 -0.0255212 0
-0.0694198 -0.0268209 0
-0.0581701 -0.0264795 0
-0.0467988 -0.0245539 0
-0.0358671 -0.02127 0
-0.0258743 -0.0170084 0
-0.0202748 -0.0122744 0
-0.0162771 -0.0076374 0
-0.0107736 -0.00305236 0
-0.00657538 0.00118509 0
-0.00350264 0.00494147 0
-0.00139504 0.00812957 0
-8.48211e-05 0.0106763 0
0.000605498 0.0125156 0
0.000853351 0.0135865 0
0.000822641 0.0138347 0
0.00065069 0.0132171 0
0.00043849 0.0117119 0
0.000247379 0.00933257 0
0.000105414 0.00614303 0
2.42592e-05 0.002265 0
-0.000115036 -0.00129092 0
-0.000592211 -0.00299852 0
-0.0015829 -0.00390769 0
-0.00311732 -0.00404604 0
-0.00521347 -0.00347072 0
-0.00788607 -0.00226232 0
-0.0111537 -0.000514382 0
-0.0150424 0.0016771 0
-0.0195844 0.00422142 0
-0.0248127 0.00703698 0
-0.0307489 0.0100512 0
-0.0336405 0.0131963 0
-0.0371662 0.0163775 0
-0.0450608 0.0191755 0
-0.0536134 0.0215551 0
-0.0627622 0.0234379 0
-0.072357 0.0247011 0
-0.0821681 0.0251872 0
-0.0918954 0.0247242 0
-0.101181 0.0231541 0
-0.109627 0.0203636 0
-0.116818 0.0163128 0
-0.122351 0.0110596 0
-0.125893 0.00477608 0
-0.127126 -0.00226067 0
-0.12592 -0.00942337 0
-0.122296 -0.016471 0
-0.116263 -0.0229463 0
-0.107974 -0.0283698 0
-0.0977293 -0.032312 0
-0.0859665 -0.0344501 0
-0.0732342 -0.0346144 0
-0.0601534 -0.0328217 0
-0.0473651 -0.0292873 0
-0.0354709 -0.0244137 0
-0.0288043 -0.0187559 0
-0.0239159 -0.0129556 0
-0.0169421 -0.00739808 0
-0.0114209 -0.002281 0
-0.00718311 0.00229584 0
-0.00408118 0.00623445 0
-0.00194974 0.00943655 0
-0.000604607 0.0118132 0
0.000142995 0.0132911 0
0.000469958 0.0138164 0
0.000528142 0.0133595 0
0.00043721 0.0119224 0
0.000284733 0.00954575 0
0.000133318 0.00631296 0
3.22338e-05 0.00234612 0
-0.000148833 -0.000893481 0
-0.000757833 -0.00183177 0
-0.00201058 -0.00200519 0
-0.00394023 -0.00146148 0
-0.00656471 -0.000264101 0
-0.00989334 0.00151163 0
-0.0139342 0.00378411 0
-0.0186998 0.00647059 0
-0.0242079 0.00948971 0
-0.0304779 0.0127608 0
-0.037519 0.0161995 0
-0.0409572 0.0197093 0
-0.0450756 0.0231471 0
-0.0542184 0.0262577 0
-0.0640607 0.0289233 0
-0.074527 0.0309987 0
-0.0854459 0.0323088 0
-0.0965615 0.0326553 0
-0.107546 0.0318355 0
-0.118016 0.0296714 0
-0.127554 0.0260417 0
-0.135731 0.0209115 0
-0.142132 0.0143557 0
-0.146178 0.00657469 0
-0.147744 -0.00211364 0
-0.146922 -0.0108838 0
-0.143486 -0.0196104 0
-0.137386 -0.0277558 0
-0.12873 -0.0347549 0
-0.11778 -0.0400883 0
-0.104953 -0.043342 0
-0.0908051 -0.0442629 0
-0.0759984 -0.0428028 0
-0.0612531 -0.039142 0
-0.0472817 -0.0336847 0
-0.0394544 -0.0270241 0
-0.0335485 -0.0198801 0
-0.0248152 -0.0132413 0
-0.0176726 -0.00712003 0
-0.0119892 -0.00156954 0
-0.00764657 0.00329075 0
-0.00448794 0.00732468 0
-0.00232257 0.010412 0
-0.000946644 0.0124623 0
-0.000163525 0.0134193 0
0.000201926 0.0132635 0
0.00029657 0.0120135 0
0.000239035 0.00972669 0
0.000124606 0.00649611 0
3.19136e-05 0.00244244 0
-0.000189482 -0.000359975 0
-0.00095444 -0.000293286 0
-0.00251011 0.000479481 0
-0.00488425 0.00189074 0
-0.0080876 0.00386895 0
-0.0121198 0.00634254 0
-0.0169766 0.00924246 0
-0.0226569 0.012502 0
-0.0291646 0.0160535 0
-0.0365057 0.0198211 0
-0.0446779 0.0237118 0
-0.0486722 0.0276034 0
-0.0533939 0.0313093 0
-0.0638108 0.0347468 0
-0.0749629 0.0377033 0
-0.0867581 0.0399597 0
-0.0990052 0.0412841 0
-0.111428 0.0414357 0
-0.123679 0.0401821 0
-0.135364 0.0373284 0
-0.146056 0.0327495 0
-0.155321 0.0264177 0
-0.162742 0.0184237 0
-0.167351 0.00898837 0
-0.169363 -0.00154537 0
-0.169211 -0.0121052 0
-0.166258 -0.0227443 0
-0.160387 -0.0328312 0
-0.151646 -0.0417124 0
-0.140242 -0.04877 0
-0.126548 -0.0534834 0
-0.111107 -0.0554917 0
-0.0946054 -0.054651 0
-0.0778309 -0.0510729 0
-0.0616098 -0.0451329 0
-0.0525343 -0.0374415 0
-0.0454661 -0.0287946 0
-0.0346228 -0.0209935 0
-0.0255011 -0.0137362 0
-0.018044 -0.00702666 0
-0.0121785 -0.00102891 0
-0.00775999 0.00406261 0
-0.00458838 0.00808292 0
-0.00243848 0.0109161 0
-0.00108581 0.0124981 0
-0.000323677 0.0128133 0
2.847e-05 0.011891 0
0.000123242 0.00979945 0
8.74727e-05 0.00663895 0
2.5651e-05 0.00253275 0
-0.000235193 0.000339588 0
-0.00117407 0.00169178 0
-0.00306342 0.00365064 0
-0.00591955 0.00613064 0
-0.00973999 0.00905426 0
-0.0145101 0.0123563 0
-0.020211 0.0159839 0
-0.0268268 0.0198911 0
-0.0343482 0.0240285 0
-0.0427691 0.0283299 0
-0.052077 0.0326973 0
-0.0566259 0.0369866 0
-0.0619507 0.0409748 0
-0.0736463 0.0447497 0
-0.0861073 0.0479945 0
-0.0992239 0.0504119 0
-0.112788 0.0517121 0
-0.126508 0.0516126 0
-0.14003 0.0498542 0
-0.152953 0.0462292 0
-0.164854 0.0406111 0
-0.175305 0.0329806 0
-0.183884 0.0234407 0
-0.189102 0.0122232 0
-0.191666 -0.000316605 0
-0.192476 -0.0128501 0
-0.190311 -0.0256408 0
-0.184989 -0.0379522 0
-0.176492 -0.0490469 0
-0.164954 -0.0582051 0
-0.150682 -0.0647865 0
-0.134173 -0.0682992 0
-0.116104 -0.0684688 0
-0.0973083 -0.0652953 0
-0.0787132 -0.059082 0
-0.0683392 -0.0504202 0
-0.0599585 -0.0401651 0
-0.0465958 -0.0311599 0
-0.0350817 -0.0226201 0
-0.0254775 -0.0145222 0
-0.0177705 -0.00711512 0
-0.0118296 -0.000680814 0
-0.00744107 0.00455229 0
-0.00435136 0.00843114 0
-0.00230004 0.0108756 0
-0.00104127 0.0118686 0
-0.000355126 0.0114453 0
-5.18555e-05 0.0096829 0
2.79641e-05 0.00669041 0
1.50407e-05 0.00259926 0
-0.000284174 0.00123127 0
-0.00140832 0.00418856 0
-0.00365031 0.00759967 0
-0.00701059 0.0113637 0
-0.0114689 0.0154018 0
-0.0169925 0.0196611 0
-0.0235454 0.0241115 0
-0.0310964 0.0287346 0
-0.0396228 0.0335057 0
-0.0491079 0.0383734 0
-0.0595311 0.0432393 0
-0.064621 0.0479421 0
-0.070536 0.0522291 0
-0.0834863 0.056348 0
-0.0972263 0.0598711 0
-0.111628 0.0624225 0
-0.12647 0.0636564 0
-0.141452 0.0632518 0
-0.15622 0.0609265 0
-0.170376 0.0564631 0
-0.183505 0.0497364 0
-0.195188 0.0407348 0
-0.205011 0.0295705 0
-0.210846 0.0164796 0
-0.214039 0.00182429 0
-0.216065 -0.0128671 0
-0.214968 -0.0280374 0
-0.210522 -0.0428465 0
-0.202642 -0.0564869 0
-0.191373 -0.0681421 0
-0.176929 -0.0770483 0
-0.159719 -0.0825636 0
-0.140368 -0.0842485 0
-0.119707 -0.0819424 0
-0.0987297 -0.0758179 0
-0.0870905 -0.0663909 0
-0.0772657 -0.0545347 0
-0.0609383 -0.0443336 0
-0.0465842 -0.0343432 0
-0.0344288 -0.0245765 0
-0.0245311 -0.0154252 0
-0.0167753 -0.0072963 0
-0.0109316 -0.000505252 0
-0.00671281 0.00474242 0
-0.00381588 0.00834072 0
-0.00194909 0.0102649 0
-0.000847403 0.0105532 0
-0.000279553 0.00929158 0
-5.0129e-05 0.00660093 0
1.07786e-06 0.00262639 0
-0.000334385 0.00233551 0
-0.00164759 0.00724753 0
-0.00424732 0.0123967 0
-0.00811526 0.01767 0
-0.0132104 0.0229935 0
-0.0194794 0.028335 0
-0.0268674 0.0336967 0
-0.0353269 0.0390962 0
-0.0448227 0.0445418 0
-0.0553283 0.0500027 0
-0.0668172 0.0553854 0
-0.0724211 0.0605165 0
-0.0788973 0.0651212 0
-0.0930421 0.0695848 0
-0.107993 0.0733684 0
-0.123603 0.0760202 0
-0.139642 0.0771427 0
-0.155805 0.0763805 0
-0.17174 0.0734325 0
-0.187059 0.0680747 0
-0.201357 0.0601852 0
-0.21423 0.0497603 0
-0.225281 0.0369213 0
-0.231681 0.0219093 0
-0.235528 0.00509645 0
-0.238932 -0.0119266 0
-0.239121 -0.0296648 0
-0.235857 -0.0472012 0
-0.228989 -0.0636817 0
-0.218468 -0.0782116 0
-0.204385 -0.0899124 0
-0.18702 -0.0979857 0
-0.166883 -0.1018 0
-0.144734 -0.100983 0
-0.12157 -0.0955084 0
-0.10884 -0.0857383 0
-0.0975002 -0.0724894 0
-0.077785 -0.0611574 0
-0.0601604 -0.0495294 0
-0.0450504 -0.0377693 0
-0.0325962 -0.0264809 0
-0.0227058 -0.0162386 0
-0.0151383 -0.007474 0
-0.00957311 -0.000465341 0
-0.00566109 0.00464251 0
-0.00305924 0.00780962 0
-0.00145146 0.00907452 0
-0.000559262 0.00853262 0
-0.000145786 0.00631967 0
-1.5885e-05 0.00259943 0
-0.000383418 0.00366467 0
-0.00188062 0.0108983 0
-0.00482704 0.0180816 0
-0.00918442 0.0250929 0
-0.0148899 0.0318708 0
-0.0218682 0.0384138 0
-0.0300449 0.044767 0
-0.0393564 0.0509951 0
-0.0497548 0.0571478 0
-0.0612052 0.0632225 0
-0.0736759 0.069136 0
-0.0797519 0.0747082 0
-0.0867416 0.0796487 0
-0.101976 0.0844494 0
-0.118019 0.0884655 0
-0.134708 0.0911757 0
-0.151803 0.0921354 0
-0.168997 0.09096 0
-0.185942 0.0873328 0
-0.202257 0.0810266 0
-0.217552 0.0719253 0
-0.231443 0.0600374 0
-0.243564 0.0454993 0
-0.25041 0.0285655 0
-0.254859 0.00962991 0
-0.259663 -0.00986472 0
-0.261253 -0.0302825 0
-0.259411 -0.0506897 0
-0.253937 -0.0702174 0
-0.244685 -0.087926 0
-0.231607 -0.102849 0
-0.214809 -0.114043 0
-0.19462 -0.120675 0
-0.171644 -0.122122 0
-0.146782 -0.118089 0
-0.133337 -0.108689 0
-0.120531 -0.0945693 0
-0.0971384 -0.0822333 0
-0.0759172 -0.0687922 0
-0.0575018 -0.0547066 0
-0.0421335 -0.0408563 0
-0.0297697 -0.0280272 0
-0.0201784 -0.0168045 0
-0.0130163 -0.00756738 0
-0.00789061 -0.000519232 0
-0.00440412 0.00427354 0
-0.00218415 0.0068448 0
-0.000898321 0.00729907 0
-0.000261358 0.00578953 0
-3.62406e-05 0.00250235 0
-0.000428487 0.00522017 0
-0.00209452 0.0151426 0
-0.00535834 0.024654 0
-0.0101626 0.0336279 0
-0.0164231 0.0420229 0
-0.0240436 0.0498786 0
-0.0329304 0.0572948 0
-0.0430039 0.0643946 0
-0.0542039 0.0712786 0
-0.0664873 0.0779803 0
-0.0798175 0.0844324 0
-0.0863076 0.0904536 0
-0.0937412 0.0957434 0
-0.109905 0.100861 0
-0.126863 0.105067 0
-0.144436 0.10778 0
-0.16237 0.108514 0
-0.180359 0.106857 0
-0.198053 0.102482 0
-0.21508 0.095163 0
-0.231068 0.0847955 0
-0.245658 0.0714096 0
-0.258532 0.0551693 0
-0.265635 0.0363588 0
-0.270548 0.0154089 0
-0.276598 -0.00662734 0
-0.279562 -0.0297234 0
-0.279272 -0.0530161 0
-0.275501 -0.0756577 0
-0.268021 -0.096712 0
-0.256637 -0.11517 0
-0.241254 -0.129982 0
-0.221963 -0.140126 0
-0.199122 -0.144715 0
-0.173421 -0.143129 0
-0.159864 -0.135147 0
-0.145837 -0.121098 0
-0.118777 -0.10797 0
-0.0938582 -0.092634 0
-0.0719114 -0.0759629 0
-0.0533201 -0.0591497 0
-0.0381449 -0.0432383 0
-0.0262053 -0.0290165 0
-0.0171614 -0.0170079 0
-0.0105889 -0.00750552 0
-0.00603857 -0.000621559 0
-0.00307747 0.00366352 0
-0.00131267 0.00546031 0
-0.000402797 0.00494035 0
-6.11674e-05 0.00231512 0
-0.00046652 0.00698965 0
-0.00227516 0.0199478 0
-0.00580739 0.0320649 0
-0.0109897 0.0432124 0
-0.0177198 0.0533759 0
-0.0258825 0.0626456 0
-0.0353665 0.071187 0
-0.0460769 0.0791923 0
-0.0579413 0.086823 0
-0.0709075 0.0941557 0
-0.0849337 0.101145 0
-0.091762 0.107614 0
-0.0995463 0.113256 0
-0.116422 0.118651 0
-0.134052 0.122987 0
-0.152237 0.125628 0
-0.170713 0.126049 0
-0.189164 0.123821 0
-0.207241 0.118606 0
-0.224579 0.110189 0
-0.240824 0.0984862 0
-0.255661 0.0835658 0
-0.268831 0.0656369 0
-0.275945 0.0450328 0
-0.281104 0.0222337 0
-0.288067 -0.00230319 0
-0.292217 -0.0279382 0
-0.293459 -0.0539701 0
-0.291567 -0.0796098 0
-0.286254 -0.103983 0
-0.277198 -0.126099 0
-0.2641 -0.144862 0
-0.24678 -0.159113 0
-0.225279 -0.167721 0
-0.199964 -0.169726 0
-0.187096 -0.164504 0
-0.172351 -0.151924 0
-0.142133 -0.138378 0
-0.113774 -0.121307 0
-0.0882891 -0.101988 0
-0.0662801 -0.0819264 0
-0.0479977 -0.0624737 0
-0.0333831 -0.044688 0
-0.0221475 -0.0293014 0
-0.0138616 -0.0167464 0
-0.00803526 -0.00721397 0
-0.00417602 -0.000717504 0
-0.00182557 0.00285153 0
-0.000579135 0.00368137 0
-9.25161e-05 0.00201053 0
-0.000494349 0.0089447 0
-0.00240808 0.0252418 0
-0.00613968 0.0402092 0
-0.011605 0.0537181 0
-0.0186887 0.0657852 0
-0.0272609 0.0765586 0
-0.0371952 0.0862779 0
-0.0483824 0.0952135 0
-0.0607377 0.103596 0
-0.0741984 0.111553 0
-0.0887151 0.119067 0
-0.0957886 0.125968 0
-0.103806 0.131947 0
-0.121116 0.137558 0
-0.13911 0.141938 0
-0.157567 0.144403 0
-0.176207 0.144399 0
-0.194706 0.141476 0
-0.21271 0.135301 0
-0.229866 0.125673 0
-0.245848 0.112551 0
-0.26039 0.0960565 0
-0.273306 0.0764649 0
-0.280161 0.054176 0
-0.285296 0.0297238 0
-0.292699 0.00286916 0
-0.297705 -0.0250246 0
-0.300293 -0.0534796 0
-0.300269 -0.081803 0
-0.297328 -0.109238 0
-0.291057 -0.134885 0
-0.280986 -0.157682 0
-0.266672 -0.176411 0
-0.247813 -0.189764 0
-0.224375 -0.196474 0