# vtk DataFile Version 2.0
Presion
ASCII

DATASET STRUCTURED_GRID
DIMENSIONS   50   50   20

POINTS   50000   double
0.00568455   0.00568455   0.025
0.0174023   0.00568455   0.025
0.0298294   0.00568455   0.025
0.0429888   0.00568455   0.025
0.0569012   0.00568455   0.025
0.0715849   0.00568455   0.025
0.0870549   0.00568455   0.025
0.103323   0.00568455   0.025
0.120395   0.00568455   0.025
0.138275   0.00568455   0.025
0.156961   0.00568455   0.025
0.176443   0.00568455   0.025
0.196707   0.00568455   0.025
0.217734   0.00568455   0.025
0.239496   0.00568455   0.025
0.261959   0.00568455   0.025
0.285082   0.00568455   0.025
0.308818   0.00568455   0.025
0.333113   0.00568455   0.025
0.357906   0.00568455   0.025
0.383132   0.00568455   0.025
0.408719   0.00568455   0.025
0.434592   0.00568455   0.025
0.460672   0.00568455   0.025
0.486877   0.00568455   0.025
0.513123   0.00568455   0.025
0.539328   0.00568455   0.025
0.565408   0.00568455   0.025
0.591281   0.00568455   0.025
0.616868   0.00568455   0.025
0.642094   0.00568455   0.025
0.666887   0.00568455   0.025
0.691182   0.00568455   0.025
0.714918   0.00568455   0.025
0.738041   0.00568455   0.025
0.760504   0.00568455   0.025
0.782266   0.00568455   0.025
0.803293   0.00568455   0.025
0.823557   0.00568455   0.025
0.843039   0.00568455   0.025
0.861725   0.00568455   0.025
0.879605   0.00568455   0.025
0.896677   0.00568455   0.025
0.912945   0.00568455   0.025
0.928415   0.00568455   0.025
0.943099   0.00568455   0.025
0.957011   0.00568455   0.025
0.970171   0.00568455   0.025
0.982598   0.00568455   0.025
0.994315   0.00568455   0.025
0.00568455   0.0174023   0.025
0.0174023   0.0174023   0.025
0.0298294   0.0174023   0.025
0.0429888   0.0174023   0.025
0.0569012   0.0174023   0.025
0.0715849   0.0174023   0.025
0.0870549   0.0174023   0.025
0.103323   0.0174023   0.025
0.120395   0.0174023   0.025
0.138275   0.0174023   0.025
0.156961   0.0174023   0.025
0.176443   0.0174023   0.025
0.196707   0.0174023   0.025
0.217734   0.0174023   0.025
0.239496   0.0174023   0.025
0.261959   0.0174023   0.025
0.285082   0.0174023   0.025
0.308818   0.0174023   0.025
0.333113   0.0174023   0.025
0.357906   0.0174023   0.025
0.383132   0.0174023   0.025
0.408719   0.0174023   0.025
0.434592   0.0174023   0.025
0.460672   0.0174023   0.025
0.486877   0.0174023   0.025
0.513123   0.0174023   0.025
0.539328   0.0174023   0.025
0.565408   0.0174023   0.025
0.591281   0.0174023   0.025
0.616868   0.0174023   0.025
0.642094   0.0174023   0.025
0.666887   0.0174023   0.025
0.691182   0.0174023   0.025
0.714918   0.0174023   0.025
0.738041   0.0174023   0.025
0.760504   0.0174023   0.025
0.782266   0.0174023   0.025
0.803293   0.0174023   0.025
0.823557   0.0174023   0.025
0.843039   0.0174023   0.025
0.861725   0.0174023   0.025
0.879605   0.0174023   0.025
0.896677   0.0174023   0.025
0.912945   0.0174023   0.025
0.928415   0.0174023   0.025
0.943099   0.0174023   0.025
0.957011   0.0174023   0.025
0.970171   0.0174023   0.025
0.982598   0.0174023   0.025
0.994315   0.0174023   0.025
0.00568455   0.0298294   0.025
0.0174023   0.0298294   0.025
0.0298294   0.0298294   0.025
0.0429888   0.0298294   0.025
0.0569012   0.0298294   0.025
0.0715849   0.0298294   0.025
0.0870549   0.0298294   0.025
0.103323   0.0298294   0.025
0.120395   0.0298294   0.025
0.138275   0.0298294   0.025
0.156961   0.0298294   0.025
0.176443   0.0298294   0.025
0.196707   0.0298294   0.025
0.217734   0.0298294   0.025
0.239496   0.0298294   0.025
0.261959   0.0298294   0.025
0.285082   0.0298294   0.025
0.308818   0.0298294   0.025
0.333113   0.0298294   0.025
0.357906   0.0298294   0.025
0.383132   0.0298294   0.025
0.408719   0.0298294   0.025
0.434592   0.0298294   0.025
0.460672   0.0298294   0.025
0.486877   0.0298294   0.025
0.513123   0.0298294   0.025
0.539328   0.0298294   0.025
0.565408   0.0298294   0.025
0.591281   0.0298294   0.025
0.616868   0.0298294   0.025
0.642094   0.0298294   0.025
0.666887   0.0298294   0.025
0.691182   0.0298294   0.025
0.714918   0.0298294   0.025
0.738041   0.0298294   0.025
0.760504   0.0298294   0.025
0.782266   0.0298294   0.025
0.803293   0.0298294   0.025
0.823557   0.0298294   0.025
0.843039   0.0298294   0.025
0.861725   0.0298294   0.025
0.879605   0.0298294   0.025
0.896677   0.0298294   0.025
0.912945   0.0298294   0.025
0.928415   0.0298294   0.025
0.943099   0.0298294   0.025
0.957011   0.0298294   0.025
0.970171   0.0298294   0.025
0.982598   0.0298294   0.025
0.994315   0.0298294   0.025
0.00568455   0.0429888   0.025
0.0174023   0.0429888   0.025
0.0298294   0.0429888   0.025
0.0429888   0.0429888   0.025
0.0569012   0.0429888   0.025
0.0715849   0.0429888   0.025
0.0870549   0.0429888   0.025
0.103323   0.0429888   0.025
0.120395   0.0429888   0.025
0.138275   0.0429888   0.025
0.156961   0.0429888   0.025
0.176443   0.0429888   0.025
0.196707   0.0429888   0.025
0.217734   0.0429888   0.025
0.239496   0.0429888   0.025
0.261959   0.0429888   0.025
0.285082   0.0429888   0.025
0.308818   0.0429888   0.025
0.333113   0.0429888   0.025
0.357906   0.0429888   0.025
0.383132   0.0429888   0.025
0.408719   0.0429888   0.025
0.434592   0.0429888   0.025
0.460672   0.0429888   0.025
0.486877   0.0429888   0.025
0.513123   0.0429888   0.025
0.539328   0.0429888   0.025
0.565408   0.0429888   0.025
0.591281   0.0429888   0.025
0.616868   0.0429888   0.025
0.642094   0.0429888   0.025
0.666887   0.0429888   0.025
0.691182   0.0429888   0.025
0.714918   0.0429888   0.025
0.738041   0.0429888   0.025
0.760504   0.0429888   0.025
0.782266   0.0429888   0.025
0.803293   0.0429888   0.025
0.823557   0.0429888   0.025
0.843039   0.0429888   0.025
0.861725   0.0429888   0.025
0.879605   0.0429888   0.025
0.896677   0.0429888   0.025
0.912945   0.0429888   0.025
0.928415   0.0429888   0.025
0.943099   0.0429888   0.025
0.957011   0.0429888   0.025
0.970171   0.0429888   0.025
0.982598   0.0429888   0.025
0.994315   0.0429888   0.025
0.00568455   0.0569012   0.025
0.0174023   0.0569012   0.025
0.0298294   0.0569012   0.025
0.0429888   0.0569012   0.025
0.0569012   0.0569012   0.025
0.0715849   0.0569012   0.025
0.0870549   0.0569012   0.025
0.103323   0.0569012   0.025
0.120395   0.0569012   0.025
0.138275   0.0569012   0.025
0.156961   0.0569012   0.025
0.176443   0.0569012   0.025
0.196707   0.0569012   0.025
0.217734   0.0569012   0.025
0.239496   0.0569012   0.025
0.261959   0.0569012   0.025
0.285082   0.0569012   0.025
0.308818   0.0569012   0.025
0.333113   0.0569012   0.025
0.357906   0.0569012   0.025
0.383132   0.0569012   0.025
0.408719   0.0569012   0.025
0.434592   0.0569012   0.025
0.460672   0.0569012   0.025
0.486877   0.0569012   0.025
0.513123   0.0569012   0.025
0.539328   0.0569012   0.025
0.565408   0.0569012   0.025
0.591281   0.0569012   0.025
0.616868   0.0569012   0.025
0.642094   0.0569012   0.025
0.666887   0.0569012   0.025
0.691182   0.0569012   0.025
0.714918   0.0569012   0.025
0.738041   0.0569012   0.025
0.760504   0.0569012   0.025
0.782266   0.0569012   0.025
0.803293   0.0569012   0.025
0.823557   0.0569012   0.025
0.843039   0.0569012   0.025
0.861725   0.0569012   0.025
0.879605   0.0569012   0.025
0.896677   0.0569012   0.025
0.912945   0.0569012   0.025
0.928415   0.0569012   0.025
0.943099   0.0569012   0.025
0.957011   0.0569012   0.025
0.970171   0.0569012   0.025
0.982598   0.0569012   0.025
0.994315   0.0569012   0.025
0.00568455   0.0715849   0.025
0.0174023   0.0715849   0.025
0.0298294   0.0715849   0.025
0.0429888   0.0715849   0.025
0.0569012   0.0715849   0.025
0.0715849   0.0715849   0.025
0.0870549   0.0715849   0.025
0.103323   0.0715849   0.025
0.120395   0.0715849   0.025
0.138275   0.0715849   0.025
0.156961   0.0715849   0.025
0.176443   0.0715849   0.025
0.196707   0.0715849   0.025
0.217734   0.0715849   0.025
0.239496   0.0715849   0.025
0.261959   0.0715849   0.025
0.285082   0.0715849   0.025
0.308818   0.0715849   0.025
0.333113   0.0715849   0.025
0.357906   0.0715849   0.025
0.383132   0.0715849   0.025
0.408719   0.0715849   0.025
0.434592   0.0715849   0.025
0.460672   0.0715849   0.025
0.486877   0.0715849   0.025
0.513123   0.0715849   0.025
0.539328   0.0715849   0.025
0.565408   0.0715849   0.025
0.591281   0.0715849   0.025
0.616868   0.0715849   0.025
0.642094   0.0715849   0.025
0.666887   0.0715849   0.025
0.691182   0.0715849   0.025
0.714918   0.0715849   0.025
0.738041   0.0715849   0.025
0.760504   0.0715849   0.025
0.782266   0.0715849   0.025
0.803293   0.0715849   0.025
0.823557   0.0715849   0.025
0.843039   0.0715849   0.025
0.861725   0.0715849   0.025
0.879605   0.0715849   0.025
0.896677   0.0715849   0.025
0.912945   0.0715849   0.025
0.928415   0.0715849   0.025
0.943099   0.0715849   0.025
0.957011   0.0715849   0.025
0.970171   0.0715849   0.025
0.982598   0.0715849   0.025
0.994315   0.0715849   0.025
0.00568455   0.0870549   0.025
0.0174023   0.0870549   0.025
0.0298294   0.0870549   0.025
0.0429888   0.0870549   0.025
0.0569012   0.0870549   0.025
0.0715849   0.0870549   0.025
0.0870549   0.0870549   0.025
0.103323   0.0870549   0.025
0.120395   0.0870549   0.025
0.138275   0.0870549   0.025
0.156961   0.0870549   0.025
0.176443   0.0870549   0.025
0.196707   0.0870549   0.025
0.217734   0.0870549   0.025
0.239496   0.0870549   0.025
0.261959   0.0870549   0.025
0.285082   0.0870549   0.025
0.308818   0.0870549   0.025
0.333113   0.0870549   0.025
0.357906   0.0870549   0.025
0.383132   0.0870549   0.025
0.408719   0.0870549   0.025
0.434592   0.0870549   0.025
0.460672   0.0870549   0.025
0.486877   0.0870549   0.025
0.513123   0.0870549   0.025
0.539328   0.0870549   0.025
0.565408   0.0870549   0.025
0.591281   0.0870549   0.025
0.616868   0.0870549   0.025
0.642094   0.0870549   0.025
0.666887   0.0870549   0.025
0.691182   0.0870549   0.025
0.714918   0.0870549   0.025
0.738041   0.0870549   0.025
0.760504   0.0870549   0.025
0.782266   0.0870549   0.025
[...]
POINT_DATA   50000
SCALARS Presion double
LOOKUP_TABLE   Presion

0 0 0 0 0 0 0 0 0 0 0 0 0 0 0 0 0 0 0 0 0 0 0 0 0 0 0 0 0 0 0 0 0 0 0 0 0 0 0 0 0 0 0 0 0 0 0 0 0 0 0.00163891 0.0017841 0.0019593 0.00208595 0.00214982 0.0021521 0.00209737 0.00199072 0.00183693 0.00164018 0.00140372 0.00112917 0.000675697 0.000401212 0.000156545 -5.63662e-05 -0.000232578 -0.000363893 -0.000440707 -0.000454369 -0.000399588 -0.000276432 -9.12989e-05 0.000143367 0.000391385 0.000637961 0.000849978 0.00100077 0.00106908 0.00104117 0.000912438 0.000688054 0.000382656 1.91989e-05 -0.000372919 -0.000759216 -0.00100633 -0.00136595 -0.0017008 -0.00199343 -0.0022334 -0.00241502 -0.00253539 -0.00259306 -0.00258728 -0.00251755 -0.00238395 -0.00218999 -0.00195598 -0.00177395 0.00215185 0.00214069 0.00218977 0.00223974 0.00226135 0.00224255 0.00217972 0.00207316 0.00192505 0.00173853 0.00151785 0.00126687 0.000752799 0.000504623 0.000273681 6.69675e-05 -0.000108312 -0.000243308 -0.000328469 -0.000355394 -0.00031893 -0.000218992 -6.15634e-05 0.000139827 0.000360279 0.00057586 0.000759105 0.000884782 0.00093281 0.000890302 0.000753101 0.000526371 0.000224122 -0.000132303 -0.000516857 -0.000899637 -0.00107547 -0.00143222 -0.0017563 -0.00203633 -0.00226505 -0.00243874 -0.00255609 -0.00261758 -0.00262528 -0.00258345 -0.0025005 -0.00239367 -0.00229892 -0.00228533 0.00249977 0.00245027 0.00243565 0.00243014 0.00241259 0.00236958 0.00229408 0.00218336 0.00203748 0.00185854 0.00165088 0.00141765 0.000834357 0.000608368 0.00038967 0.00018728 9.89238e-06 -0.000132987 -0.000231578 -0.000277294 -0.000264553 -0.000192506 -6.62502e-05 9.9519e-05 0.000296991 0.000487493 0.000649382 0.00075834 0.000794391 0.000744232 0.00060304 0.000375234 7.39614e-05 -0.000280728 -0.000665011 -0.00105045 -0.00115097 -0.00150991 -0.00182878 -0.00210087 -0.00232233 -0.00249177 -0.0026098 -0.00267882 -0.00270319 -0.00268995 -0.00265035 -0.00260205 -0.00257079 -0.0025874 0.00278944 0.00273023 0.0026841 0.00264244 0.00259374 0.002528 0.00243829 0.00232076 0.0021742 0.00199981 0.00180151 0.00158053 0.000922727 0.000712851 0.000502253 0.000300116 0.000115732 -4.09319e-05 -0.000159673 -0.000231259 -0.000249042 -0.000210654 -0.000119542 9.14413e-06 0.000185563 0.000357023 0.00050523 0.000606464 0.000639889 0.000590579 0.000451887 0.000226596 -7.34545e-05 -0.000429358 -0.000818567 -0.00121205 -0.00123713 -0.00160232 -0.00192044 -0.00218876 -0.00240675 -0.00257538 -0.00269708 -0.00277572 -0.00281682 -0.00282798 -0.00281937 -0.00280378 -0.00279535 -0.00280513 0.00306956 0.00300206 0.00293629 0.00286994 0.00279737 0.00271209 0.00260854 0.00248286 0.00233325 0.00216016 0.00196683 0.00175201 0.00101726 0.000815849 0.000606632 0.000398058 0.000199319 2.05991e-05 -0.000127314 -0.00023406 -0.000291202 -0.000293967 -0.000243123 -0.000153143 2.38536e-06 0.000160145 0.000302299 0.000405488 0.00044714 0.000409515 0.000282856 6.71785e-05 -0.000227749 -0.000584344 -0.000980746 -0.00138585 -0.00133884 -0.00171302 -0.00203347 -0.00230139 -0.00251925 -0.00269014 -0.00281783 -0.00290702 -0.00296339 -0.00299366 -0.00300547 -0.00300684 -0.00300472 -0.00300273 0.00335951 0.00327841 0.00319516 0.00310917 0.00301742 0.0029156 0.00279927 0.00266482 0.00251008 0.00233477 0.00214126 0.00192551 0.00111383 0.000911505 0.000694266 0.00046952 0.000245932 3.37386e-05 -0.000155497 -0.000309766 -0.000418042 -0.000472145 -0.000468942 -0.000420897 -0.000286081 -0.00013853 4.67883e-06 0.000120257 0.000183053 0.000171264 7.05418e-05 -0.000123366 -0.000403984 -0.00075572 -0.00115731 -0.0015746 -0.00146242 -0.001846 -0.00216995 -0.00243964 -0.00266015 -0.00283602 -0.00297176 -0.00307217 -0.0031424 -0.00318778 -0.00321361 -0.00322464 -0.00322442 -0.00321438 0.00366329 0.00356253 0.00346016 0.0033558 0.0032472 0.00313083 0.00300264 0.00285889 0.00269682 0.00251526 0.00231543 0.00209034 0.00120374 0.000989045 0.000751439 0.000497266 0.000234492 -2.66167e-05 -0.000273454 -0.000491777 -0.000667113 -0.000786793 -0.000842451 -0.000843104 -0.000726305 -0.000588837 -0.000438718 -0.000299642 -0.000200184 -0.000167548 -0.000222453 -0.000375397 -0.000625046 -0.000959128 -0.00135752 -0.0017827 -0.00161668 -0.00200616 -0.00233195 -0.002604 -0.00282925 -0.0030127 -0.00315873 -0.00327158 -0.00335543 -0.00341424 -0.00345159 -0.00347044 -0.00347293 -0.00346023 0.00397516 0.00384936 0.00372516 0.00360191 0.00347719 0.00334721 0.00320745 0.00305341 0.00288125 0.00268852 0.00247493 0.00223039 0.00127231 0.00103127 0.000757633 0.000456731 0.000135834 -0.000194626 -0.000520626 -0.00082504 -0.00108905 -0.00129436 -0.00142603 -0.0014881 -0.00138142 -0.0012591 -0.00109858 -0.000924647 -0.000770086 -0.000668944 -0.000650407 -0.000733775 -0.000925477 -0.00121877 -0.0015961 -0.00201702 -0.00181473 -0.00220018 -0.00252205 -0.00279493 -0.00302621 -0.00321992 -0.0033791 -0.0035067 -0.00360562 -0.00367857 -0.00372796 -0.00375586 -0.00376399 -0.00375375 0.00428135 0.00412618 0.00397752 0.00383427 0.00369326 0.0035497 0.00339783 0.00323164 0.00304564 0.00283554 0.00259905 0.00232291 0.00129724 0.00101295 0.000683847 0.000314288 -8.90475e-05 -0.000515307 -0.000948574 -0.00136813 -0.00174986 -0.00206873 -0.0023019 -0.00244677 -0.00233535 -0.00224042 -0.00206995 -0.0018505 -0.00161971 -0.00141987 -0.00129095 -0.00126418 -0.00135726 -0.00157227 -0.00189676 -0.00228919 -0.00207687 -0.00243853 -0.00274477 -0.00301392 -0.00325139 -0.00345804 -0.00363404 -0.00378004 -0.00389725 -0.00398712 -0.00405123 -0.00409118 -0.00410863 -0.00410536 0.00456029 0.0043725 0.00419731 0.00403296 0.0038751 0.00371732 0.00355187 0.00337057 0.00316559 0.00293022 0.0026596 0.00233728 0.00124711 0.000899316 0.000491098 2.57767e-05 -0.000490438 -0.00104593 -0.00162233 -0.00219457 -0.00273226 -0.00320249 -0.00357332 -0.00383347 -0.00369629 -0.00364994 -0.00347583 -0.00320265 -0.00287304 -0.0025386 -0.00225237 -0.00206099 -0.00199771 -0.00207799 -0.00229844 -0.00262028 -0.00243551 -0.00273893 -0.00300929 -0.00326563 -0.00350744 -0.00372927 -0.00392628 -0.00409554 -0.00423584 -0.00434713 -0.00443014 -0.00448617 -0.00451694 -0.00452457 0.00478221 0.00455981 0.00435682 0.00417062 0.00399521 0.00382196 0.0036405 0.00343981 0.00320907 0.00293853 0.00262014 0.00223426 0.00108022 0.000645044 0.000129523 -0.00046427 -0.00113048 -0.00185633 -0.00262042 -0.00339243 -0.00413472 -0.00480528 -0.00536196 -0.00578227 -0.00559754 -0.00563074 -0.00546717 -0.00513691 -0.00468703 -0.0041787 -0.00367967 -0.00325518 -0.0029588 -0.00282496 -0.00286492 -0.00304959 -0.00294245 -0.00313244 -0.00333439 -0.00356164 -0.00380196 -0.00403945 -0.0042614 -0.00445941 -0.00462872 -0.00476717 -0.00487442 -0.00495131 -0.0049996 -0.00502171 0.00490907 0.00465143 0.00442037 0.00421205 0.00401834 0.00382783 0.00362693 0.00340113 0.00313604 0.00281822 0.00243581 0.001966 0.000744424 0.000194278 -0.000461376 -0.00122204 -0.00208211 -0.00302728 -0.00403233 -0.00506082 -0.00606659 -0.0069973 -0.0077994 -0.00843594 -0.00819215 -0.00834473 -0.00821492 -0.00783204 -0.00724583 -0.00652591 -0.00575485 -0.00501856 -0.00439512 -0.00394401 -0.0036982 -0.00364912 -0.00367853 -0.0036722 -0.00375564 -0.00392585 -0.00415144 -0.00440083 -0.00464967 -0.00488143 -0.00508606 -0.00525822 -0.00539584 -0.00549902 -0.00556938 -0.00560954 0.00489505 0.00460317 0.00434484 0.00411466 0.0039019 0.00369179 0.00346697 0.00320889 0.002899 0.00251959 0.00205435 0.00147724 0.000178301 -0.000517792 -0.00135065 -0.00232171 -0.00342554 -0.00464574 -0.00595246 -0.00730186 -0.00863788 -0.00989627 -0.0110108 -0.0119261 -0.0116374 -0.0119544 -0.0118901 -0.0114694 -0.0107417 -0.009782 -0.00868543 -0.0075582 -0.00650513 -0.00561599 -0.00495313 -0.00454366 -0.00476288 -0.00444369 -0.00433408 -0.00440099 -0.00458578 -0.00483514 -0.00510818 -0.00537652 -0.00562212 -0.00583469 -0.00600936 -0.00614488 -0.00624241 -0.00630465 0.00468825 0.00436489 0.00408129 0.00383008 0.00359748 0.0033649 0.00311069 0.00281178 0.00244496 0.00198769 0.00141861 0.000708257 -0.000685521 -0.00156105 -0.00261126 -0.00383986 -0.00524129 -0.00679634 -0.0084693 -0.0102074 -0.0119428 -0.0135974 -0.0150908 -0.0163455 -0.0160662 -0.0165912 -0.0166295 -0.0161973 -0.0153393 -0.0141308 -0.0126748 -0.0110935 -0.00951737 -0.00806882 -0.00684635 -0.00593118 -0.00635552 -0.00557206 -0.00516345 -0.00505451 -0.00515271 -0.00537668 -0.00566295 -0.00596612 -0.00625623 -0.00651531 -0.00673393 -0.00690848 -0.00703912 -0.00712837 0.00423363 0.00388351 0.00357789 0.00330708 0.00305388 0.00279547 0.00250555 0.00215617 0.00171903 0.00116629 0.000470971 -0.000400178 -0.00191452 -0.00300385 -0.00431255 -0.00584658 -0.00759971 -0.00954872 -0.0116504 -0.0138409 -0.0160385 -0.0181492 -0.0200764 -0.0217176 -0.0215472 -0.0223137 -0.0224912 -0.0220833 -0.0211256 -0.0196877 -0.0178726 -0.0158112 -0.0136533 -0.0115521 -0.00964581 -0.00808826 -0.00864357 -0.00721912 -0.00637156 -0.00598153 -0.00592079 -0.00607474 -0.00635059 -0.00667928 -0.0070135 -0.00732355 -0.0075928 -0.00781365 -0.00798437 -0.00810691 0.00347765 0.00310746 0.00278432 0.00249597 0.00222148 0.00193362 0.0016012 0.00119113 0.000669755 3.58766e-06 -0.000840385 -0.00189977 -0.00356784 -0.00490381 -0.00650985 -0.00839376 -0.0105475 -0.0129422 -0.0155248 -0.0182179 -0.0209234 -0.0235296 -0.0259221 -0.0279731 -0.0280425 -0.0290665 -0.0294121 -0.029069 -0.0280598 -0.0264433 -0.0243142 -0.021802 -0.0190652 -0.0162804 -0.0136243 -0.011336 -0.0118045 -0.0095635 -0.00811189 -0.00730307 -0.00698041 -0.00699517 -0.00721949 -0.00755329 -0.00792491 -0.00828742 -0.00861308 -0.00888785 -0.00910672 -0.00927039 0.00237406 0.00199234 0.00165741 0.00135422 0.00105806 0.000737195 0.000355527 -0.000125229 -0.000744187 -0.00154064 -0.00255383 -0.00382634 -0.00568591 -0.00729671 -0.0092326 -0.0115021 -0.0140938 -0.0169707 -0.0200672 -0.0232898 -0.0265218 -0.0296324 -0.0324892 -0.0349423 -0.0353826 -0.0366584 -0.0371869 -0.0369453 -0.0359432 -0.0342248 -0.0318705 -0.0289981 -0.0257625 -0.022351 -0.0189715 -0.015948 -0.0159538 -0.012765 -0.0105446 -0.00915817 -0.00844187 -0.00822073 -0.00833057 -0.00863396 -0.00902708 -0.00943869 -0.00982461 -0.0101608 -0.0104367 -0.0106509 0.000890418 0.000507311 0.000167399 -0.000147169 -0.000464833 -0.000821679 -0.00125854 -0.00181873 -0.00254671 -0.00348746 -0.00468629 -0.00619127 -0.00827987 -0.0101857 -0.0124732 -0.01515 -0.0181988 -0.0215719 -0.0251887 -0.028937 -0.0326803 -0.036269 -0.0395541 -0.0423702 -0.0432734 -0.044775 -0.0454837 -0.0453691 -0.0444303 -0.0426983 -0.040236 -0.0371426 -0.0335577 -0.029665 -0.0256895 -0.0220202 -0.0211009 -0.0169234 -0.0138087 -0.0116885 -0.0104284 -0.00984871 -0.00975664 -0.00997521 -0.0103614 -0.0108115 -0.0112581 -0.0116621 -0.0120045 -0.0122798 -0.000985536 -0.00135883 -0.00169602 -0.0020177 -0.0023558 -0.00275041 -0.00324672 -0.00389269 -0.00473771 -0.00583205 -0.00722653 -0.00897475 -0.0113232 -0.013533 -0.0161792 -0.0192663 -0.0227688 -0.0266257 -0.0307388 -0.0349761 -0.0391817 -0.0431889 -0.046836 -0.0499512 -0.0513422 -0.0530295 -0.0538992 -0.0539201 -0.053087 -0.0514214 -0.0489711 -0.045814 -0.0420672 -0.037897 -0.0335261 -0.0293697 -0.027135 -0.0220462 -0.0179894 -0.0150138 -0.0130612 -0.0119833 -0.0115787 -0.0116369 -0.011972 -0.0124401 -0.0129423 -0.0134182 -0.013836 -0.0141836 -0.00324106 -0.00359289 -0.00391906 -0.00424275 -0.00459897 -0.00503131 -0.00558875 -0.00632329 -0.00728859 -0.00853941 -0.0101312 -0.0121225 -0.0147479 -0.0172574 -0.0202524 -0.0237323 -0.0276608 -0.0319619 -0.0365186 -0.0411796 -0.0457711 -0.0501134 -0.0540372 -0.0573739 -0.0592082 -0.0610345 -0.0620341 -0.0621816 -0.0614746 -0.0599314 -0.0575894 -0.0545084 -0.0507804 -0.0465442 -0.0420006 -0.0375406 -0.0338419 -0.0280298 -0.0230845 -0.0191991 -0.0164352 -0.0147198 -0.0138768 -0.0136793 -0.0139018 -0.014355 -0.0149003 -0.0154483 -0.0159488 -0.0163798 -0.00583609 -0.00615513 -0.00646179 -0.00678154 -0.00715203 -0.00761972 -0.00823666 -0.0090581 -0.0101411 -0.0115438 -0.013325 -0.015547 -0.0184473 -0.0212378 -0.0245547 -0.0283896 -0.0326948 -0.0373778 -0.0423037 -0.0473035 -0.0521891 -0.0567725 -0.0608826 -0.0643613 -0.0665479 -0.0684667 -0.0695595 -0.0698115 -0.0692286 -0.0678321 -0.0656553 -0.0627454 -0.0591722 -0.0550426 -0.0505197 -0.0459259 -0.0409329 -0.0346589 -0.028979 -0.0242205 -0.0205868 -0.0181211 -0.0167141 -0.0161527 -0.0161851 -0.016577 -0.0171436 -0.0177584 -0.0183462 -0.0188706 -0.00870436 -0.00898041 -0.00925929 -0.00956848 -0.00994772 -0.0104457 -0.0111167 -0.0120184 -0.0132102 -0.0147524 -0.0167056 -0.0191339 -0.0222844 -0.0253243 -0.0289205 -0.0330567 -0.0376726 -0.0426606 -0.0478695 -0.0531158 -0.0582015 -0.062935 -0.0671485 -0.0706986 -0.073132 -0.0751025 -0.0762524 -0.0765802 -0.0761028 -0.0748484 -0.072852 -0.0701547 -0.06681 -0.0628945 -0.0585269 -0.0539368 -0.0480762 -0.0416227 -0.0354388 -0.0299403 -0.0254629 -0.0221884 -0.020115 -0.019082 -0.0188368 -0.0191089 -0.0196651 -0.0203348 -0.0210104 -0.0216363 -0.0117581 -0.0119828 -0.0122264 -0.0125179 -0.0128988 -0.0134193 -0.0141352 -0.0151055 -0.0163909 -0.0180527 -0.0201519 -0.0227522 -0.0261056 -0.0293517 -0.0331734 -0.037546 -0.0423978 -0.0476081 -0.0530125 -0.0584171 -0.0636183 -0.0684247 -0.0726749 -0.0762412 -0.0788301 -0.0808193 -0.0819959 -0.0823706 -0.0819715 -0.0808354 -0.0790023 -0.0765133 -0.0734124 -0.0697532 -0.0656124 -0.0611281 -0.0549298 -0.0485522 -0.0421311 -0.0361052 -0.0309016 -0.0268364 -0.0240414 -0.0224485 -0.0218389 -0.0219254 -0.0224309 -0.0231365 -0.0238958 -0.0246279 -0.014896 -0.0150634 -0.0152652 -0.015532 -0.0159061 -0.0164388 -0.0171867 -0.0182094 -0.0195678 -0.0213231 -0.0235351 -0.0262653 -0.0297549 -0.0331564 -0.0371427 -0.0416818 -0.0466929 -0.0520452 -0.0575651 -0.0630524 -0.0683013 -0.073123 -0.0773636 -0.0809095 -0.0835896 -0.0855743 -0.0867554 -0.0871528 -0.0868038 -0.0857534 -0.0840485 -0.0817339 -0.0788513 -0.0754405 -0.0715471 -0.0672373 -0.0611781 -0.0550728 -0.0486717 -0.0423729 -0.0366371 -0.0318821 -0.0283758 -0.0261733 -0.0251273 -0.0249628 -0.0253721 -0.0260888 -0.0269227 -0.0277623 -0.0180123 -0.0181192 -0.0182746 -0.0185099 -0.018868 -0.0194006 -0.0201646 -0.0212196 -0.0226259 -0.0244434 -0.0267302 -0.0295434 -0.0330882 -0.0365893 -0.0406763 -0.0453124 -0.0504103 -0.0558329 -0.0614014 -0.0669126 -0.0721611 -0.0769616 -0.0811667 -0.0846734 -0.0874091 -0.0893757 -0.0905477 -0.0909504 -0.0906271 -0.0896298 -0.0880122 -0.0858257 -0.0831145 -0.0799147 -0.0762546 -0.0721567 -0.0665673 -0.0608569 -0.0546842 -0.0483636 -0.042331 -0.0370554 -0.0329181 -0.0301081 -0.0285824 -0.0281119 -0.0283794 -0.0290786 -0.0299737 -0.0309184 -0.0210072 -0.0210535 -0.0211596 -0.0213574 -0.02169 -0.022209 -0.022971 -0.0240351 -0.0254606 -0.0273057 -0.0296259 -0.0324732 -0.035983 -0.0395261 -0.0436511 -0.0483184 -0.0534383 -0.0588711 -0.0644362 -0.0699304 -0.0751495 -0.0799114 -0.0840727 -0.087537 -0.0903144 -0.0922579 -0.0934154 -0.0938129 -0.0934971 -0.0925249 -0.0909565 -0.0888506 -0.0862584 -0.0832193 -0.0797581 -0.0758804 -0.0709262 -0.0656605 -0.0598533 -0.0537175 -0.0476216 -0.0420313 -0.0374003 -0.0340392 -0.032028 -0.0312151 -0.0313013 -0.0319538 -0.0328942 -0.0339382 -0.0237955 -0.0237837 -0.0238399 -0.0239956 -0.0242935 -0.0247848 -0.0255252 -0.0265732 -0.0279866 -0.029822 -0.0321325 -0.0349643 -0.0383452 -0.041873 -0.0459761 -0.0506153 -0.0557017 -0.0610966 -0.0666209 -0.0720728 -0.0772499 -0.0819713 -0.0860945 -0.0895249 -0.0923434 -0.0942666 -0.0954102 -0.0957983 -0.095478 -0.0945095 -0.0929586 -0.0908917 -0.0883688 -0.085438 -0.0821305 -0.0784556 -0.0741686 -0.0693361 -0.063955 -0.0581415 -0.0521747 -0.046474 -0.0415164 -0.0377042 -0.0352395 -0.0340719 -0.0339479 -0.0345274 -0.035496 -0.0366318 -0.0263124 -0.0262478 -0.0262554 -0.026366 -0.0266212 -0.0270706 -0.0277693 -0.0287744 -0.0301428 -0.0319296 -0.034186 -0.0369531 -0.0401113 -0.0435684 -0.0475941 -0.0521525 -0.057159 -0.0624791 -0.0679374 -0.0733347 -0.0784695 -0.08316 -0.0872609 -0.0906746 -0.0935396 -0.0954511 -0.0965866 -0.0969659 -0.0966347 -0.0956548 -0.0940969 -0.0920347 -0.0895378 -0.0866656 -0.0834619 -0.0799521 -0.0762804 -0.0718243 -0.0668624 -0.0614321 -0.055722 -0.0500785 -0.0449592 -0.0408178 -0.0379613 -0.0364497 -0.0360996 -0.0365846 -0.0375657 -0.0387851 -0.0285171 -0.028407 -0.0283695 -0.0284339 -0.0286396 -0.0290341 -0.0296707 -0.0306055 -0.0318946 -0.0335925 -0.0357496 -0.0384036 -0.0412479 -0.0445813 -0.0484786 -0.0529104 -0.0577991 -0.0630169 -0.0683938 -0.0737335 -0.0788344 -0.0835111 -0.0876124 -0.0910326 -0.0939504 -0.0958639 -0.0970009 -0.0973761 -0.097032 -0.0960311 -0.094448 -0.092363 -0.0898554 -0.0869965 -0.0838445 -0.0804473 -0.0773004 -0.0731343 -0.0685328 -0.0634775 -0.0580781 -0.0526003 -0.0474523 -0.0431003 -0.039927 -0.0380987 -0.037518 -0.037893 -0.0388732 -0.0401694 -0.0303928 -0.0302463 -0.0301693 -0.0301882 -0.0303392 -0.0306668 -0.0312216 -0.0320583 -0.0332327 -0.0348001 -0.036812 -0.0393048 -0.0417488 -0.044908 -0.0486308 -0.0528965 -0.0576367 -0.0627325 -0.06802 -0.0733058 -0.0783867 -0.0830718 -0.0872003 -0.0906546 -0.0936288 -0.0955618 -0.0967135 -0.0970926 -0.0967377 -0.0957107 -0.0940894 -0.0919601 -0.0894104 -0.0865228 -0.0833697 -0.0800224 -0.0773029 -0.0733234 -0.0689876 -0.0642433 -0.0591396 -0.0538671 -0.0487711 -0.0442994 -0.0408791 -0.0387671 -0.0379582 -0.038212 -0.0391804 -0.040549 -0.0319445 -0.031772 -0.0316624 -0.0316385 -0.0317317 -0.0319817 -0.0324356 -0.0331462 -0.0341697 -0.0355637 -0.0373836 -0.0396674 -0.0416305 -0.0445678 -0.0480747 -0.0521409 -0.056709 -0.0616696 -0.0668656 -0.0721057 -0.0771842 -0.0819022 -0.0860873 -0.0896059 -0.092635 -0.0946085 -0.0957915 -0.0961859 -0.0958261 -0.0947725 -0.0931046 -0.0909137 -0.0882947 -0.0853392 -0.0821315 -0.0787643 -0.0763843 -0.0724789 -0.0682915 -0.0637531 -0.0588715 -0.0537764 -0.04875 -0.0442041 -0.0405826 -0.038212 -0.0371764 -0.037299 -0.0382467 -0.0396861 -0.0331949 -0.0330076 -0.0328739 -0.0328115 -0.0328452 -0.0330083 -0.0333428 -0.033899 -0.0347345 -0.035911 -0.0374909 -0.0395183 -0.0409269 -0.043598 -0.0468529 -0.0506929 -0.055072 -0.0598907 -0.0649982 -0.0702046 -0.0753002 -0.0800771 -0.0843487 -0.0879639 -0.0910385 -0.0930769 -0.0943109 -0.094736 -0.0943813 -0.0933046 -0.0915863 -0.0893208 -0.0866086 -0.0835479 -0.080232 -0.0767697 -0.0746555 -0.0707068 -0.0665356 -0.062068 -0.0572883 -0.0522822 -0.0472779 -0.0426463 -0.03883 -0.0362046 -0.0349345 -0.0349119 -0.0358297 -0.0373413 -0.0341797 -0.0339897 -0.0338416 -0.0337463 -0.0337201 -0.0337876 -0.0339839 -0.0343568 -0.0349657 -0.0358794 -0.037171 -0.0388954 -0.0396846 -0.0420496 -0.0450226 -0.048617 -0.0527981 -0.0574749 -0.062502 -0.0676899 -0.0728239 -0.0776856 -0.0820738 -0.0858182 -0.0889194 -0.0910494 -0.0923577 -0.0928326 -0.0924973 -0.0914062 -0.0896383 -0.0872897 -0.0844638 -0.0812627 -0.0777842 -0.0741473 -0.072236 -0.0681225 -0.0638243 -0.0592704 -0.0544349 -0.0493768 -0.0442848 -0.0394944 -0.0354394 -0.0325295 -0.0309978 -0.0308065 -0.031682 -0.033269 -0.0349428 -0.0347633 -0.0346117 -0.0344901 -0.0344039 -0.0343665 -0.0344049 -0.0345635 -0.0349056 -0.03551 -0.0364655 -0.0378425 -0.0379583 -0.0399833 -0.0426524 -0.0459908 -0.0499731 -0.0545155 -0.059476 -0.0646641 -0.0698591 -0.0748315 -0.079365 -0.0832711 -0.0863689 -0.0886189 -0.0900275 -0.0905751 -0.0902779 -0.0891855 -0.0873741 -0.0849385 -0.0819822 -0.0786077 -0.0749129 -0.0710185 -0.06925 -0.0648454 -0.0602665 -0.0554496 -0.050369 -0.0450723 -0.0397253 -0.0346401 -0.0302451 -0.0269774 -0.0251293 -0.0247297 -0.0255434 -0.0272099 -0.0355329 -0.0353787 -0.0352359 -0.035095 -0.0349477 -0.034794 -0.0346511 -0.0345613 -0.0345937 -0.0348421 -0.0354154 -0.0364052 -0.0358072 -0.0374667 -0.0398198 -0.0429018 -0.0466945 -0.0511181 -0.0560317 -0.0612422 -0.066522 -0.0716306 -0.0763366 -0.0804349 -0.083488 -0.0858867 -0.0874234 -0.0880694 -0.0878329 -0.0867568 -0.0849124 -0.0823906 -0.0792913 -0.0757135 -0.0717497 -0.0675129 -0.0658213 -0.0609931 -0.0559682 -0.0506925 -0.045148 -0.0393843 -0.0335613 -0.0279834 -0.0230853 -0.0193351 -0.0170795 -0.01641 -0.0171316 -0.0188799 -0.0360007 -0.0358899 -0.0357698 -0.0356164 -0.0354041 -0