# vtk DataFile Version 2.0
Velocidades
ASCII

DATASET STRUCTURED_GRID
DIMENSIONS   50   50   20

POINTS   50000   double
0.00568455   0.00568455   0.025
0.0174023   0.00568455   0.025
0.0298294   0.00568455   0.025
0.0429888   0.00568455   0.025
0.0569012   0.00568455   0.025
0.0715849   0.00568455   0.025
0.0870549   0.00568455   0.025
0.103323   0.00568455   0.025
0.120395   0.00568455   0.025
0.138275   0.00568455   0.025
0.156961   0.00568455   0.025
0.176443   0.00568455   0.025
0.196707   0.00568455   0.025
0.217734   0.00568455   0.025
0.239496   0.00568455   0.025
0.261959   0.00568455   0.025
0.285082   0.00568455   0.025
0.308818   0.00568455   0.025
0.333113   0.00568455   0.025
0.357906   0.00568455   0.025
0.383132   0.00568455   0.025
0.408719   0.00568455   0.025
0.434592   0.00568455   0.025
0.460672   0.00568455   0.025
0.486877   0.00568455   0.025
0.513123   0.00568455   0.025
0.539328   0.00568455   0.025
0.565408   0.00568455   0.025
0.591281   0.00568455   0.025
0.616868   0.00568455   0.025
0.642094   0.00568455   0.025
0.666887   0.00568455   0.025
0.691182   0.00568455   0.025
0.714918   0.00568455   0.025
0.738041   0.00568455   0.025
0.760504   0.00568455   0.025
0.782266   0.00568455   0.025
0.803293   0.00568455   0.025
0.823557   0.00568455   0.025
0.843039   0.00568455   0.025
0.861725   0.00568455   0.025
0.879605   0.00568455   0.025
0.896677   0.00568455   0.025
0.912945   0.00568455   0.025
0.928415   0.00568455   0.025
0.943099   0.00568455   0.025
0.957011   0.00568455   0.025
0.970171   0.00568455   0.025
0.982598   0.00568455   0.025
0.994315   0.00568455   0.025
0.00568455   0.0174023   0.025
0.0174023   0.0174023   0.025
0.0298294   0.0174023   0.025
0.0429888   0.0174023   0.025
0.0569012   0.0174023   0.025
0.0715849   0.0174023   0.025
0.0870549   0.0174023   0.025
0.103323   0.0174023   0.025
0.120395   0.0174023   0.025
0.138275   0.0174023   0.025
0.156961   0.0174023   0.025
0.176443   0.0174023   0.025
0.196707   0.0174023   0.025
0.217734   0.0174023   0.025
0.239496   0.0174023   0.025
0.261959   0.0174023   0.025
0.285082   0.0174023   0.025
0.308818   0.0174023   0.025
0.333113   0.0174023   0.025
0.357906   0.0174023   0.025
0.383132   0.0174023   0.025
0.408719   0.0174023   0.025
0.434592   0.0174023   0.025
0.460672   0.0174023   0.025
0.486877   0.0174023   0.025
0.513123   0.0174023   0.025
0.539328   0.0174023   0.025
0.565408   0.0174023   0.025
0.591281   0.0174023   0.025
0.616868   0.0174023   0.025
0.642094   0.0174023   0.025
0.666887   0.0174023   0.025
0.691182   0.0174023   0.025
0.714918   0.0174023   0.025
0.738041   0.0174023   0.025
0.760504   0.0174023   0.025
0.782266   0.0174023   0.025
0.803293   0.0174023   0.025
0.823557   0.0174023   0.025
0.843039   0.0174023   0.025
0.861725   0.0174023   0.025
0.879605   0.0174023   0.025
0.896677   0.0174023   0.025
0.912945   0.0174023   0.025
0.928415   0.0174023   0.025
0.943099   0.0174023   0.025
0.957011   0.0174023   0.025
0.970171   0.0174023   0.025
0.982598   0.0174023   0.025
0.994315   0.0174023   0.025
0.00568455   0.0298294   0.025
0.0174023   0.0298294   0.025
0.0298294   0.0298294   0.025
0.0429888   0.0298294   0.025
0.0569012   0.0298294   0.025
0.0715849   0.0298294   0.025
0.0870549   0.0298294   0.025
0.103323   0.0298294   0.025
0.120395   0.0298294   0.025
0.138275   0.0298294   0.025
0.156961   0.0298294   0.025
0.176443   0.0298294   0.025
0.196707   0.0298294   0.025
0.217734   0.0298294   0.025
0.239496   0.0298294   0.025
0.261959   0.0298294   0.025
0.285082   0.0298294   0.025
0.308818   0.0298294   0.025
0.333113   0.0298294   0.025
0.357906   0.0298294   0.025
0.383132   0.0298294   0.025
0.408719   0.0298294   0.025
0.434592   0.0298294   0.025
0.460672   0.0298294   0.025
0.486877   0.0298294   0.025
0.513123   0.0298294   0.025
0.539328   0.0298294   0.025
0.565408   0.0298294   0.025
0.591281   0.0298294   0.025
0.616868   0.0298294   0.025
0.642094   0.0298294   0.025
0.666887   0.0298294   0.025
0.691182   0.0298294   0.025
0.714918   0.0298294   0.025
0.738041   0.0298294   0.025
0.760504   0.0298294   0.025
0.782266   0.0298294   0.025
0.803293   0.0298294   0.025
0.823557   0.0298294   0.025
0.843039   0.0298294   0.025
0.861725   0.0298294   0.025
0.879605   0.0298294   0.025
0.896677   0.0298294   0.025
0.912945   0.0298294   0.025
0.928415   0.0298294   0.025
0.943099   0.0298294   0.025
0.957011   0.0298294   0.025
0.970171   0.0298294   0.025
0.982598   0.0298294   0.025
0.994315   0.0298294   0.025
0.00568455   0.0429888   0.025
0.0174023   0.0429888   0.025
0.0298294   0.0429888   0.025
0.0429888   0.0429888   0.025
0.0569012   0.0429888   0.025
0.0715849   0.0429888   0.025
0.0870549   0.0429888   0.025
0.103323   0.0429888   0.025
0.120395   0.0429888   0.025
0.138275   0.0429888   0.025
0.156961   0.0429888   0.025
0.176443   0.0429888   0.025
0.196707   0.0429888   0.025
0.217734   0.0429888   0.025
0.239496   0.0429888   0.025
0.261959   0.0429888   0.025
0.285082   0.0429888   0.025
0.308818   0.0429888   0.025
0.333113   0.0429888   0.025
0.357906   0.0429888   0.025
0.383132   0.0429888   0.025
0.408719   0.0429888   0.025
0.434592   0.0429888   0.025
0.460672   0.0429888   0.025
0.486877   0.0429888   0.025
0.513123   0.0429888   0.025
0.539328   0.0429888   0.025
0.565408   0.0429888   0.025
0.591281   0.0429888   0.025
0.616868   0.0429888   0.025
0.642094   0.0429888   0.025
0.666887   0.0429888   0.025
0.691182   0.0429888   0.025
0.714918   0.0429888   0.025
0.738041   0.0429888   0.025
0.760504   0.0429888   0.025
0.782266   0.0429888   0.025
0.803293   0.0429888   0.025
0.823557   0.0429888   0.025
0.843039   0.0429888   0.025
0.861725   0.0429888   0.025
0.879605   0.0429888   0.025
0.896677   0.0429888   0.025
0.912945   0.0429888   0.025
0.928415   0.0429888   0.025
0.943099   0.0429888   0.025
0.957011   0.0429888   0.025
0.970171   0.0429888   0.025
0.982598   0.0429888   0.025
0.994315   0.0429888   0.025
0.00568455   0.0569012   0.025
0.0174023   0.0569012   0.025
0.0298294   0.0569012   0.025
0.0429888   0.0569012   0.025
0.0569012   0.0569012   0.025
0.0715849   0.0569012   0.025
0.0870549   0.0569012   0.025
0.103323   0.0569012   0.025
0.120395   0.0569012   0.025
0.138275   0.0569012   0.025
0.156961   0.0569012   0.025
0.176443   0.0569012   0.025
0.196707   0.0569012   0.025
0.217734   0.0569012   0.025
0.239496   0.0569012   0.025
0.261959   0.0569012   0.025
0.285082   0.0569012   0.025
0.308818   0.0569012   0.025
0.333113   0.0569012   0.025
0.357906   0.0569012   0.025
0.383132   0.0569012   0.025
0.408719   0.0569012   0.025
0.434592   0.0569012   0.025
0.460672   0.0569012   0.025
0.486877   0.0569012   0.025
0.513123   0.0569012   0.025
0.539328   0.0569012   0.025
0.565408   0.0569012   0.025
0.591281   0.0569012   0.025
0.616868   0.0569012   0.025
0.642094   0.0569012   0.025
0.666887   0.0569012   0.025
0.691182   0.0569012   0.025
0.714918   0.0569012   0.025
0.738041   0.0569012   0.025
0.760504   0.0569012   0.025
0.782266   0.0569012   0.025
0.803293   0.0569012   0.025
0.823557   0.0569012   0.025
0.843039   0.0569012   0.025
0.861725   0.0569012   0.025
0.879605   0.0569012   0.025
0.896677   0.0569012   0.025
0.912945   0.0569012   0.025
0.928415   0.0569012   0.025
0.943099   0.0569012   0.025
0.957011   0.0569012   0.025
0.970171   0.0569012   0.025
0.982598   0.0569012   0.025
0.994315   0.0569012   0.025
0.00568455   0.0715849   0.025
0.0174023   0.0715849   0.025
0.0298294   0.0715849   0.025
0.0429888   0.0715849   0.025
0.0569012   0.0715849   0.025
0.0715849   0.0715849   0.025
0.0870549   0.0715849   0.025
0.103323   0.0715849   0.025
0.120395   0.0715849   0.025
0.138275   0.0715849   0.025
0.156961   0.0715849   0.025
0.176443   0.0715849   0.025
0.196707   0.0715849   0.025
0.217734   0.0715849   0.025
0.239496   0.0715849   0.025
0.261959   0.0715849   0.025
0.285082   0.0715849   0.025
0.308818   0.0715849   0.025
0.333113   0.0715849   0.025
0.357906   0.0715849   0.025
0.383132   0.0715849   0.025
0.408719   0.0715849   0.025
0.434592   0.0715849   0.025
0.460672   0.0715849   0.025
0.486877   0.0715849   0.025
0.513123   0.0715849   0.025
0.539328   0.0715849   0.025
0.565408   0.0715849   0.025
0.591281   0.0715849   0.025
0.616868   0.0715849   0.025
0.642094   0.0715849   0.025
0.666887   0.0715849   0.025
0.691182   0.0715849   0.025
0.714918   0.0715849   0.025
0.738041   0.0715849   0.025
0.760504   0.0715849   0.025
0.782266   0.0715849   0.025
0.803293   0.0715849   0.025
0.823557   0.0715849   0.025
0.843039   0.0715849   0.025
0.861725   0.0715849   0.025
0.879605   0.0715849   0.025
0.896677   0.0715849   0.025
0.912945   0.0715849   0.025
0.928415   0.0715849   0.025
0.943099   0.0715849   0.025
0.957011   0.0715849   0.025
0.970171   0.0715849   0.025
0.982598   0.0715849   0.025
0.994315   0.0715849   0.025
0.00568455   0.0870549   0.025
0.0174023   0.0870549   0.025
0.0298294   0.0870549   0.025
0.0429888   0.0870549   0.025
0.0569012   0.0870549   0.025
0.0715849   0.0870549   0.025
0.0870549   0.0870549   0.025
0.103323   0.0870549   0.025
0.120395   0.0870549   0.025
0.138275   0.0870549   0.025
0.156961   0.0870549   0.025
0.176443   0.0870549   0.025
0.196707   0.0870549   0.025
0.217734   0.0870549   0.025
0.239496   0.0870549   0.025
0.261959   0.0870549   0.025
0.285082   0.0870549   0.025
0.308818   0.0870549   0.025
0.333113   0.0870549   0.025
0.357906   0.0870549   0.025
0.383132   0.0870549   0.025
0.408719   0.0870549   0.025
0.434592   0.0870549   0.025
0.460672   0.0870549   0.025
0.486877   0.0870549   0.025
0.513123   0.0870549   0.025
0.539328   0.0870549   0.025
0.565408   0.0870549   0.025
0.591281   0.0870549   0.025
0.616868   0.0870549   0.025
0.642094   0.0870549   0.025
0.666887   0.0870549   0.025
0.691182   0.0870549   0.025
0.714918   0.0870549   0.025
0.738041   0.0870549   0.025
0.760504   0.0870549   0.025
0.782266   0.0870549   0.025
[...]
POINT_DATA   50000
VECTORS Velocidades double

-5.80105e-05 -0.00127855 0
-0.00015786 -0.00249654 0
-0.000220288 -0.0031684 0
-0.000250414 -0.00353418 0
-0.000270035 -0.00369323 0
-0.000299645 -0.00369691 0
-0.000354188 -0.00357687 0
-0.00044363 -0.00335494 0
-0.000574366 -0.00304645 0
-0.000750747 -0.00266068 0
-0.000977123 -0.00219833 0
-0.00109045 -0.00163977 0
-0.00124783 -0.000892252 0
-0.00162939 -0.000355099 0
-0.00207355 7.5605e-05 0
-0.00255638 0.00042611 0
-0.00306983 0.000697737 0
-0.00360635 0.000879875 0
-0.00415485 0.000956535 0
-0.00469907 0.000911655 0
-0.00521695 0.00073399 0
-0.0056812 0.000421403 0
-0.00606163 -1.60982e-05 0
-0.0063269 -0.00055486 0
-0.00643661 -0.00115416 0
-0.00636027 -0.00174515 0
-0.00609034 -0.00226442 0
-0.00563161 -0.00265048 0
-0.00500552 -0.00285046 0
-0.00425077 -0.00282755 0
-0.00341974 -0.00256742 0
-0.00257174 -0.00208137 0
-0.00176455 -0.00140583 0
-0.00104602 -0.000598833 0
-0.000446835 0.000264187 0
-0.000111973 0.0010891 0
9.45712e-05 0.001739 0
0.000327844 0.00249343 0
0.000468293 0.00321403 0
0.000520048 0.00384633 0
0.000500232 0.00436498 0
0.000426644 0.00475769 0
0.000315982 0.00501805 0
0.000184066 0.00514141 0
4.66733e-05 0.00512183 0
-7.92314e-05 0.0049485 0
-0.000173949 0.00459944 0
-0.000214254 0.00402736 0
-0.000178523 0.00312139 0
-6.96816e-05 0.00158555 0
-0.000194216 -0.00235103 0
-0.000514708 -0.00486688 0
-0.000691234 -0.00628945 0
-0.000760382 -0.00705157 0
-0.000803915 -0.00736574 0
-0.000884557 -0.00734904 0
-0.00104508 -0.00707432 0
-0.00131385 -0.00659104 0
-0.00170948 -0.00593319 0
-0.00224518 -0.00512057 0
-0.00293478 -0.00415313 0
-0.00323821 -0.00298657 0
-0.00372973 -0.00144952 0
-0.00496151 -0.000338992 0
-0.0063423 0.000545223 0
-0.00783976 0.00126235 0
-0.00943263 0.00181642 0
-0.0110962 0.00218445 0
-0.012793 0.00233123 0
-0.0144688 0.00222093 0
-0.0160511 0.00182759 0
-0.0174525 0.00114446 0
-0.0185772 0.000191059 0
-0.0193379 -0.000983551 0
-0.0196155 -0.00230925 0
-0.0193225 -0.00362407 0
-0.0184522 -0.00479599 0
-0.0170277 -0.00569332 0
-0.0151175 -0.00619992 0
-0.0128365 -0.00623229 0
-0.0103355 -0.00575427 0
-0.0077843 -0.00478496 0
-0.00534901 -0.00339856 0
-0.0031704 -0.00171743 0
-0.0013434 9.59774e-05 0
-0.000353411 0.00183553 0
0.000283642 0.00321627 0
0.00104661 0.00481236 0
0.00149123 0.00633951 0
0.00165615 0.00768069 0
0.00159509 0.00878282 0
0.00136253 0.00962072 0
0.00101015 0.0101808 0
0.000587475 0.0104523 0
0.000143993 0.0104203 0
-0.000267567 0.0100582 0
-0.000586226 0.00931287 0
-0.00073615 0.00807566 0
-0.000628888 0.00611341 0
-0.000249739 0.00290606 0
-0.000142108 -0.00198522 0
-0.000457831 -0.00455676 0
-0.000766419 -0.00610721 0
-0.00101139 -0.0069309 0
-0.00124218 -0.00723703 0
-0.00152884 -0.00716361 0
-0.00193277 -0.0068031 0
-0.00250089 -0.00621904 0
-0.00326755 -0.00545407 0
-0.00425919 -0.00453163 0
-0.0055006 -0.00344977 0
-0.0060642 -0.00215811 0
-0.00690952 -0.000515131 0
-0.00897689 0.000689033 0
-0.0112853 0.00163815 0
-0.0137945 0.00240158 0
-0.0164659 0.00298531 0
-0.0192506 0.00336143 0
-0.0220794 0.00348624 0
-0.0248559 0.00331418 0
-0.0274562 0.00281034 0
-0.0297336 0.00196184 0
-0.0315292 0.00078681 0
-0.0327264 -0.000661989 0
-0.0331321 -0.00232687 0
-0.0326016 -0.00399958 0
-0.0311511 -0.00552961 0
-0.0288212 -0.00676229 0
-0.0257221 -0.0075549 0
-0.0220318 -0.00779863 0
-0.017982 -0.00743813 0
-0.0138321 -0.00648327 0
-0.00983817 -0.00501105 0
-0.0062203 -0.00315943 0
-0.00313328 -0.00111944 0
-0.00144031 0.000861756 0
-0.000334362 0.00247098 0
0.00101232 0.00430515 0
0.00184286 0.00606236 0
0.00222527 0.00760896 0
0.00224311 0.00888563 0
0.00198279 0.00986434 0
0.00152945 0.0105284 0
0.000967117 0.0108619 0
0.00038059 0.0108419 0
-0.00014233 0.010429 0
-0.000510495 0.00955338 0
-0.000638404 0.00809071 0
-0.00048574 0.00582858 0
-0.000169502 0.00245039 0
-9.33005e-05 -0.00171451 0
-0.000365844 -0.00417193 0
-0.000751753 -0.00575371 0
-0.00118325 -0.00660226 0
-0.00167094 -0.00688028 0
-0.0022645 -0.00672617 0
-0.00302289 -0.00624661 0
-0.00400017 -0.00551982 0
-0.00524137 -0.00459922 0
-0.00678372 -0.00351395 0
-0.00865942 -0.00226334 0
-0.00953475 -0.00079966 0
-0.0107611 0.000985828 0
-0.013684 0.0023238 0
-0.0169307 0.00337681 0
-0.0204592 0.0042157 0
-0.0242135 0.00484476 0
-0.0281177 0.00522783 0
-0.0320666 0.00530863 0
-0.0359195 0.00502761 0
-0.0395004 0.00433741 0
-0.0426059 0.00321695 0
-0.045019 0.00168295 0
-0.0466126 -0.000205826 0
-0.0471247 -0.00238244 0
-0.0463582 -0.00459761 0
-0.0443665 -0.00666869 0
-0.0412046 -0.00840771 0
-0.0370151 -0.00963429 0
-0.0320258 -0.010204 0
-0.0265321 -0.0100341 0
-0.0208662 -0.00912032 0
-0.0153595 -0.00754197 0
-0.0103035 -0.00545695 0
-0.00591408 -0.00309314 0
-0.00348388 -0.000746318 0
-0.00186647 0.00123261 0
0.000149929 0.00343357 0
0.00146817 0.00553633 0
0.00218593 0.00739185 0
0.00241253 0.00893222 0
0.00226145 0.0101232 0
0.00184705 0.0109413 0
0.00128327 0.0113623 0
0.000682685 0.0113521 0
0.000153595 0.0108598 0
-0.000208496 0.00980849 0
-0.000341418 0.00808949 0
-0.000255457 0.00557186 0
-8.25615e-05 0.00216152 0
-7.11848e-05 -0.00151416 0
-0.000327534 -0.00375176 0
-0.000783904 -0.00523205 0
-0.00140134 -0.00601184 0
-0.00217721 -0.00620195 0
-0.00314045 -0.00592346 0
-0.00433671 -0.005285 0
-0.00581588 -0.00437366 0
-0.00762512 -0.00325187 0
-0.00980629 -0.00195539 0
-0.012394 -0.000488815 0
-0.0136235 0.00118453 0
-0.0152603 0.00313791 0
-0.0190779 0.00464466 0
-0.0232906 0.00583937 0
-0.0278575 0.00678304 0
-0.0327072 0.00747137 0
-0.0377359 0.00785518 0
-0.0428008 0.00786141 0
-0.0477161 0.00741293 0
-0.0522555 0.00644732 0
-0.0561626 0.00493446 0
-0.0591692 0.00289096 0
-0.0611406 0.00038711 0
-0.0617589 -0.00248038 0
-0.0607898 -0.00542254 0
-0.0583233 -0.00821872 0
-0.0544212 -0.010639 0
-0.049247 -0.0124554 0
-0.0430637 -0.0134783 0
-0.0362148 -0.0135896 0
-0.0290913 -0.0127647 0
-0.0220905 -0.0110823 0
-0.015572 -0.00872095 0
-0.00981777 -0.00594902 0
-0.00661387 -0.00311412 0
-0.00443478 -0.000612036 0
-0.00163607 0.00208707 0
0.000294421 0.00464982 0
0.00148244 0.00691668 0
0.00205851 0.00881033 0
0.00215736 0.0102869 0
0.00191612 0.011313 0
0.00147087 0.0118538 0
0.000951559 0.0118664 0
0.000473832 0.0112962 0
0.000126226 0.010077 0
-4.80466e-05 0.00814103 0
-6.95962e-05 0.00544658 0
-2.46322e-05 0.00203234 0
-6.96161e-05 -0.00133257 0
-0.000348855 -0.00327075 0
-0.00090391 -0.00452191 0
-0.00172716 -0.00511397 0
-0.00281977 -0.00512414 0
-0.00419941 -0.00465275 0
-0.00589786 -0.00380121 0
-0.00795495 -0.00265767 0
-0.0104129 -0.00128905 0
-0.0133116 0.000263216 0
-0.0166834 0.00198653 0
-0.0183035 0.00390076 0
-0.0203806 0.00604121 0
-0.0251422 0.00774631 0
-0.0303608 0.00911658 0
-0.0359964 0.0101916 0
-0.0419635 0.0109495 0
-0.0481308 0.011322 0
-0.0543184 0.0112149 0
-0.0602971 0.0105304 0
-0.0657938 0.00918961 0
-0.0705053 0.00715375 0
-0.0741201 0.00444198 0
-0.0764747 0.00114274 0
-0.0772227 -0.00260366 0
-0.0761263 -0.00645663 0
-0.0732865 -0.0101649 0
-0.068761 -0.0134498 0
-0.0627197 -0.0160264 0
-0.0554456 -0.0176505 0
-0.0473161 -0.0181591 0
-0.03877 -0.0174993 0
-0.0302647 -0.0157427 0
-0.0222288 -0.0130854 0
-0.0150184 -0.00983518 0
-0.0109915 -0.00639286 0
-0.0081876 -0.00320689 0
-0.00446598 0.0001228 0
-0.00177224 0.00325977 0
4.19951e-05 0.00604195 0
0.00112168 0.00838311 0
0.00161582 0.010227 0
0.00167723 0.0115274 0
0.0014568 0.0122393 0
0.00109465 0.0123154 0
0.000709431 0.0117068 0
0.000386619 0.0103702 0
0.000168738 0.00828262 0
5.36935e-05 0.00546598 0
9.484e-06 0.00201399 0
-8.16667e-05 -0.00112653 0
-0.00041905 -0.00267285 0
-0.00111394 -0.00357002 0
-0.00218006 -0.00384669 0
-0.00362658 -0.00356624 0
-0.00546678 -0.00281374 0
-0.00772175 -0.00168006 0
-0.01042 -0.000248377 0
-0.0135948 0.00141504 0
-0.0172795 0.00326557 0
-0.0215001 0.00528172 0
-0.0235426 0.00746346 0
-0.0260884 0.00980691 0
-0.031848 0.0117361 0
-0.0381203 0.0133112 0
-0.0448641 0.0145397 0
-0.0519797 0.0153727 0
-0.0593102 0.0157158 0
-0.0666409 0.0154495 0
-0.073703 0.014453 0
-0.0801825 0.0126308 0
-0.0857368 0.00993658 0
-0.0900192 0.00639539 0
-0.0927868 0.00211887 0
-0.0937143 -0.0027038 0
-0.0926149 -0.00765071 0
-0.0895454 -0.0124645 0
-0.084544 -0.0168119 0
-0.0777712 -0.0203418 0
-0.0695143 -0.0227452 0
-0.060171 -0.0238032 0
-0.0502185 -0.0234227 0
-0.0401711 -0.021658 0
-0.0305308 -0.0187139 0
-0.0217378 -0.0149331 0
-0.0168192 -0.0107694 0
-0.0133096 -0.00673274 0
-0.00849051 -0.00264202 0
-0.00484992 0.00118371 0
-0.00222666 0.00459068 0
-0.00047095 0.00748452 0
0.000572899 0.00979336 0
0.00106751 0.0114558 0
0.00117423 0.0124173 0
0.00104179 0.0126298 0
0.000795033 0.0120557 0
0.000526454 0.0106764 0
0.00029326 0.00850493 0
0.000122865 0.00559838 0
2.76291e-05 0.00206517 0
-0.000103051 -0.000861725 0
-0.000527503 -0.00189284 0
-0.00140427 -0.0023014 0
-0.00275781 -0.00212845 0
-0.00460241 -0.00143639 0
-0.00694887 -0.000301948 0
-0.00980999 0.00119417 0
-0.0132036 0.00297744 0
-0.0171524 0.00498673 0
-0.0216808 0.00717732 0
-0.0268068 0.00951957 0
-0.0292981 0.0119928 0
-0.0323391 0.014554 0
-0.0391513 0.016731 0
-0.0465285 0.0185363 0
-0.0544258 0.0199357 0
-0.0627293 0.0208441 0
-0.0712582 0.0211347 0
-0.0797673 0.0206587 0
-0.087954 0.0192711 0
-0.095471 0.01686 0
-0.101945 0.0133739 0
-0.107 0.00884601 0
-0.110233 0.00341265 0
-0.111416 -0.00269123 0
-0.110491 -0.00891513 0
-0.107381 -0.0150389 0
-0.102087 -0.020668 0
-0.0947439 -0.0253756 0
-0.085627 -0.028777 0
-0.0751404 -0.0305835 0
-0.0637902 -0.0306465 0
-0.0521453 -0.0289867 0
-0.0407855 -0.0258039 0
-0.0302468 -0.0214659 0
-0.0243472 -0.0164769 0
-0.0200293 -0.0114172 0
-0.0138951 -0.00644098 0
-0.00908255 -0.00181089 0
-0.00543278 0.00234134 0
-0.00280343 0.00591205 0
-0.00103952 0.00880853 0
2.78856e-05 0.0109503 0
0.000570295 0.012272 0
0.000748094 0.0127257 0
0.000699274 0.0122855 0
0.000533164 0.0109534 0
0.000330417 0.00876572 0
0.000149147 0.00579671 0
3.50087e-05 0.0021551 0
-0.000131302 -0.000509078 0
-0.000666235 -0.000864503 0
-0.00176298 -0.000630458 0
-0.00344848 0.000136362 0
-0.00573704 0.00136849 0
-0.00863538 0.00299307 0
-0.0121484 0.00493878 0
-0.0162838 0.00714207 0
-0.0210538 0.0095507 0
-0.0264733 0.0121232 0
-0.0325514 0.0148236 0
-0.0355123 0.0176113 0
-0.0390714 0.0204059 0
-0.0469876 0.022854 0
-0.0555205 0.0249122 0
-0.0646186 0.0264957 0
-0.0741542 0.0274758 0
-0.0839253 0.0276877 0
-0.0936616 0.0269505 0
-0.103034 0.0250945 0
-0.111671 0.0219926 0
-0.119174 0.0175896 0
-0.125148 0.0119276 0
-0.128916 0.00516476 0
-0.130452 -0.00242772 0
-0.12993 -0.0101132 0
-0.127013 -0.0177669 0
-0.121648 -0.0249234 0
-0.11393 -0.0310715 0
-0.104105 -0.035739 0
-0.0925676 -0.0385518 0
-0.0798416 -0.0392857 0
-0.066544 -0.0379057 0
-0.0533353 -0.034586 0
-0.0408584 -0.0297032 0
-0.0338727 -0.0238044 0
-0.0286205 -0.0175468 0
-0.0209005 -0.0115728 0
-0.014639 -0.00601991 0
-0.00970151 -0.0009835 0
-0.00596788 0.00341713 0
-0.00329001 0.0070586 0
-0.00149329 0.00983404 0
-0.000392856 0.011663 0
0.000189397 0.0124953 0
0.000412451 0.012313 0
0.000410097 0.0111323 0
0.000290795 0.009004 0
0.000141779 0.0060107 0
3.4799e-05 0.00225997 0
-0.000164857 -4.24194e-05 0
-0.000829116 0.000476553 0
-0.00217818 0.00153139 0
-0.00423549 0.00304975 0
-0.00701028 0.00495765 0
-0.0105021 0.00718507 0
-0.0147068 0.00967073 0
-0.0196219 0.0123647 0
-0.0252498 0.0152272 0
-0.031596 0.0182235 0
-0.0386619 0.0213138 0
-0.0421068 0.0244397 0
-0.046202 0.0274862 0
-0.0552664 0.03023 0
-0.0649999 0.0325622 0
-0.0753432 0.0343403 0
-0.0861547 0.0353861 0
-0.0972151 0.0354929 0
-0.108235 0.0344461 0
-0.118868 0.0320516 0
-0.128723 0.0281682 0
-0.137388 0.022738 0
-0.144449 0.01581 0
-0.148827 0.0075575 0
-0.150828 -0.00172427 0
-0.150978 -0.0110595 0
-0.148524 -0.020481 0
-0.143348 -0.0294384 0
-0.135492 -0.0373302 0
-0.125157 -0.0435861 0
-0.112709 -0.0477299 0
-0.0986728 -0.0494384 0
-0.0836995 -0.048593 0
-0.0685259 -0.0453127 0
-0.0539089 -0.0399578 0
-0.0457294 -0.033102 0
-0.0393961 -0.0254805 0
-0.0297574 -0.0184173 0
-0.0217086 -0.0118173 0
-0.0151708 -0.00572952 0
-0.0100625 -0.000305535 0
-0.0062467 0.00428351 0
-0.0035411 0.00789224 0
-0.00174168 0.0104175 0
-0.000645121 0.0118013 0
-6.37724e-05 0.0120287 0
0.000166682 0.0111245 0
0.000185357 0.00914885 0
0.000107838 0.00619076 0
2.90483e-05 0.00236023 0
-0.00020249 0.000562314 0
-0.0010107 0.0021911 0
-0.0026376 0.00427013 0
-0.00509873 0.00671253 0
-0.00839391 0.00943926 0
-0.0125123 0.0123851 0
-0.0174388 0.0155018 0
-0.0231605 0.0187568 0
-0.0296701 0.0221273 0
-0.0369651 0.0255892 0
-0.0450406 0.0291019 0
-0.0489766 0.0325917 0
-0.0536192 0.0359127 0
-0.0638635 0.0389786 0
-0.0748308 0.0416057 0
-0.0864528 0.0435878 0
-0.0985755 0.0446931 0
-0.110966 0.0446712 0
-0.123323 0.0432731 0
-0.135287 0.0402811 0
-0.146458 0.035541 0
-0.156414 0.0289915 0
-0.164727 0.0206854 0
-0.169778 0.0108029 0
-0.172357 -0.000348309 0
-0.173462 -0.0115274 0
-0.17176 -0.0229686 0
-0.167064 -0.0340221 0
-0.159356 -0.0439945 0
-0.148775 -0.0522115 0
-0.135638 -0.0580795 0
-0.120441 -0.0611523 0
-0.103846 -0.0611944 0
-0.0866495 -0.0582311 0
-0.0697179 -0.0525687 0
-0.0602605 -0.0447777 0
-0.0526871 -0.0356602 0
-0.0407318 -0.0274503 0
-0.030493 -0.0196673 0
-0.0219888 -0.012321 0
-0.0151924 -0.00562763 0
-0.00998076 0.000167866 0
-0.00615947 0.00486418 0
-0.00349853 0.00832437 0
-0.00176145 0.0104751 0
-0.000724518 0.0112992 0
-0.000187265 0.0108262 0
2.33593e-05 0.00912375 0
5.25994e-05 0.00628887 0
1.91594e-05 0.00243916 0
-0.000242984 0.00132673 0
-0.00120528 0.00433385 0
-0.00312744 0.00766375 0
-0.00601388 0.0112167 0
-0.00985163 0.0149119 0
-0.0146166 0.0186934 0
-0.0202811 0.0225312 0
-0.0268213 0.026416 0
-0.0342206 0.0303471 0
-0.0424696 0.0343155 0
-0.0515589 0.0382837 0
-0.0559845 0.042166 0
-0.0611766 0.0457893 0
-0.0726132 0.049206 0
-0.0848275 0.0521488 0
-0.0977412 0.0543438 0
-0.11119 0.0555037 0
-0.124931 0.0553335 0
-0.138654 0.0535506 0
-0.151993 0.0499145 0
-0.164546 0.0442587 0
-0.175885 0.0365171 0
-0.185573 0.0267433 0
-0.191329 0.015118 0
-0.194578 0.00195537 0
-0.196902 -0.0112671 0
-0.19623 -0.0249817 0
-0.192324 -0.0384301 0
-0.185098 -0.0508354 0
-0.174618 -0.0614195 0
-0.161121 -0.0694635 0
-0.145041 -0.0743766 0
-0.127014 -0.0757716 0
-0.107857 -0.0735334 0
-0.0885228 -0.067862 0
-0.0777673 -0.0592761 0
-0.0688011 -0.0486134 0
-0.0540782 -0.0392466 0
-0.0411945 -0.0301264 0
-0.0303131 -0.0212648 0
-0.021476 -0.0129933 0
-0.0145753 -0.00566642 0
-0.00940148 0.000435979 0
-0.00569212 0.00512868 0
-0.00317027 0.00831406 0
-0.00156906 0.00996705 0
-0.000645885 0.0101196 0
-0.000189191 0.00884736 0
-2.04936e-05 0.00625796 0
6.04391e-06 0.00248195 0
-0.000284932 0.00226875 0
-0.00140616 0.0069498 0
-0.00363128 0.0117761 0
-0.00695129 0.0166372 0
-0.0113381 0.0214552 0
-0.0167525 0.0261898 0
-0.023153 0.0308366 0
-0.0305041 0.0354167 0
-0.0387808 0.0399584 0
-0.0479679 0.0444732 0
-0.0580529 0.0489309 0
-0.0629561 0.0532369 0
-0.0686877 0.0571956 0
-0.0813011 0.0609928 0
-0.0947447 0.0642711 0
-0.108929 0.0666867 0
-0.123682 0.0678964 0
-0.138751 0.0675613 0
-0.153821 0.065366 0
-0.168525 0.0610484 0
-0.182457 0.0544296 0
-0.195189 0.0454395 0
-0.206288 0.0341316 0
-0.212728 0.0206866 0
-0.216693 0.00542692 0
-0.22043 -0.0100373 0
-0.221024 -0.0262564 0
-0.218206 -0.0423726 0
-0.211832 -0.0575444 0
-0.20188 -0.0709021 0
-0.188483 -0.0816042 0
-0.171971 -0.0889039 0
-0.152893 -0.0922317 0
-0.132033 -0.0912815 0
-0.110376 -0.0860819 0
-0.0984223 -0.0770287 0
-0.0879518 -0.0649332 0
-0.0699986 -0.054458 0
-0.0540019 -0.0438258 0
-0.040313 -0.0331414 0
-0.0290545 -0.0229193 0
-0.0201392 -0.0136654 0
-0.0133435 -0.00576661 0
-0.0083704 0.000525154 0
-0.00489746 0.00507628 0
-0.00260825 0.00784756 0
-0.0012116 0.0088711 0
-0.000451384 0.0082312 0
-0.000110296 0.00604965 0
-9.91749e-06 0.00247456 0
-0.000326614 0.00340076 0
-0.00160526 0.0100694 0
-0.00412924 0.0166495 0
-0.00787502 0.0230228 0
-0.0127983 0.0291195 0
-0.0188437 0.0349229 0
-0.0259554 0.0404631 0
-0.0340863 0.0458003 0
-0.0432033 0.0509995 0
-0.0532862 0.0560987 0
-0.0643209 0.0610795 0
-0.0696771 0.0658423 0
-0.0759223 0.070173 0
-0.0896591 0.0743783 0
-0.104271 0.0780078 0
-0.119657 0.0806473 0
-0.135634 0.0818985 0
-0.151944 0.0813793 0
-0.168267 0.078743 0
-0.184231 0.0737067 0
-0.199432 0.0660817 0
-0.213448 0.0557964 0
-0.225861 0.0429096 0
-0.232894 0.0276096 0
-0.237553 0.0102377 0
-0.242774 -0.00764858 0
-0.244776 -0.0265458 0
-0.243298 -0.0455362 0
-0.238149 -0.0637421 0
-0.229214 -0.0802293 0
-0.216502 -0.0940534 0
-0.200191 -0.104316 0
-0.180684 -0.110249 0
-0.158645 -0.11131 0
-0.135011 -0.107285 0
-0.12214 -0.0983587 0
-0.110149 -0.0852146 0
-0.0885813 -0.073744 0
-0.0690659 -0.0614202 0
-0.0521666 -0.0485784 0
-0.0381005 -0.0359857 0
-0.0268192 -0.0243454 0
-0.0180983 -0.0141856 0
-0.0116127 -0.00585102 0
-0.00699387 0.000471998 0
-0.00387143 0.00472068 0
-0.00189919 0.00692349 0
-0.000769386 0.00717378 0
-0.000218653 0.00561008 0
-2.90003e-05 0.00240201 0
-0.000365952 0.00472725 0
-0.00179286 0.0137027 0
-0.00459772 0.0222969 0
-0.00874259 0.0303861 0
-0.0141672 0.0379153 0
-0.0208002 0.0448996 0
-0.0285718 0.0514129 0
-0.0374235 0.0575643 0
-0.0473143 0.0634634 0
-0.0582197 0.0691818 0
-0.070124 0.0747172 0
-0.0758941 0.0799692 0
-0.0826073 0.0847085 0
-0.0973647 0.0893426 0
-0.113027 0.0933294 0
-0.12948 0.0961854 0
-0.146529 0.0974582 0
-0.163906 0.0967238 0
-0.181282 0.0936052 0
-0.198283 0.0878019 0
-0.214507 0.0791197 0
-0.229547 0.0674942 0
-0.243013 0.0530014 0
-0.250472 0.0358535 0
-0.255714 0.0164281 0
-0.26232 -0.00401265 0
-0.265738 -0.0256648 0
-0.265756 -0.0476232 0
-0.262153 -0.0690099 0
-0.254735 -0.0888686 0
-0.243372 -0.106191 0
-0.228056 -0.119956 0
-0.208979 -0.129201 0
-0.186597 -0.133124 0
-0.161683 -0.131209 0
-0.148408 -0.123331 0
-0.135048 -0.109913 0
-0.109714 -0.0976362 0
-0.086452 -0.0834968 0
-0.0660358 -0.0681989 0
-0.0488072 -0.0528134 0
-0.0347985 -0.0382874 0
-0.0238191 -0.0253361 0
-0.0155351 -0.0144344 0
-0.00954044 -0.0058485 0
-0.00541031 0.000319173 0
-0.00273838 0.00408574 0
-0.00115774 0.00555163 0
-0.000350885 0.00487361 0
-5.22342e-05 0.00224585 0
-0.000400537 0.0062423 0
-0.00195784 0.0178335 0
-0.00500979 0.028693 0
-0.00950584 0.0386945 0
-0.0153715 0.047803 0
-0.0225211 0.0560738 0
-0.0308717 0.063634 0
-0.040354 0.0706508 0
-0.0509192 0.077287 0
-0.0625379 0.0836539 0
-0.0751926 0.0897706 0
-0.0813207 0.0955388 0
-0.0884331 0.100718 0
-0.10405 0.105788 0
-0.120579 0.110121 0
-0.137887 0.113166 0
-0.155765 0.114419 0
-0.173931 0.113414 0
-0.192045 0.109746 0
-0.209728 0.103103 0
-0.226584 0.0932942 0
-0.242231 0.0802766 0
-0.256324 0.0641629 0
-0.263974 0.0452109 0
-0.269597 0.0238535 0
-0.27729 0.000814425 0
-0.281968 -0.023539 0
-0.283494 -0.0484068 0
-0.281647 -0.0729488 0
-0.276174 -0.0962419 0
-0.266815 -0.117272 0
-0.253365 -0.134948 0
-0.235755 -0.148152 0
-0.214154 -0.155832 0
-0.189051 -0.157136 0
-0.176111 -0.151559 0
-0.161779 -0.13911 0
-0.132961 -0.126339 0
-0.106046 -0.110441 0
-0.0819955 -0.0925362 0
-0.0613396 -0.0740149 0
-0.044267 -0.0561152 0
-0.0306816 -0.0398011 0
-0.0202816 -0.0257348 0
-0.012644 -0.0143057 0
-0.00729711 -0.00568417 0
-0.00377284 0.000120122 0
-0.00163895 0.00320849 0
-0.000515635 0.00375518 0
-8.13708e-05 0.00198107 0
-0.000427745 0.00792729 0
-0.0020881 0.022414 0
-0.00533639 0.0357676 0
-0.010113 0.0478608 0
-0.0163328 0.0586838 0
-0.0238985 0.0683379 0
-0.0327158 0.0770117 0
-0.0427055 0.0849383 0
-0.0538104 0.0923413 0
-0.0659952 0.0993778 0
-0.0792384 0.106093 0
-0.0856511 0.112394 0
-0.0930687 0.118031 0
-0.109319 0.123522 0
-0.126458 0.128164 0
-0.144329 0.131343 0
-0.162702 0.132501 0
-0.181278 0.131135 0
-0.199703 0.126815 0
-0.217595 0.119226 0
-0.234571 0.108196 0
-0.250281 0.093723 0
-0.264444 0.0759794 0
-0.272 0.0552926 0
-0.277728 0.0321634 0
-0.286037 0.00661118 0
-0.291654 -0.0202436 0
-0.294532 -0.0477877 0
-0.294479 -0.0752562 0
-0.291219 -0.101819 0
-0.284393 -0.126526 0
-0.273616 -0.148293 0