# vtk DataFile Version 2.0
Velocidades
ASCII

DATASET STRUCTURED_GRID
DIMENSIONS   50   50   20

POINTS   50000   double
0.00568455   0.00568455   0.025
0.0174023   0.00568455   0.025
0.0298294   0.00568455   0.025
0.0429888   0.00568455   0.025
0.0569012   0.00568455   0.025
0.0715849   0.00568455   0.025
0.0870549   0.00568455   0.025
0.103323   0.00568455   0.025
0.120395   0.00568455   0.025
0.138275   0.00568455   0.025
0.156961   0.00568455   0.025
0.176443   0.00568455   0.025
0.196707   0.00568455   0.025
0.217734   0.00568455   0.025
0.239496   0.00568455   0.025
0.261959   0.00568455   0.025
0.285082   0.00568455   0.025
0.308818   0.00568455   0.025
0.333113   0.00568455   0.025
0.357906   0.00568455   0.025
0.383132   0.00568455   0.025
0.408719   0.00568455   0.025
0.434592   0.00568455   0.025
0.460672   0.00568455   0.025
0.486877   0.00568455   0.025
0.513123   0.00568455   0.025
0.539328   0.00568455   0.025
0.565408   0.00568455   0.025
0.591281   0.00568455   0.025
0.616868   0.00568455   0.025
0.642094   0.00568455   0.025
0.666887   0.00568455   0.025
0.691182   0.00568455   0.025
0.714918   0.00568455   0.025
0.738041   0.00568455   0.025
0.760504   0.00568455   0.025
0.782266   0.00568455   0.025
0.803293   0.00568455   0.025
0.823557   0.00568455   0.025
0.843039   0.00568455   0.025
0.861725   0.00568455   0.025
0.879605   0.00568455   0.025
0.896677   0.00568455   0.025
0.912945   0.00568455   0.025
0.928415   0.00568455   0.025
0.943099   0.00568455   0.025
0.957011   0.00568455   0.025
0.970171   0.00568455   0.025
0.982598   0.00568455   0.025
0.994315   0.00568455   0.025
0.00568455   0.0174023   0.025
0.0174023   0.0174023   0.025
0.0298294   0.0174023   0.025
0.0429888   0.0174023   0.025
0.0569012   0.0174023   0.025
0.0715849   0.0174023   0.025
0.0870549   0.0174023   0.025
0.103323   0.0174023   0.025
0.120395   0.0174023   0.025
0.138275   0.0174023   0.025
0.156961   0.0174023   0.025
0.176443   0.0174023   0.025
0.196707   0.0174023   0.025
0.217734   0.0174023   0.025
0.239496   0.0174023   0.025
0.261959   0.0174023   0.025
0.285082   0.0174023   0.025
0.308818   0.0174023   0.025
0.333113   0.0174023   0.025
0.357906   0.0174023   0.025
0.383132   0.0174023   0.025
0.408719   0.0174023   0.025
0.434592   0.0174023   0.025
0.460672   0.0174023   0.025
0.486877   0.0174023   0.025
0.513123   0.0174023   0.025
0.539328   0.0174023   0.025
0.565408   0.0174023   0.025
0.591281   0.0174023   0.025
0.616868   0.0174023   0.025
0.642094   0.0174023   0.025
0.666887   0.0174023   0.025
0.691182   0.0174023   0.025
0.714918   0.0174023   0.025
0.738041   0.0174023   0.025
0.760504   0.0174023   0.025
0.782266   0.0174023   0.025
0.803293   0.0174023   0.025
0.823557   0.0174023   0.025
0.843039   0.0174023   0.025
0.861725   0.0174023   0.025
0.879605   0.0174023   0.025
0.896677   0.0174023   0.025
0.912945   0.0174023   0.025
0.928415   0.0174023   0.025
0.943099   0.0174023   0.025
0.957011   0.0174023   0.025
0.970171   0.0174023   0.025
0.982598   0.0174023   0.025
0.994315   0.0174023   0.025
0.00568455   0.0298294   0.025
0.0174023   0.0298294   0.025
0.0298294   0.0298294   0.025
0.0429888   0.0298294   0.025
0.0569012   0.0298294   0.025
0.0715849   0.0298294   0.025
0.0870549   0.0298294   0.025
0.103323   0.0298294   0.025
0.120395   0.0298294   0.025
0.138275   0.0298294   0.025
0.156961   0.0298294   0.025
0.176443   0.0298294   0.025
0.196707   0.0298294   0.025
0.217734   0.0298294   0.025
0.239496   0.0298294   0.025
0.261959   0.0298294   0.025
0.285082   0.0298294   0.025
0.308818   0.0298294   0.025
0.333113   0.0298294   0.025
0.357906   0.0298294   0.025
0.383132   0.0298294   0.025
0.408719   0.0298294   0.025
0.434592   0.0298294   0.025
0.460672   0.0298294   0.025
0.486877   0.0298294   0.025
0.513123   0.0298294   0.025
0.539328   0.0298294   0.025
0.565408   0.0298294   0.025
0.591281   0.0298294   0.025
0.616868   0.0298294   0.025
0.642094   0.0298294   0.025
0.666887   0.0298294   0.025
0.691182   0.0298294   0.025
0.714918   0.0298294   0.025
0.738041   0.0298294   0.025
0.760504   0.0298294   0.025
0.782266   0.0298294   0.025
0.803293   0.0298294   0.025
0.823557   0.0298294   0.025
0.843039   0.0298294   0.025
0.861725   0.0298294   0.025
0.879605   0.0298294   0.025
0.896677   0.0298294   0.025
0.912945   0.0298294   0.025
0.928415   0.0298294   0.025
0.943099   0.0298294   0.025
0.957011   0.0298294   0.025
0.970171   0.0298294   0.025
0.982598   0.0298294   0.025
0.994315   0.0298294   0.025
0.00568455   0.0429888   0.025
0.0174023   0.0429888   0.025
0.0298294   0.0429888   0.025
0.0429888   0.0429888   0.025
0.0569012   0.0429888   0.025
0.0715849   0.0429888   0.025
0.0870549   0.0429888   0.025
0.103323   0.0429888   0.025
0.120395   0.0429888   0.025
0.138275   0.0429888   0.025
0.156961   0.0429888   0.025
0.176443   0.0429888   0.025
0.196707   0.0429888   0.025
0.217734   0.0429888   0.025
0.239496   0.0429888   0.025
0.261959   0.0429888   0.025
0.285082   0.0429888   0.025
0.308818   0.0429888   0.025
0.333113   0.0429888   0.025
0.357906   0.0429888   0.025
0.383132   0.0429888   0.025
0.408719   0.0429888   0.025
0.434592   0.0429888   0.025
0.460672   0.0429888   0.025
0.486877   0.0429888   0.025
0.513123   0.0429888   0.025
0.539328   0.0429888   0.025
0.565408   0.0429888   0.025
0.591281   0.0429888   0.025
0.616868   0.0429888   0.025
0.642094   0.0429888   0.025
0.666887   0.0429888   0.025
0.691182   0.0429888   0.025
0.714918   0.0429888   0.025
0.738041   0.0429888   0.025
0.760504   0.0429888   0.025
0.782266   0.0429888   0.025
0.803293   0.0429888   0.025
0.823557   0.0429888   0.025
0.843039   0.0429888   0.025
0.861725   0.0429888   0.025
0.879605   0.0429888   0.025
0.896677   0.0429888   0.025
0.912945   0.0429888   0.025
0.928415   0.0429888   0.025
0.943099   0.0429888   0.025
0.957011   0.0429888   0.025
0.970171   0.0429888   0.025
0.982598   0.0429888   0.025
0.994315   0.0429888   0.025
0.00568455   0.0569012   0.025
0.0174023   0.0569012   0.025
0.0298294   0.0569012   0.025
0.0429888   0.0569012   0.025
0.0569012   0.0569012   0.025
0.0715849   0.0569012   0.025
0.0870549   0.0569012   0.025
0.103323   0.0569012   0.025
0.120395   0.0569012   0.025
0.138275   0.0569012   0.025
0.156961   0.0569012   0.025
0.176443   0.0569012   0.025
0.196707   0.0569012   0.025
0.217734   0.0569012   0.025
0.239496   0.0569012   0.025
0.261959   0.0569012   0.025
0.285082   0.0569012   0.025
0.308818   0.0569012   0.025
0.333113   0.0569012   0.025
0.357906   0.0569012   0.025
0.383132   0.0569012   0.025
0.408719   0.0569012   0.025
0.434592   0.0569012   0.025
0.460672   0.0569012   0.025
0.486877   0.0569012   0.025
0.513123   0.0569012   0.025
0.539328   0.0569012   0.025
0.565408   0.0569012   0.025
0.591281   0.0569012   0.025
0.616868   0.0569012   0.025
0.642094   0.0569012   0.025
0.666887   0.0569012   0.025
0.691182   0.0569012   0.025
0.714918   0.0569012   0.025
0.738041   0.0569012   0.025
0.760504   0.0569012   0.025
0.782266   0.0569012   0.025
0.803293   0.0569012   0.025
0.823557   0.0569012   0.025
0.843039   0.0569012   0.025
0.861725   0.0569012   0.025
0.879605   0.0569012   0.025
0.896677   0.0569012   0.025
0.912945   0.0569012   0.025
0.928415   0.0569012   0.025
0.943099   0.0569012   0.025
0.957011   0.0569012   0.025
0.970171   0.0569012   0.025
0.982598   0.0569012   0.025
0.994315   0.0569012   0.025
0.00568455   0.0715849   0.025
0.0174023   0.0715849   0.025
0.0298294   0.0715849   0.025
0.0429888   0.0715849   0.025
0.0569012   0.0715849   0.025
0.0715849   0.0715849   0.025
0.0870549   0.0715849   0.025
0.103323   0.0715849   0.025
0.120395   0.0715849   0.025
0.138275   0.0715849   0.025
0.156961   0.0715849   0.025
0.176443   0.0715849   0.025
0.196707   0.0715849   0.025
0.217734   0.0715849   0.025
0.239496   0.0715849   0.025
0.261959   0.0715849   0.025
0.285082   0.0715849   0.025
0.308818   0.0715849   0.025
0.333113   0.0715849   0.025
0.357906   0.0715849   0.025
0.383132   0.0715849   0.025
0.408719   0.0715849   0.025
0.434592   0.0715849   0.025
0.460672   0.0715849   0.025
0.486877   0.0715849   0.025
0.513123   0.0715849   0.025
0.539328   0.0715849   0.025
0.565408   0.0715849   0.025
0.591281   0.0715849   0.025
0.616868   0.0715849   0.025
0.642094   0.0715849   0.025
0.666887   0.0715849   0.025
0.691182   0.0715849   0.025
0.714918   0.0715849   0.025
0.738041   0.0715849   0.025
0.760504   0.0715849   0.025
0.782266   0.0715849   0.025
0.803293   0.0715849   0.025
0.823557   0.0715849   0.025
0.843039   0.0715849   0.025
0.861725   0.0715849   0.025
0.879605   0.0715849   0.025
0.896677   0.0715849   0.025
0.912945   0.0715849   0.025
0.928415   0.0715849   0.025
0.943099   0.0715849   0.025
0.957011   0.0715849   0.025
0.970171   0.0715849   0.025
0.982598   0.0715849   0.025
0.994315   0.0715849   0.025
0.00568455   0.0870549   0.025
0.0174023   0.0870549   0.025
0.0298294   0.0870549   0.025
0.0429888   0.0870549   0.025
0.0569012   0.0870549   0.025
0.0715849   0.0870549   0.025
0.0870549   0.0870549   0.025
0.103323   0.0870549   0.025
0.120395   0.0870549   0.025
0.138275   0.0870549   0.025
0.156961   0.0870549   0.025
0.176443   0.0870549   0.025
0.196707   0.0870549   0.025
0.217734   0.0870549   0.025
0.239496   0.0870549   0.025
0.261959   0.0870549   0.025
0.285082   0.0870549   0.025
0.308818   0.0870549   0.025
0.333113   0.0870549   0.025
0.357906   0.0870549   0.025
0.383132   0.0870549   0.025
0.408719   0.0870549   0.025
0.434592   0.0870549   0.025
0.460672   0.0870549   0.025
0.486877   0.0870549   0.025
0.513123   0.0870549   0.025
0.539328   0.0870549   0.025
0.565408   0.0870549   0.025
0.591281   0.0870549   0.025
0.616868   0.0870549   0.025
0.642094   0.0870549   0.025
0.666887   0.0870549   0.025
0.691182   0.0870549   0.025
0.714918   0.0870549   0.025
0.738041   0.0870549   0.025
0.760504   0.0870549   0.025
0.782266   0.0870549   0.025
[...]
POINT_DATA   50000
VECTORS Velocidades double

-7.68543e-05 -0.00168909 0
-0.000207936 -0.00331766 0
-0.000285516 -0.00423466 0
-0.000313952 -0.00474993 0
-0.000321016 -0.00498903 0
-0.000333961 -0.00501538 0
-0.000373534 -0.00486797 0
-0.000454318 -0.0045745 0
-0.00058615 -0.00415608 0
-0.000775645 -0.00362801 0
-0.00102824 -0.00299674 0
-0.00115405 -0.00224624 0
-0.00133392 -0.00127788 0
-0.00177618 -0.000549389 0
-0.00229378 5.81871e-05 0
-0.00285924 0.000571631 0
-0.00346319 0.00098782 0
-0.00409656 0.0012898 0
-0.0047462 0.00145507 0
-0.00539316 0.00146218 0
-0.00601207 0.00129656 0
-0.00657164 0.000955566 0
-0.00703747 0.000451961 0
-0.00736371 -0.000183624 0
-0.00750851 -0.000890823 0
-0.00744384 -0.00160258 0
-0.0071522 -0.00223943 0
-0.00663731 -0.00272691 0
-0.00592313 -0.00300115 0
-0.00505443 -0.00301765 0
-0.00409259 -0.00275849 0
-0.00310757 -0.00223592 0
-0.0021677 -0.00149154 0
-0.00132981 -0.000591957 0
-0.000630613 0.000376128 0
-0.00023873 0.00130414 0
2.04113e-06 0.00203255 0
0.000272508 0.0028755 0
0.000437754 0.00367522 0
0.000503971 0.00437278 0
0.000490935 0.00494231 0
0.000418456 0.00537199 0
0.00030478 0.00565574 0
0.000167081 0.00578879 0
2.25197e-05 0.00576438 0
-0.000110305 0.00556987 0
-0.000209565 0.00517966 0
-0.000249259 0.00453931 0
-0.000204943 0.00352214 0
-7.9591e-05 0.00179164 0
-0.000257134 -0.00310527 0
-0.000677366 -0.00647222 0
-0.000894639 -0.00841819 0
-0.000950719 -0.00949817 0
-0.000950664 -0.00997971 0
-0.000977579 -0.0100076 0
-0.00109059 -0.00967196 0
-0.00133116 -0.00903576 0
-0.00172803 -0.00814615 0
-0.00230149 -0.00703624 0
-0.0030695 -0.00571849 0
-0.00340575 -0.00415628 0
-0.00396945 -0.00216871 0
-0.00539796 -0.000666869 0
-0.0070103 0.000577979 0
-0.00877017 0.00162668 0
-0.0106524 0.00247422 0
-0.0126264 0.00308447 0
-0.0146468 0.00340876 0
-0.0166482 0.00340003 0
-0.0185455 0.00302534 0
-0.0202365 0.00227676 0
-0.0216104 0.0011795 0
-0.022538 -0.000202838 0
-0.0229002 -0.0017686 0
-0.0226182 -0.00334784 0
-0.0216589 -0.00477817 0
-0.0200475 -0.00590056 0
-0.0178627 -0.00657509 0
-0.0152376 -0.00670105 0
-0.0123481 -0.00623382 0
-0.00939203 -0.00519371 0
-0.00656406 -0.00366534 0
-0.00402953 -0.00178915 0
-0.00190119 0.000248255 0
-0.000743809 0.00220939 0
-2.3725e-06 0.00376258 0
0.000881132 0.00554828 0
0.00140365 0.00724386 0
0.00161396 0.0087236 0
0.00157385 0.00993401 0
0.0013438 0.0108512 0
0.000980282 0.0114623 0
0.000537165 0.0117562 0
6.84401e-05 0.011716 0
-0.00036789 0.0113106 0
-0.000704052 0.0104786 0
-0.000854945 0.0090948 0
-0.000720676 0.00689286 0
-0.000284627 0.0032812 0
-0.00018544 -0.00262379 0
-0.000589093 -0.00607787 0
-0.000961402 -0.00821298 0
-0.00122066 -0.00939709 0
-0.00142816 -0.0098898 0
-0.00167605 -0.00986106 0
-0.00204809 -0.00942542 0
-0.00261094 -0.00866448 0
-0.00341513 -0.00763782 0
-0.00449911 -0.00638553 0
-0.00589516 -0.00492096 0
-0.00652749 -0.00320353 0
-0.00750028 -0.00108791 0
-0.00990131 0.000530238 0
-0.0125999 0.00185921 0
-0.0155512 0.00296999 0
-0.0187086 0.00385867 0
-0.0220118 0.00448297 0
-0.0253756 0.00478449 0
-0.0286839 0.00470534 0
-0.0317895 0.0042029 0
-0.0345205 0.00326274 0
-0.0366929 0.00190922 0
-0.0381359 0.000210371 0
-0.0386529 -0.00175692 0
-0.0381074 -0.00375489 0
-0.0364869 -0.00560432 0
-0.0338388 -0.00711972 0
-0.0302904 -0.00813024 0
-0.0260478 -0.00850572 0
-0.021379 -0.00817921 0
-0.0165843 -0.00716013 0
-0.0119609 -0.00553602 0
-0.00776518 -0.00346494 0
-0.00417961 -0.00116589 0
-0.0022068 0.00107724 0
-0.000922061 0.00290142 0
0.000637226 0.00495898 0
0.00161216 0.00691172 0
0.00208668 0.00861863 0
0.00215626 0.0100214 0
0.00191669 0.0110939 0
0.00146125 0.0118203 0
0.000881892 0.0121839 0
0.000271774 0.0121586 0
-0.000272035 0.0116988 0
-0.000648087 0.0107237 0
-0.00076078 0.00909049 0
-0.000565348 0.00655604 0
-0.000195203 0.00275956 0
-0.000117116 -0.00227583 0
-0.000450298 -0.00560432 0
-0.000900751 -0.00781087 0
-0.00137304 -0.00905981 0
-0.00187742 -0.00954599 0
-0.00247868 -0.00943706 0
-0.00325695 -0.00886467 0
-0.00428802 -0.00792947 0
-0.00563639 -0.00670647 0
-0.00735466 -0.00524602 0
-0.00948494 -0.003567 0
-0.0104786 -0.00163603 0
-0.011895 0.000651216 0
-0.0152944 0.00243593 0
-0.0190924 0.00389851 0
-0.0232417 0.00510874 0
-0.0276741 0.00605888 0
-0.032295 0.00669639 0
-0.0369746 0.00694847 0
-0.0415426 0.00674188 0
-0.04579 0.00602068 0
-0.0494782 0.00476228 0
-0.0523562 0.00299051 0
-0.0542487 0.00078016 0
-0.0548798 -0.00178744 0
-0.0540512 -0.00441723 0
-0.0518006 -0.00689589 0
-0.0481938 -0.00899984 0
-0.0433966 -0.0105151 0
-0.0376716 -0.0112711 0
-0.0313573 -0.0111694 0
-0.0248347 -0.0102031 0
-0.0184849 -0.00846187 0
-0.0126442 -0.00612575 0
-0.00756518 -0.00345497 0
-0.00474492 -0.000787676 0
-0.00287173 0.00147226 0
-0.000540403 0.00394705 0
0.0010029 0.00628532 0
0.00187614 0.00833401 0
0.00220299 0.0100279 0
0.00210879 0.0113353 0
0.00171899 0.0122331 0
0.00115878 0.012695 0
0.000552244 0.0126827 0
1.92409e-05 0.0121371 0
-0.000334313 0.0109696 0
-0.000439857 0.00905471 0
-0.000310725 0.00624204 0
-9.80215e-05 0.00242334 0
-8.39426e-05 -0.0020309 0
-0.000381464 -0.00510902 0
-0.000899002 -0.0072231 0
-0.00158081 -0.00842275 0
-0.00242052 -0.00883188 0
-0.00345571 -0.00859286 0
-0.00474853 -0.00783828 0
-0.00636865 -0.00668019 0
-0.00838276 -0.00520673 0
-0.0108491 -0.0034798 0
-0.013813 -0.00152905 0
-0.0152222 0.000661091 0
-0.0171188 0.003149 0
-0.0215633 0.00514335 0
-0.026491 0.00678629 0
-0.0318551 0.00813168 0
-0.0375667 0.00915926 0
-0.0434956 0.00980055 0
-0.0494652 0.00996381 0
-0.0552505 0.00955683 0
-0.0605831 0.00850824 0
-0.065164 0.00678714 0
-0.0686855 0.00441911 0
-0.0709857 0.00149272 0
-0.0717155 -0.00187796 0
-0.0706237 -0.00534844 0
-0.0678093 -0.00866335 0
-0.0633479 -0.0115514 0
-0.0574296 -0.0137453 0
-0.0503552 -0.0150238 0
-0.0425144 -0.015249 0
-0.0343508 -0.0143907 0
-0.0263161 -0.0125368 0
-0.0188215 -0.00988974 0
-0.0121936 -0.00675379 0
-0.0084937 -0.00352393 0
-0.00598027 -0.000651515 0
-0.00275303 0.00238679 0
-0.00050136 0.00523663 0
0.000923276 0.0077402 0
0.00166659 0.00982483 0
0.0018765 0.011449 0
0.0017034 0.0125787 0
0.00129706 0.0131757 0
0.000800876 0.0131916 0
0.000342655 0.0125632 0
1.9915e-05 0.011214 0
-0.000120895 0.00906518 0
-0.000105452 0.00606785 0
-3.34815e-05 0.00226458 0
-7.80872e-05 -0.00182184 0
-0.000391698 -0.0045618 0
-0.001013 -0.00642861 0
-0.00192897 -0.00743295 0
-0.00313925 -0.00765284 0
-0.00466698 -0.00720154 0
-0.00655585 -0.00620091 0
-0.00886174 -0.00476427 0
-0.011644 -0.00298706 0
-0.0149578 -0.000941392 0
-0.018845 0.00132889 0
-0.0207156 0.00381419 0
-0.0231277 0.00652281 0
-0.028673 0.00876183 0
-0.0347714 0.010625 0
-0.0413749 0.0121351 0
-0.0483748 0.0132484 0
-0.0556051 0.0138736 0
-0.0628435 0.0138955 0
-0.0698132 0.0132005 0
-0.076192 0.0117014 0
-0.0816302 0.00936065 0
-0.0857755 0.00620987 0
-0.0884688 0.00236029 0
-0.0893114 -0.00202231 0
-0.0880277 -0.00653596 0
-0.0847604 -0.0108921 0
-0.0795815 -0.0147642 0
-0.072688 -0.0178224 0
-0.0643998 -0.0197857 0
-0.0551398 -0.0204668 0
-0.0453992 -0.0198031 0
-0.0356923 -0.0178734 0
-0.0265042 -0.0148972 0
-0.0182437 -0.0112208 0
-0.01362 -0.00729599 0
-0.0104018 -0.00362895 0
-0.00612553 0.000117431 0
-0.00299736 0.00360305 0
-0.000846394 0.00667585 0
0.000486377 0.00925604 0
0.00116325 0.0112886 0
0.00135157 0.012725 0
0.00121743 0.0135155 0
0.000915493 0.0136064 0
0.000576596 0.0129414 0
0.000294318 0.0114699 0
0.000113814 0.00916457 0
2.99775e-05 0.00604895 0
4.30279e-06 0.00222819 0
-9.04298e-05 -0.0015921 0
-0.000467056 -0.00389125 0
-0.00124636 -0.00536205 0
-0.00244432 -0.00601581 0
-0.00407187 -0.00591142 0
-0.00614684 -0.00514104 0
-0.00869884 -0.00381197 0
-0.0117684 -0.00203122 0
-0.0154024 0.000105091 0
-0.0196464 0.00251783 0
-0.0245339 0.00514796 0
-0.0269038 0.00795682 0
-0.0298634 0.0109005 0
-0.0365661 0.0134123 0
-0.0438798 0.0155268 0
-0.0517516 0.0172219 0
-0.0600521 0.0184191 0
-0.0685816 0.0189968 0
-0.0770754 0.0188127 0
-0.085211 0.0177307 0
-0.0926222 0.0156489 0
-0.0989198 0.0125269 0
-0.10372 0.00840717 0
-0.10682 0.00343076 0
-0.107821 -0.0021782 0
-0.106476 -0.00793003 0
-0.102919 -0.0135335 0
-0.0971982 -0.0186002 0
-0.0894994 -0.022729 0
-0.0801424 -0.0255696 0
-0.0695657 -0.0268736 0
-0.058296 -0.0265333 0
-0.0469042 -0.0246057 0
-0.0359524 -0.0213168 0
-0.0259408 -0.0170477 0
-0.0203306 -0.0123048 0
-0.0163251 -0.00765806 0
-0.0108106 -0.00306509 0
-0.0066032 0.00117902 0
-0.00352307 0.00494114 0
-0.00140967 0.00813415 0
-9.50446e-05 0.010685 0
0.000598501 0.0125274 0
0.000848656 0.0136004 0
0.000819563 0.0138496 0
0.000648752 0.0132319 0
0.000437361 0.0117253 0
0.000246815 0.00934347 0
0.000105209 0.00615029 0
2.42215e-05 0.0022677 0
-0.000115238 -0.00129694 0
-0.0005933 -0.00301371 0
-0.00158591 -0.00392929 0
-0.00312338 -0.00407111 0
-0.00522379 -0.0034963 0
-0.00790193 -0.00228553 0
-0.0111765 -0.00053259 0
-0.0150736 0.00166615 0
-0.0196256 0.00421948 0
-0.0248656 0.00704516 0
-0.0308152 0.0100699 0
-0.0337135 0.0132251 0
-0.0372472 0.0164152 0
-0.0451591 0.0192222 0
-0.0537302 0.02161 0
-0.0628985 0.0234994 0
-0.0725132 0.0247671 0
-0.0823436 0.025255 0
-0.092089 0.024791 0
-0.101391 0.0232169 0
-0.109849 0.0204193 0
-0.117051 0.0163588 0
-0.12259 0.0110933 0
-0.126136 0.00479584 0
-0.127369 -0.00225597 0
-0.126158 -0.00943397 0
-0.122526 -0.0164966 0
-0.116481 -0.0229856 0
-0.108178 -0.0284207 0
-0.0979165 -0.0323719 0
-0.0861346 -0.0345157 0
-0.0733814 -0.0346822 0
-0.060279 -0.0328878 0
-0.0474689 -0.0293483 0
-0.0355538 -0.0244667 0
-0.0288754 -0.0187985 0
-0.023978 -0.0129863 0
-0.0169909 -0.00741963 0
-0.0114583 -0.00229472 0
-0.00721099 0.00228905 0
-0.00410142 0.00623377 0
-0.00196404 0.00944104 0
-0.000614419 0.0118218 0
0.000136474 0.0133026 0
0.000465801 0.0138295 0
0.000525645 0.0133729 0
0.000435848 0.0119348 0
0.000284103 0.009556 0
0.000133107 0.00631986 0
3.21982e-05 0.00234871 0
-0.000149135 -0.00089874 0
-0.0007594 -0.00184462 0
-0.0020148 -0.00202288 0
-0.00394858 -0.00148115 0
-0.00657872 -0.000282889 0
-0.00991459 0.00149651 0
-0.0139644 0.00377525 0
-0.0187404 0.0064702 0
-0.0242608 0.00949951 0
-0.0305447 0.0127818 0
-0.0376015 0.016232 0
-0.0410477 0.0197526 0
-0.045175 0.0231995 0
-0.0543371 0.0263196 0
-0.0641998 0.0289936 0
-0.074687 0.0310755 0
-0.0856268 0.0323895 0
-0.0967622 0.0327367 0
-0.107765 0.0319142 0
-0.11825 0.029744 0
-0.1278 0.0261048 0
-0.135986 0.0209623 0
-0.142392 0.0143917 0
-0.146441 0.00659441 0
-0.148007 -0.00211126 0
-0.147179 -0.0108987 0
-0.143735 -0.0196423 0
-0.137624 -0.0278034 0
-0.128954 -0.0348161 0
-0.117988 -0.0401602 0
-0.105142 -0.0434212 0
-0.0909732 -0.0443456 0
-0.0761443 -0.0428849 0
-0.061376 -0.0392193 0
-0.0473821 -0.0337535 0
-0.0395422 -0.0270813 0
-0.0336262 -0.0199233 0
-0.0248771 -0.0132742 0
-0.0177205 -0.00714381 0
-0.0120253 -0.00158497 0
-0.00767303 0.00328289 0
-0.00450677 0.00732338 0
-0.00233556 0.0104161 0
-0.00095527 0.0124703 0
-0.000168985 0.0134298 0
0.000198695 0.0132751 0
0.000294843 0.0120247 0
0.000238254 0.0097361 0
0.000124349 0.00650256 0
3.18707e-05 0.00244491 0
-0.000189905 -0.000364085 0
-0.000956578 -0.000302779 0
-0.00251574 0.000467253 0
-0.00489522 0.00187845 0
-0.00810574 0.00385928 0
-0.0121469 0.00633809 0
-0.0170146 0.00924566 0
-0.0227074 0.012515 0
-0.0292295 0.0160778 0
-0.0365867 0.0198577 0
-0.0447766 0.0237608 0
-0.0487798 0.0276636 0
-0.0535113 0.0313788 0
-0.0639493 0.034826 0
-0.075123 0.0377909 0
-0.08694 0.0400533 0
-0.0992081 0.0413804 0
-0.11165 0.041531 0
-0.123919 0.0402726 0
-0.135617 0.0374103 0
-0.146319 0.0328193 0
-0.155592 0.0264725 0
-0.163016 0.0184614 0
-0.167627 0.00900743 0
-0.169638 -0.0015457 0
-0.169481 -0.0121246 0
-0.16652 -0.0227826 0
-0.160639 -0.032887 0
-0.151886 -0.0417836 0
-0.140466 -0.0488539 0
-0.126755 -0.0535765 0
-0.111294 -0.05559 0
-0.0947707 -0.05475 0
-0.077973 -0.0511681 0
-0.0617282 -0.0452196 0
-0.0526396 -0.0375157 0
-0.0455604 -0.028853 0
-0.0346985 -0.0210405 0
-0.0255602 -0.0137728 0
-0.0180888 -0.00705323 0
-0.0122116 -0.00104614 0
-0.00778366 0.00405367 0
-0.00460478 0.00808088 0
-0.0024494 0.0109194 0
-0.00109273 0.012505 0
-0.000327767 0.0128223 0
2.62888e-05 0.0119004 0
0.000122257 0.00980773 0
8.71471e-05 0.00664482 0
2.55959e-05 0.00253507 0
-0.000235749 0.000337096 0
-0.00117683 0.00168686 0
-0.00307058 0.00364568 0
-0.0059333 0.00612799 0
-0.00976244 0.00905627 0
-0.0145432 0.0123653 0
-0.0202568 0.0160021 0
-0.0268872 0.0199203 0
-0.0344248 0.0240701 0
-0.0428636 0.0283848 0
-0.052191 0.0327652 0
-0.0567496 0.0370661 0
-0.062085 0.0410634 0
-0.0738026 0.044848 0
-0.0862859 0.0481008 0
-0.0994243 0.050523 0
-0.113008 0.0518243 0
-0.126747 0.0517216 0
-0.140284 0.0499558 0
-0.153219 0.0463193 0
-0.165129 0.0406864 0
-0.175583 0.0330383 0
-0.184164 0.023479 0
-0.189384 0.0122409 0
-0.191946 -0.000319961 0
-0.192751 -0.0128742 0
-0.190578 -0.0256853 0
-0.185248 -0.0380157 0
-0.17674 -0.0491274 0
-0.165189 -0.0583 0
-0.150902 -0.0648927 0
-0.134375 -0.0684127 0
-0.116286 -0.068585 0
-0.0974679 -0.0654092 0
-0.078849 -0.0591882 0
-0.0684621 -0.0505137 0
-0.0600695 -0.0402416 0
-0.0466855 -0.0312243 0
-0.035152 -0.0226725 0
-0.0255312 -0.0145627 0
-0.0178103 -0.00714411 0
-0.0118582 -0.000699449 0
-0.00746103 0.00454247 0
-0.00436471 0.00842835 0
-0.00230852 0.0108779 0
-0.0010463 0.0118742 0
-0.000357813 0.0114524 0
-5.30739e-05 0.00968974 0
2.75586e-05 0.00669553 0
1.49714e-05 0.00260137 0
-0.000284865 0.00123092 0
-0.00141171 0.00418956 0
-0.00365901 0.00760394 0
-0.00702709 0.0113731 0
-0.0114956 0.0154182 0
-0.0170315 0.0196863 0
-0.0235987 0.0241474 0
-0.0311659 0.0287828 0
-0.0397101 0.0335674 0
-0.0492145 0.038449 0
-0.0596584 0.0433283 0
-0.0647586 0.0480427 0
-0.0706846 0.0523386 0
-0.0836573 0.0564667 0
-0.0974195 0.0599968 0
-0.111842 0.0625514 0
-0.126703 0.0637841 0
-0.141701 0.0633735 0
-0.156481 0.0610377 0
-0.170646 0.0565598 0
-0.183781 0.0498155 0
-0.195465 0.0407938 0
-0.205288 0.0296079 0
-0.211121 0.016495 0
-0.214313 0.00181754 0
-0.216334 -0.0128957 0
-0.21523 -0.0280875 0
-0.210777 -0.0429166 0
-0.202888 -0.0565752 0
-0.19161 -0.0682465 0
-0.177153 -0.0771659 0
-0.159929 -0.0826909 0
-0.140561 -0.0843809 0
-0.11988 -0.0820748 0
-0.0988805 -0.0759445 0
-0.0872294 -0.0665057 0
-0.0773924 -0.0546323 0
-0.0610413 -0.0444186 0
-0.0466655 -0.0344146 0
-0.0344911 -0.0246337 0
-0.0245776 -0.0154685 0
-0.016809 -0.00732678 0
-0.0109552 -0.000524666 0
-0.00672867 0.00473206 0
-0.003826 0.00833729 0
-0.00195511 0.0102662 0
-0.000850633 0.0105573 0
-0.000281023 0.00929658 0
-5.06205e-05 0.0066051 0
9.93321e-07 0.00262824 0
-0.000335202 0.00233786 0
-0.00165157 0.00725585 0
-0.00425742 0.0124122 0
-0.00813427 0.0176938 0
-0.0132409 0.0230268 0
-0.0195236 0.0283792 0
-0.0269272 0.0337529 0
-0.0354042 0.0391659 0
-0.0449189 0.0446256 0
-0.0554449 0.050101 0
-0.066955 0.0554971 0
-0.0725696 0.0606396 0
-0.0790568 0.0652526 0
-0.0932237 0.0697244 0
-0.108195 0.0735133 0
-0.123825 0.076166 0
-0.13988 0.0772843 0
-0.156057 0.0765129 0
-0.172001 0.073551 0
-0.187324 0.0681755 0
-0.201624 0.0602653 0
-0.214494 0.049818 0
-0.225541 0.0369559 0
-0.231939 0.0219208 0
-0.235783 0.00508561 0
-0.239181 -0.01196 0
-0.239364 -0.0297198 0
-0.236094 -0.0472765 0
-0.229221 -0.0637758 0
-0.218694 -0.0783228 0
-0.204603 -0.0900384 0
-0.187229 -0.0981237 0
-0.16708 -0.101946 0
-0.144915 -0.101132 0
-0.121731 -0.0956549 0
-0.108992 -0.0858755 0
-0.0976397 -0.0726106 0
-0.0778993 -0.0612658 0
-0.0602513 -0.0496225 0
-0.0451209 -0.0378457 0
-0.0326493 -0.0265408 0
-0.0227446 -0.0162831 0
-0.0151656 -0.0075049 0
-0.00959158 -0.000484833 0
-0.00567294 0.00463206 0
-0.00306632 0.00780581 0
-0.00145528 0.00907505 0
-0.000561006 0.00853534 0
-0.000146372 0.00632265 0
-1.59862e-05 0.00260094 0
-0.000384342 0.00367026 0
-0.00188508 0.0109152 0
-0.00483831 0.0181102 0
-0.00920549 0.0251334 0
-0.0149234 0.0319235 0
-0.0219164 0.0384793 0
-0.0301098 0.0448459 0
-0.0394396 0.0510883 0
-0.0498576 0.0572556 0
-0.0613285 0.0633449 0
-0.0738205 0.0692715 0
-0.0799073 0.0748545 0
-0.0869077 0.0798024 0
-0.102162 0.0846096 0
-0.118225 0.0886287 0
-0.134931 0.0913366 0
-0.152038 0.0922886 0
-0.169242 0.0911001 0
-0.186191 0.0874553 0
-0.202506 0.0811279 0
-0.217798 0.0720032 0
-0.231683 0.0600908 0
-0.243795 0.0455283 0
-0.250636 0.0285711 0
-0.255081 0.00961367 0
-0.259878 -0.00990345 0
-0.261462 -0.0303421 0
-0.259615 -0.0507688 0
-0.254138 -0.0703147 0
-0.244885 -0.0880405 0
-0.231805 -0.102979 0
-0.215003 -0.114188 0
-0.194808 -0.120831 0
-0.171822 -0.122285 0
-0.146946 -0.118252 0
-0.133495 -0.108848 0
-0.120679 -0.0947156 0
-0.097261 -0.0823669 0
-0.0760161 -0.0689089 0
-0.0575795 -0.0548045 0
-0.0421928 -0.0409351 0
-0.0298135 -0.0280879 0
-0.0202096 -0.0168488 0
-0.0130376 -0.00759767 0
-0.00790433 -0.000538076 0
-0.00441237 0.00426349 0
-0.00218863 0.00684096 0
-0.000900379 0.00729902 0
-0.000262053 0.00579104 0
-3.63616e-05 0.00250345 0
-0.000429487 0.00522945 0
-0.00209932 0.0151693 0
-0.00537041 0.0246974 0
-0.010185 0.033687 0
-0.0164586 0.0420969 0
-0.0240944 0.0499673 0
-0.0329983 0.0573981 0
-0.0430904 0.0645126 0
-0.0543101 0.0714115 0
-0.0666137 0.0781273 0
-0.0799645 0.084592 0
-0.086465 0.0906229 0
-0.0939087 0.0959187 0
-0.110091 0.10104 0
-0.127066 0.105247 0
-0.144651 0.107953 0
-0.162594 0.108675 0
-0.180587 0.107001 0
-0.19828 0.102604 0
-0.215303 0.0952606 0
-0.231281 0.0848668 0
-0.24586 0.0714547 0
-0.258722 0.0551893 0
-0.265817 0.0363556 0
-0.270725 0.0153852 0
-0.276765 -0.00667235 0
-0.279722 -0.0297873 0
-0.279429 -0.0530974 0
-0.275658 -0.0757555 0
-0.26818 -0.096826 0
-0.256799 -0.1153 0
-0.241419 -0.130127 0
-0.222129 -0.140285 0
-0.199286 -0.144884 0
-0.173578 -0.143306 0
-0.16002 -0.135324 0
-0.145985 -0.121268 0
-0.118903 -0.108128 0
-0.0939624 -0.0927747 0
-0.071995 -0.0760834 0
-0.053385 -0.0592491 0
-0.0381935 -0.043317 0
-0.0262404 -0.0290761 0
-0.0171856 -0.0170507 0
-0.0106046 -0.00753421 0
-0.00604813 -0.000639008 0
-0.0030827 0.00365445 0
-0.0013151 0.0054569 0
-0.000403625 0.00494008 0
-6.13134e-05 0.00231571 0
-0.000467553 0.00700294 0
-0.00228011 0.0199852 0
-0.00581981 0.0321242 0
-0.0110128 0.0432913 0
-0.0177561 0.0534725 0
-0.0259342 0.0627586 0
-0.0354353 0.0713155 0
-0.0461639 0.0793359 0
-0.0580473 0.0869811 0
-0.0710328 0.0943272 0
-0.0850782 0.101328 0
-0.0919165 0.107805 0
-0.0997097 0.113451 0
-0.116601 0.118847 0
-0.134244 0.12318 0
-0.152437 0.125809 0
-0.170916 0.126214 0
-0.189366 0.123963 0
-0.207436 0.118723 0
-0.224764 0.110277 0
-0.240995 0.0985461 0
-0.255815 0.083598 0
-0.268968 0.0656437 0
-0.276072 0.0450175 0
-0.281223 0.0221999 0
-0.288175 -0.00235584 0
-0.292318 -0.0280065 0
-0.293557 -0.0540524 0
-0.291666 -0.0797058 0
-0.286358 -0.104092 0
-0.277309 -0.126223 0
-0.264221 -0.145002 0
-0.246909 -0.159268 0
-0.225415 -0.16789 0
-0.200103 -0.169908 0
-0.187238 -0.164693 0
-0.172489 -0.152114 0
-0.142255 -0.138557 0
-0.11388 -0.12147 0
-0.0883762 -0.10213 0
-0.0663494 -0.0820472 0
-0.0480506 -0.0625719 0
-0.0334219 -0.0447646 0
-0.0221746 -0.0293584 0
-0.0138795 -0.0167864 0
-0.00804624 -0.00724007 0
-0.00418209 -0.000732774 0
-0.00182843 0.00284408 0
-0.000580122 0.00367891 0
-9.26931e-05 0.00201048 0
-0.000495367 0.00896217 0
-0.00241296 0.0252902 0
-0.0061519 0.0402849 0
-0.0116277 0.0538175 0
-0.0187243 0.065905 0
-0.0273115 0.0766963 0
-0.0372623 0.0864318 0
-0.0484668 0.0953824 0
-0.0608398 0.103779 0
-0.0743183 0.111748 0
-0.0888521 0.119272 0
-0.0959347 0.126179 0
-0.10396 0.132159 0
-0.121282 0.137768 0
-0.139284 0.142138 0
-0.157744 0.144588 0
-0.176383 0.144562 0
-0.194874 0.141613 0
-0.212866 0.135407 0
-0.230006 0.125747 0
-0.245968 0.112594 0
-0.260488 0.0960712 0
-0.273383 0.0764546 0
-0.280226 0.0541452 0
-0.285351 0.029677 0
-0.292741 0.00280745 0
-0.297739 -0.0250976 0
-0.300323 -0.0535623 0
-0.300302 -0.081895 0
-0.297368 -0.10934 0
-0.291109 -0.135 0
-0.281052 -0.15781 0
-0.266753 -0.176555 0
-0.247908 -0.189924 0
-0.224483 -0.196651 0
-0.213193 -0.195692 0