# vtk DataFile Version 2.0
Velocidades
ASCII

DATASET STRUCTURED_GRID
DIMENSIONS   50   50   20

POINTS   50000   double
0.00568455   0.00568455   0.025
0.0174023   0.00568455   0.025
0.0298294   0.00568455   0.025
0.0429888   0.00568455   0.025
0.0569012   0.00568455   0.025
0.0715849   0.00568455   0.025
0.0870549   0.00568455   0.025
0.103323   0.00568455   0.025
0.120395   0.00568455   0.025
0.138275   0.00568455   0.025
0.156961   0.00568455   0.025
0.176443   0.00568455   0.025
0.196707   0.00568455   0.025
0.217734   0.00568455   0.025
0.239496   0.00568455   0.025
0.261959   0.00568455   0.025
0.285082   0.00568455   0.025
0.308818   0.00568455   0.025
0.333113   0.00568455   0.025
0.357906   0.00568455   0.025
0.383132   0.00568455   0.025
0.408719   0.00568455   0.025
0.434592   0.00568455   0.025
0.460672   0.00568455   0.025
0.486877   0.00568455   0.025
0.513123   0.00568455   0.025
0.539328   0.00568455   0.025
0.565408   0.00568455   0.025
0.591281   0.00568455   0.025
0.616868   0.00568455   0.025
0.642094   0.00568455   0.025
0.666887   0.00568455   0.025
0.691182   0.00568455   0.025
0.714918   0.00568455   0.025
0.738041   0.00568455   0.025
0.760504   0.00568455   0.025
0.782266   0.00568455   0.025
0.803293   0.00568455   0.025
0.823557   0.00568455   0.025
0.843039   0.00568455   0.025
0.861725   0.00568455   0.025
0.879605   0.00568455   0.025
0.896677   0.00568455   0.025
0.912945   0.00568455   0.025
0.928415   0.00568455   0.025
0.943099   0.00568455   0.025
0.957011   0.00568455   0.025
0.970171   0.00568455   0.025
0.982598   0.00568455   0.025
0.994315   0.00568455   0.025
0.00568455   0.0174023   0.025
0.0174023   0.0174023   0.025
0.0298294   0.0174023   0.025
0.0429888   0.0174023   0.025
0.0569012   0.0174023   0.025
0.0715849   0.0174023   0.025
0.0870549   0.0174023   0.025
0.103323   0.0174023   0.025
0.120395   0.0174023   0.025
0.138275   0.0174023   0.025
0.156961   0.0174023   0.025
0.176443   0.0174023   0.025
0.196707   0.0174023   0.025
0.217734   0.0174023   0.025
0.239496   0.0174023   0.025
0.261959   0.0174023   0.025
0.285082   0.0174023   0.025
0.308818   0.0174023   0.025
0.333113   0.0174023   0.025
0.357906   0.0174023   0.025
0.383132   0.0174023   0.025
0.408719   0.0174023   0.025
0.434592   0.0174023   0.025
0.460672   0.0174023   0.025
0.486877   0.0174023   0.025
0.513123   0.0174023   0.025
0.539328   0.0174023   0.025
0.565408   0.0174023   0.025
0.591281   0.0174023   0.025
0.616868   0.0174023   0.025
0.642094   0.0174023   0.025
0.666887   0.0174023   0.025
0.691182   0.0174023   0.025
0.714918   0.0174023   0.025
0.738041   0.0174023   0.025
0.760504   0.0174023   0.025
0.782266   0.0174023   0.025
0.803293   0.0174023   0.025
0.823557   0.0174023   0.025
0.843039   0.0174023   0.025
0.861725   0.0174023   0.025
0.879605   0.0174023   0.025
0.896677   0.0174023   0.025
0.912945   0.0174023   0.025
0.928415   0.0174023   0.025
0.943099   0.0174023   0.025
0.957011   0.0174023   0.025
0.970171   0.0174023   0.025
0.982598   0.0174023   0.025
0.994315   0.0174023   0.025
0.00568455   0.0298294   0.025
0.0174023   0.0298294   0.025
0.0298294   0.0298294   0.025
0.0429888   0.0298294   0.025
0.0569012   0.0298294   0.025
0.0715849   0.0298294   0.025
0.0870549   0.0298294   0.025
0.103323   0.0298294   0.025
0.120395   0.0298294   0.025
0.138275   0.0298294   0.025
0.156961   0.0298294   0.025
0.176443   0.0298294   0.025
0.196707   0.0298294   0.025
0.217734   0.0298294   0.025
0.239496   0.0298294   0.025
0.261959   0.0298294   0.025
0.285082   0.0298294   0.025
0.308818   0.0298294   0.025
0.333113   0.0298294   0.025
0.357906   0.0298294   0.025
0.383132   0.0298294   0.025
0.408719   0.0298294   0.025
0.434592   0.0298294   0.025
0.460672   0.0298294   0.025
0.486877   0.0298294   0.025
0.513123   0.0298294   0.025
0.539328   0.0298294   0.025
0.565408   0.0298294   0.025
0.591281   0.0298294   0.025
0.616868   0.0298294   0.025
0.642094   0.0298294   0.025
0.666887   0.0298294   0.025
0.691182   0.0298294   0.025
0.714918   0.0298294   0.025
0.738041   0.0298294   0.025
0.760504   0.0298294   0.025
0.782266   0.0298294   0.025
0.803293   0.0298294   0.025
0.823557   0.0298294   0.025
0.843039   0.0298294   0.025
0.861725   0.0298294   0.025
0.879605   0.0298294   0.025
0.896677   0.0298294   0.025
0.912945   0.0298294   0.025
0.928415   0.0298294   0.025
0.943099   0.0298294   0.025
0.957011   0.0298294   0.025
0.970171   0.0298294   0.025
0.982598   0.0298294   0.025
0.994315   0.0298294   0.025
0.00568455   0.0429888   0.025
0.0174023   0.0429888   0.025
0.0298294   0.0429888   0.025
0.0429888   0.0429888   0.025
0.0569012   0.0429888   0.025
0.0715849   0.0429888   0.025
0.0870549   0.0429888   0.025
0.103323   0.0429888   0.025
0.120395   0.0429888   0.025
0.138275   0.0429888   0.025
0.156961   0.0429888   0.025
0.176443   0.0429888   0.025
0.196707   0.0429888   0.025
0.217734   0.0429888   0.025
0.239496   0.0429888   0.025
0.261959   0.0429888   0.025
0.285082   0.0429888   0.025
0.308818   0.0429888   0.025
0.333113   0.0429888   0.025
0.357906   0.0429888   0.025
0.383132   0.0429888   0.025
0.408719   0.0429888   0.025
0.434592   0.0429888   0.025
0.460672   0.0429888   0.025
0.486877   0.0429888   0.025
0.513123   0.0429888   0.025
0.539328   0.0429888   0.025
0.565408   0.0429888   0.025
0.591281   0.0429888   0.025
0.616868   0.0429888   0.025
0.642094   0.0429888   0.025
0.666887   0.0429888   0.025
0.691182   0.0429888   0.025
0.714918   0.0429888   0.025
0.738041   0.0429888   0.025
0.760504   0.0429888   0.025
0.782266   0.0429888   0.025
0.803293   0.0429888   0.025
0.823557   0.0429888   0.025
0.843039   0.0429888   0.025
0.861725   0.0429888   0.025
0.879605   0.0429888   0.025
0.896677   0.0429888   0.025
0.912945   0.0429888   0.025
0.928415   0.0429888   0.025
0.943099   0.0429888   0.025
0.957011   0.0429888   0.025
0.970171   0.0429888   0.025
0.982598   0.0429888   0.025
0.994315   0.0429888   0.025
0.00568455   0.0569012   0.025
0.0174023   0.0569012   0.025
0.0298294   0.0569012   0.025
0.0429888   0.0569012   0.025
0.0569012   0.0569012   0.025
0.0715849   0.0569012   0.025
0.0870549   0.0569012   0.025
0.103323   0.0569012   0.025
0.120395   0.0569012   0.025
0.138275   0.0569012   0.025
0.156961   0.0569012   0.025
0.176443   0.0569012   0.025
0.196707   0.0569012   0.025
0.217734   0.0569012   0.025
0.239496   0.0569012   0.025
0.261959   0.0569012   0.025
0.285082   0.0569012   0.025
0.308818   0.0569012   0.025
0.333113   0.0569012   0.025
0.357906   0.0569012   0.025
0.383132   0.0569012   0.025
0.408719   0.0569012   0.025
0.434592   0.0569012   0.025
0.460672   0.0569012   0.025
0.486877   0.0569012   0.025
0.513123   0.0569012   0.025
0.539328   0.0569012   0.025
0.565408   0.0569012   0.025
0.591281   0.0569012   0.025
0.616868   0.0569012   0.025
0.642094   0.0569012   0.025
0.666887   0.0569012   0.025
0.691182   0.0569012   0.025
0.714918   0.0569012   0.025
0.738041   0.0569012   0.025
0.760504   0.0569012   0.025
0.782266   0.0569012   0.025
0.803293   0.0569012   0.025
0.823557   0.0569012   0.025
0.843039   0.0569012   0.025
0.861725   0.0569012   0.025
0.879605   0.0569012   0.025
0.896677   0.0569012   0.025
0.912945   0.0569012   0.025
0.928415   0.0569012   0.025
0.943099   0.0569012   0.025
0.957011   0.0569012   0.025
0.970171   0.0569012   0.025
0.982598   0.0569012   0.025
0.994315   0.0569012   0.025
0.00568455   0.0715849   0.025
0.0174023   0.0715849   0.025
0.0298294   0.0715849   0.025
0.0429888   0.0715849   0.025
0.0569012   0.0715849   0.025
0.0715849   0.0715849   0.025
0.0870549   0.0715849   0.025
0.103323   0.0715849   0.025
0.120395   0.0715849   0.025
0.138275   0.0715849   0.025
0.156961   0.0715849   0.025
0.176443   0.0715849   0.025
0.196707   0.0715849   0.025
0.217734   0.0715849   0.025
0.239496   0.0715849   0.025
0.261959   0.0715849   0.025
0.285082   0.0715849   0.025
0.308818   0.0715849   0.025
0.333113   0.0715849   0.025
0.357906   0.0715849   0.025
0.383132   0.0715849   0.025
0.408719   0.0715849   0.025
0.434592   0.0715849   0.025
0.460672   0.0715849   0.025
0.486877   0.0715849   0.025
0.513123   0.0715849   0.025
0.539328   0.0715849   0.025
0.565408   0.0715849   0.025
0.591281   0.0715849   0.025
0.616868   0.0715849   0.025
0.642094   0.0715849   0.025
0.666887   0.0715849   0.025
0.691182   0.0715849   0.025
0.714918   0.0715849   0.025
0.738041   0.0715849   0.025
0.760504   0.0715849   0.025
0.782266   0.0715849   0.025
0.803293   0.0715849   0.025
0.823557   0.0715849   0.025
0.843039   0.0715849   0.025
0.861725   0.0715849   0.025
0.879605   0.0715849   0.025
0.896677   0.0715849   0.025
0.912945   0.0715849   0.025
0.928415   0.0715849   0.025
0.943099   0.0715849   0.025
0.957011   0.0715849   0.025
0.970171   0.0715849   0.025
0.982598   0.0715849   0.025
0.994315   0.0715849   0.025
0.00568455   0.0870549   0.025
0.0174023   0.0870549   0.025
0.0298294   0.0870549   0.025
0.0429888   0.0870549   0.025
0.0569012   0.0870549   0.025
0.0715849   0.0870549   0.025
0.0870549   0.0870549   0.025
0.103323   0.0870549   0.025
0.120395   0.0870549   0.025
0.138275   0.0870549   0.025
0.156961   0.0870549   0.025
0.176443   0.0870549   0.025
0.196707   0.0870549   0.025
0.217734   0.0870549   0.025
0.239496   0.0870549   0.025
0.261959   0.0870549   0.025
0.285082   0.0870549   0.025
0.308818   0.0870549   0.025
0.333113   0.0870549   0.025
0.357906   0.0870549   0.025
0.383132   0.0870549   0.025
0.408719   0.0870549   0.025
0.434592   0.0870549   0.025
0.460672   0.0870549   0.025
0.486877   0.0870549   0.025
0.513123   0.0870549   0.025
0.539328   0.0870549   0.025
0.565408   0.0870549   0.025
0.591281   0.0870549   0.025
0.616868   0.0870549   0.025
0.642094   0.0870549   0.025
0.666887   0.0870549   0.025
0.691182   0.0870549   0.025
0.714918   0.0870549   0.025
0.738041   0.0870549   0.025
0.760504   0.0870549   0.025
0.782266   0.0870549   0.025
[...]
POINT_DATA   50000
VECTORS Velocidades double

-1.82816e-05 -0.000442741 0
-5.09355e-05 -0.000839011 0
-7.69878e-05 -0.00102428 0
-0.00010335 -0.00108776 0
-0.000140933 -0.00107056 0
-0.000198399 -0.000996986 0
-0.000281012 -0.000883762 0
-0.000391215 -0.000742799 0
-0.000529573 -0.000581757 0
-0.000695942 -0.000403432 0
-0.000891203 -0.000203322 0
-0.000994306 3.98317e-05 0
-0.00111841 0.000407019 0
-0.00139418 0.000604035 0
-0.00170285 0.000710114 0
-0.00202637 0.000749701 0
-0.00235887 0.000731069 0
-0.00269562 0.000654973 0
-0.00303017 0.000518427 0
-0.00335299 0.000317628 0
-0.00365086 5.07068e-05 0
-0.00390714 -0.000279842 0
-0.0041032 -0.00066572 0
-0.00424174 -0.00109409 0
-0.00428239 -0.00156021 0
-0.00418536 -0.00198664 0
-0.00396402 -0.00234434 0
-0.00362384 -0.00259632 0
-0.0031801 -0.00271063 0
-0.00265853 -0.00266591 0
-0.00209299 -0.00245537 0
-0.00152131 -0.00208882 0
-0.000980109 -0.00159257 0
-0.00049955 -0.00100723 0
-9.85744e-05 -0.000385034 0
0.000124575 0.000209629 0
0.000263957 0.0006845 0
0.000423555 0.0012419 0
0.000516708 0.00178469 0
0.000543846 0.00227012 0
0.000516389 0.00267563 0
0.000447513 0.00298907 0
0.000350223 0.003204 0
0.00023706 0.00331668 0
0.000120399 0.00332373 0
1.31091e-05 0.00321962 0
-7.05406e-05 0.00299239 0
-0.000114468 0.00261455 0
-0.000104216 0.00201865 0
-4.20246e-05 0.00101982 0
-6.10745e-05 -0.000820788 0
-0.000164462 -0.00163583 0
-0.000237685 -0.00201952 0
-0.000309966 -0.00213876 0
-0.000419532 -0.00208367 0
-0.000592735 -0.00191003 0
-0.000844661 -0.00165591 0
-0.00118205 -0.00134783 0
-0.00160623 -0.00100226 0
-0.00211647 -0.000624459 0
-0.00271514 -0.000203076 0
-0.0029983 0.000309324 0
-0.00338425 0.00106223 0
-0.00427584 0.00147113 0
-0.00523404 0.0016883 0
-0.00623303 0.00176789 0
-0.00725737 0.00172817 0
-0.00829226 0.00157006 0
-0.00931694 0.00128578 0
-0.0103009 0.000865389 0
-0.0112025 0.000302802 0
-0.0119702 -0.000398777 0
-0.0125463 -0.00122341 0
-0.0129455 -0.00214472 0
-0.013041 -0.00315308 0
-0.0127146 -0.00409064 0
-0.0120205 -0.0048911 0
-0.0109749 -0.00547424 0
-0.00962485 -0.00576956 0
-0.00804657 -0.0057281 0
-0.00633873 -0.00533155 0
-0.00461142 -0.00459742 0
-0.00297201 -0.00357926 0
-0.00151062 -0.00236262 0
-0.000286435 -0.00105986 0
0.000373088 0.000187922 0
0.000803444 0.00118945 0
0.00132546 0.002365 0
0.00162051 0.00351384 0
0.00170798 0.00454295 0
0.00162392 0.00540408 0
0.0014087 0.00607165 0
0.00110247 0.00653183 0
0.000744208 0.00677591 0
0.000372405 0.00679523 0
2.67854e-05 0.00657537 0
-0.000248732 0.00608686 0
-0.000401973 0.00526587 0
-0.000373941 0.00397048 0
-0.000153517 0.00187675 0
-4.69603e-05 -0.000703419 0
-0.000163342 -0.00152021 0
-0.000313004 -0.00191038 0
-0.000498104 -0.00200302 0
-0.000750371 -0.00189448 0
-0.00110189 -0.00165306 0
-0.0015756 -0.00132713 0
-0.00218444 -0.000949911 0
-0.00293379 -0.000541008 0
-0.00382575 -0.000105146 0
-0.00486478 0.000373721 0
-0.00536285 0.000950424 0
-0.00601315 0.00174963 0
-0.00749514 0.00219576 0
-0.00908468 0.00242859 0
-0.0107485 0.0025112 0
-0.0124591 0.00246538 0
-0.0141878 0.00229046 0
-0.0158966 0.00197403 0
-0.0175319 0.0015 0
-0.0190234 0.000856193 0
-0.020285 4.11363e-05 0
-0.0212216 -0.000930994 0
-0.021863 -0.00203178 0
-0.0220072 -0.00324531 0
-0.0214669 -0.00441163 0
-0.0203364 -0.00544175 0
-0.0186422 -0.00623874 0
-0.0164584 -0.00671483 0
-0.0139035 -0.0068048 0
-0.0111304 -0.00647802 0
-0.00831025 -0.00574613 0
-0.00561086 -0.00466485 0
-0.00317522 -0.00333055 0
-0.00110131 -0.00187542 0
2.91658e-05 -0.000468917 0
0.000775136 0.000679444 0
0.00169164 0.00202127 0
0.00223963 0.00333958 0
0.00245565 0.0045247 0
0.00239637 0.00552037 0
0.00212584 0.00629688 0
0.00170941 0.0068372 0
0.00121197 0.00712885 0
0.000698085 0.0071577 0
0.000232908 0.00690144 0
-0.000117822 0.00631996 0
-0.000293505 0.00533989 0
-0.00026354 0.00383265 0
-9.82135e-05 0.00160345 0
-3.76816e-05 -0.000606061 0
-0.000165489 -0.00134587 0
-0.000390021 -0.0016882 0
-0.000709702 -0.00171891 0
-0.00114464 -0.00152652 0
-0.00172186 -0.0011861 0
-0.00246488 -0.000755755 0
-0.00338964 -0.000276459 0
-0.00450489 0.000228047 0
-0.00581533 0.000753014 0
-0.00732551 0.00131807 0
-0.00805917 0.00198013 0
-0.00898159 0.00284034 0
-0.0110524 0.00333775 0
-0.013269 0.00359828 0
-0.0155951 0.00368959 0
-0.0179927 0.00363599 0
-0.020418 0.0034341 0
-0.0228138 0.00306468 0
-0.0251026 0.00250279 0
-0.0271848 0.00172739 0
-0.028941 0.000730358 0
-0.0302405 -0.000476541 0
-0.0311217 -0.00186067 0
-0.0313215 -0.00338873 0
-0.0305979 -0.00490443 0
-0.0290792 -0.00628528 0
-0.0267993 -0.00740981 0
-0.0238532 -0.00816514 0
-0.0203933 -0.00846233 0
-0.0166173 -0.0082525 0
-0.012748 -0.007538 0
-0.00900664 -0.0063766 0
-0.00558569 -0.00487899 0
-0.00262447 -0.00320352 0
-0.000995003 -0.00155388 0
9.72507e-05 -0.000166241 0
0.00146646 0.00143332 0
0.00233492 0.00300698 0
0.00275813 0.00442663 0
0.0028116 0.00562495 0
0.00257987 0.00656518 0
0.00215023 0.00722448 0
0.00160976 0.00758418 0
0.00104356 0.00762302 0
0.000532389 0.00731119 0
0.00014715 0.00660423 0
-6.40314e-05 0.00543867 0
-0.000100338 0.00373737 0
-3.93004e-05 0.00144632 0
-3.92148e-05 -0.000512254 0
-0.000194289 -0.00110788 0
-0.000503329 -0.00133034 0
-0.000972294 -0.00124259 0
-0.00161598 -0.000922542 0
-0.00245448 -0.000446065 0
-0.00350724 0.000122783 0
-0.00478908 0.000736727 0
-0.0063093 0.00136813 0
-0.0080731 0.00201159 0
-0.0100832 0.00268807 0
-0.0110673 0.00345182 0
-0.0122717 0.00438269 0
-0.0149441 0.00494325 0
-0.017797 0.00524407 0
-0.0207941 0.00535179 0
-0.0238895 0.00529023 0
-0.027025 0.00505111 0
-0.030124 0.00460605 0
-0.0330845 0.00391857 0
-0.0357782 0.0029563 0
-0.0380532 0.00170272 0
-0.0397453 0.000167137 0
-0.0408819 -0.00161043 0
-0.0411585 -0.00357089 0
-0.0403034 -0.00556093 0
-0.0384608 -0.00741871 0
-0.0356672 -0.0089918 0
-0.0320307 -0.0101347 0
-0.027729 -0.0107273 0
-0.0229963 -0.010696 0
-0.0181 -0.0100294 0
-0.0133107 -0.0087857 0
-0.00887067 -0.00709128 0
-0.00496535 -0.00513411 0
-0.00280391 -0.00315589 0
-0.00132644 -0.00142683 0
0.000576005 0.000526106 0
0.00185084 0.0024419 0
0.00257318 0.00417445 0
0.00283558 0.00564381 0
0.00273962 0.0068037 0
0.00239015 0.0076232 0
0.00189102 0.00807625 0
0.00134079 0.0081355 0
0.000827242 0.00776862 0
0.000419164 0.00693777 0
0.000154934 0.00560501 0
3.09177e-05 0.0037492 0
2.81994e-07 0.00140002 0
-4.8534e-05 -0.000398978 0
-0.000247989 -0.000782445 0
-0.000659248 -0.000807857 0
-0.00129581 -0.000532438 0
-0.00217145 -2.82697e-05 0
-0.00330094 0.000630009 0
-0.00469816 0.0013758 0
-0.00637398 0.0021582 0
-0.00833535 0.002947 0
-0.0105856 0.00373606 0
-0.013124 0.00454589 0
-0.0143714 0.00542537 0
-0.0158696 0.0064352 0
-0.0191664 0.00706921 0
-0.022677 0.00742261 0
-0.0263666 0.00755584 0
-0.0301838 0.00748789 0
-0.0340577 0.00720236 0
-0.0378932 0.00665876 0
-0.0415646 0.00580635 0
-0.0449154 0.00459902 0
-0.0477626 0.00301038 0
-0.0499097 0.00104733 0
-0.0513363 -0.00123991 0
-0.0517279 -0.00376184 0
-0.05082 -0.006357 0
-0.0487388 -0.0088258 0
-0.0455162 -0.0109802 0
-0.0412646 -0.0126347 0
-0.0361778 -0.0136296 0
-0.0305187 -0.013859 0
-0.0245947 -0.0132917 0
-0.0187246 -0.0119823 0
-0.0132035 -0.0100718 0
-0.00827029 -0.00777879 0
-0.0055307 -0.0053862 0
-0.00361693 -0.00320628 0
-0.00107719 -0.00080001 0
0.000711132 0.0015471 0
0.00184136 0.0036731 0
0.0024201 0.00548524 0
0.00256191 0.00692613 0
0.0023846 0.00795523 0
0.00200382 0.00853924 0
0.0015268 0.00864736 0
0.00104542 0.00825047 0
0.000628677 0.00732456 0
0.00031653 0.00585954 0
0.00011873 0.003874 0
2.39156e-05 0.00143219 0
-6.28881e-05 -0.00024727 0
-0.000321 -0.000337581 0
-0.000853962 -8.22774e-05 0
-0.00167945 0.000458295 0
-0.00281087 0.00121258 0
-0.00425889 0.00210647 0
-0.0060317 0.00307282 0
-0.00813476 0.00405964 0
-0.0105706 0.00503612 0
-0.0133388 0.00599607 0
-0.0164346 0.00695889 0
-0.017958 0.00796731 0
-0.0197636 0.00906512 0
-0.0237158 0.00978316 0
-0.0279168 0.0102021 0
-0.0323342 0.0103718 0
-0.0369127 0.0103018 0
-0.0415713 0.00996326 0
-0.0461976 0.00930018 0
-0.050644 0.00824443 0
-0.054727 0.00673369 0
-0.0582334 0.00473007 0
-0.0609348 0.00223779 0
-0.0627063 -0.000681568 0
-0.0632696 -0.00390746 0
-0.0624203 -0.00724609 0
-0.0602125 -0.0104718 0
-0.0566641 -0.0133579 0
-0.0518805 -0.0156706 0
-0.0460621 -0.0172015 0
-0.0394938 -0.0178028 0
-0.0325193 -0.0174145 0
-0.0255071 -0.0160808 0
-0.0188106 -0.0139529 0
-0.0127315 -0.0112794 0
-0.00934848 -0.00838685 0
-0.00693095 -0.0056387 0
-0.00362153 -0.00267526 0
-0.0011863 0.000195729 0
0.000482747 0.00280073 0
0.00150151 0.00503506 0
0.001993 0.00682895 0
0.00208404 0.00813118 0
0.0018991 0.00890151 0
0.00155289 0.00910791 0
0.00114325 0.00872762 0
0.00074557 0.00775156 0
0.000410806 0.00619155 0
0.000168671 0.0040882 0
3.66723e-05 0.0015152 0
-8.06755e-05 -4.16582e-05 0
-0.000408814 0.000260578 0
-0.00108167 0.000890911 0
-0.00211785 0.00178233 0
-0.00352925 0.00286039 0
-0.00532236 0.0040504 0
-0.00749962 0.00528568 0
-0.0100604 0.00651537 0
-0.0130016 0.00771025 0
-0.0163183 0.00886554 0
-0.0200017 0.0100002 0
-0.0218139 0.0111513 0
-0.0239427 0.0123483 0
-0.0285888 0.0131635 0
-0.033524 0.0136634 0
-0.0387183 0.0138843 0
-0.0441149 0.013821 0
-0.0496243 0.0134278 0
-0.0551197 0.012629 0
-0.0604331 0.0113356 0
-0.0653555 0.00946618 0
-0.0696445 0.00696927 0
-0.0730386 0.003845 0
-0.0752302 0.000165037 0
-0.076042 -0.00392218 0
-0.0754007 -0.00815194 0
-0.0732111 -0.0122968 0
-0.0694638 -0.0160894 0
-0.0642453 -0.0192385 0
-0.0577527 -0.0214755 0
-0.0502852 -0.0225986 0
-0.0422202 -0.0225069 0
-0.0339778 -0.0212236 0
-0.0259776 -0.0189021 0
-0.0185957 -0.015817 0
-0.0144811 -0.0123406 0
-0.011472 -0.00889677 0
-0.00722448 -0.00526946 0
-0.00397464 -0.00177782 0
-0.00160589 0.00140021 0
2.14323e-07 0.00414909 0
0.000970254 0.0063848 0
0.0014374 0.00804346 0
0.00153443 0.00907711 0
0.00138533 0.00945281 0
0.00109817 0.00915398 0
0.000760844 0.00818357 0
0.000440669 0.00656771 0
0.000187924 0.00435771 0
4.18971e-05 0.00162792 0
-0.000101028 0.000231454 0
-0.000508382 0.00104567 0
-0.00133714 0.00215901 0
-0.00260448 0.0034965 0
-0.0043191 0.00497933 0
-0.00648256 0.00653169 0
-0.0090911 0.00808842 0
-0.0121376 0.0096019 0
-0.0156134 0.011047 0
-0.0195084 0.0124225 0
-0.0238106 0.0137485 0
-0.0259245 0.0150584 0
-0.0283944 0.0163694 0
-0.0337802 0.0172997 0
-0.0395032 0.0179016 0
-0.0455375 0.0181943 0
-0.0518259 0.0181535 0
-0.0582732 0.0177118 0
-0.0647403 0.0167691 0
-0.0710408 0.0152114 0
-0.0769421 0.0129348 0
-0.0821726 0.00987108 0
-0.0864361 0.00601335 0
-0.0891415 0.00143917 0
-0.0902988 -0.00368152 0
-0.0900566 -0.00896094 0
-0.0880671 -0.0142091 0
-0.0842782 -0.0191146 0
-0.0787446 -0.023318 0
-0.0716488 -0.0264778 0
-0.0632962 -0.0283229 0
-0.0540935 -0.0286957 0
-0.0445139 -0.0275827 0
-0.0350511 -0.0251267 0
-0.0261692 -0.0216206 0
-0.0212118 -0.0174818 0
-0.0174996 -0.0132028 0
-0.0120998 -0.00880449 0
-0.0078226 -0.00459058 0
-0.00455306 -0.000732549 0
-0.00217949 0.00264285 0
-0.000576744 0.00543307 0
0.000393487 0.00755734 0
0.000873968 0.0089571 0
0.00100177 0.00959632 0
0.000900307 0.0094621 0
0.000674916 0.00856532 0
0.000412214 0.00694076 0
0.000182203 0.0046453 0
4.15915e-05 0.0017534 0
-0.00012344 0.000584767 0
-0.000617592 0.00205061 0
-0.00161596 0.00377002 0
-0.00313262 0.00565949 0
-0.00517157 0.00763557 0
-0.00772837 0.00962189 0
-0.0107926 0.0115564 0
-0.0143505 0.0133971 0
-0.0183875 0.015126 0
-0.0228897 0.0167484 0
-0.0278426 0.018288 0
-0.0302713 0.0197767 0
-0.0331017 0.0212217 0
-0.039279 0.0222924 0
-0.0458526 0.0230255 0
-0.0528019 0.02342 0
-0.0600714 0.023428 0
-0.0675621 0.0229549 0
-0.0751251 0.0218714 0
-0.0825576 0.020034 0
-0.0896047 0.0173119 0
-0.0959656 0.013616 0
-0.101307 0.00892731 0
-0.104633 0.00332246 0
-0.106251 -0.00301588 0
-0.106641 -0.00951557 0
-0.105073 -0.0160775 0
-0.101435 -0.0223396 0
-0.0957383 -0.0278626 0
-0.0881385 -0.0322177 0
-0.0789361 -0.0350473 0
-0.0685596 -0.0361168 0
-0.0575333 -0.0353546 0
-0.0464306 -0.0328741 0
-0.0358176 -0.0289724 0
-0.0298874 -0.0241059 0
-0.0253353 -0.0188421 0
-0.0185119 -0.0135706 0
-0.0129366 -0.00852732 0
-0.00851332 -0.00386336 0
-0.00514931 0.0002787 0
-0.00272598 0.00376881 0
-0.00109958 0.00650145 0
-0.000113832 0.00840169 0
0.000386602 0.00942626 0
0.000545938 0.00956224 0
0.000491452 0.00882487 0
0.000331446 0.00725458 0
0.000155709 0.00491286 0
3.70092e-05 0.00187698 0
-0.000147541 0.00103044 0
-0.000734718 0.00330726 0
-0.00191404 0.00577103 0
-0.00369523 0.00832946 0
-0.00607636 0.010895 0
-0.00904608 0.0133921 0
-0.0125868 0.0157643 0
-0.0166782 0.0179786 0
-0.0213006 0.0200276 0
-0.0264368 0.0219267 0
-0.0320715 0.0237064 0
-0.0348271 0.0253999 0
-0.0380383 0.0270062 0
-0.045063 0.0282525 0
-0.0525559 0.0291571 0
-0.0605037 0.0296957 0
-0.0688542 0.0297918 0
-0.0775066 0.0293187 0
-0.086304 0.0281122 0
-0.0950291 0.025994 0
-0.103405 0.0228012 0
-0.111102 0.0184184 0
-0.117749 0.0128081 0
-0.121805 0.00603752 0
-0.12401 -0.00170782 0
-0.125302 -0.00961154 0
-0.124412 -0.0177265 0
-0.121156 -0.0256283 0
-0.115491 -0.0327863 0
-0.107532 -0.0386707 0
-0.0975606 -0.042819 0
-0.0860133 -0.0448958 0
-0.0734569 -0.0447447 0
-0.0605437 -0.0424218 0
-0.0479519 -0.0382055 0
-0.0409126 -0.0325766 0
-0.0353599 -0.0261771 0
-0.0267734 -0.0199456 0
-0.0195589 -0.0139592 0
-0.013666 -0.00833619 0
-0.00903678 -0.00324815 0
-0.00556399 0.00113104 0
-0.00309666 0.00465832 0
-0.00145986 0.00723363 0
-0.000473674 0.00880058 0
3.29944e-05 0.00934229 0
0.000214231 0.00887585 0
0.000203267 0.00744648 0
0.000111512 0.00512168 0
2.90005e-05 0.00198531 0
-0.000172965 0.00157996 0
-0.00085796 0.00484564 0
-0.00222686 0.00820654 0
-0.00428407 0.0115615 0
-0.00702083 0.01482 0
-0.0104182 0.0179098 0
-0.0144512 0.0207834 0
-0.0190932 0.0234209 0
-0.0243204 0.0258298 0
-0.0301136 0.02804 0
-0.0364585 0.0300924 0
-0.0395513 0.0320244 0
-0.0431627 0.0338285 0
-0.0510909 0.0352974 0
-0.0595729 0.0364277 0
-0.0686044 0.0371672 0
-0.078138 0.0374065 0
-0.0880725 0.0369807 0
-0.0982439 0.0356849 0
-0.108421 0.0333003 0
-0.118306 0.029626 0
-0.127541 0.0245142 0
-0.135716 0.0179019 0
-0.1406 0.00983823 0
-0.143519 0.000503242 0
-0.146002 -0.009002 0
-0.146068 -0.0189362 0
-0.14346 -0.028795 0
-0.13807 -0.0379486 0
-0.129962 -0.0457557 0
-0.119378 -0.051632 0
-0.106741 -0.0551166 0
-0.0926397 -0.0559358 0
-0.0777937 -0.0540521 0
-0.0629933 -0.0496894 0
-0.0547264 -0.0433239 0
-0.0479959 -0.0356605 0
-0.0372319 -0.0284134 0
-0.0279591 -0.0213613 0
-0.0202119 -0.0145881 0
-0.0139859 -0.00832256 0
-0.00918896 -0.0028083 0
-0.00566006 0.0017556 0
-0.0031994 0.00523197 0
-0.00159528 0.00754401 0
-0.000642753 0.00866686 0
-0.000155001 0.00861788 0
3.08771e-05 0.00744764 0
5.17052e-05 0.00523211 0
1.81535e-05 0.00206587 0
-0.000199251 0.00224369 0
-0.000985071 0.0066925 0
-0.00254875 0.011116 0
-0.00488863 0.0154043 0
-0.00798853 0.0194659 0
-0.0118216 0.0232352 0
-0.0163557 0.0266775 0
-0.0215584 0.0297914 0
-0.0274026 0.0326045 0
-0.0338689 0.0351659 0
-0.040946 0.0375312 0
-0.0443831 0.0397446 0
-0.048411 0.0417933 0
-0.0572924 0.0435453 0
-0.0668263 0.04497 0
-0.0770183 0.045983 0
-0.0878262 0.0464361 0
-0.0991485 0.0461205 0
-0.110814 0.0447844 0
-0.122578 0.0421618 0
-0.134121 0.0380081 0
-0.145057 0.0321374 0
-0.154942 0.0244557 0
-0.160723 0.0149876 0
-0.164467 0.00390399 0
-0.168416 -0.00741384 0
-0.169718 -0.0194506 0
-0.168041 -0.0316027 0
-0.16322 -0.0431405 0
-0.155252 -0.0533082 0
-0.144317 -0.0613884 0
-0.130794 -0.0667731 0
-0.115259 -0.0690368 0
-0.0984678 -0.0680035 0
-0.0813037 -0.0637921 0
-0.0717483 -0.0568261 0
-0.0636634 -0.0478413 0
-0.0502397 -0.0395739 0
-0.0384184 -0.0313204 0
-0.0283694 -0.0231572 0
-0.0201599 -0.0154183 0
-0.0137172 -0.00845343 0
-0.00886728 -0.00254222 0
-0.00537964 0.00212552 0
-0.00300339 0.00544353 0
-0.00149209 0.00737448 0
-0.000619025 0.00793484 0
-0.000185242 0.00718174 0
-2.281e-05 0.00520252 0
4.789e-06 0.00210645 0
-0.000225769 0.00302999 0
-0.00111302 0.0088691 0
-0.00287212 0.0145305 0
-0.00549495 0.0198963 0
-0.00895766 0.0248763 0
-0.0132256 0.0294153 0
-0.0182598 0.0334974 0
-0.024023 0.0371447 0
-0.0304862 0.0404113 0
-0.0376311 0.0433705 0
-0.0454509 0.0460971 0
-0.0492341 0.0486448 0
-0.0536884 0.0509961 0
-0.063558 0.0531046 0
-0.0741881 0.0549063 0
-0.0855943 0.056279 0
-0.0977389 0.0570295 0
-0.110518 0.0568988 0
-0.123753 0.0555813 0
-0.137181 0.0527579 0
-0.150463 0.0481348 0
-0.163186 0.0414842 0
-0.17488 0.0326795 0
-0.181572 0.0217204 0
-0.186211 0.00877207 0
-0.191843 -0.00457997 0
-0.194613 -0.0189995 0
-0.194146 -0.0337717 0
-0.190221 -0.0480785 0
-0.182762 -0.0610567 0
-0.171867 -0.0718567 0
-0.157827 -0.0797101 0
-0.141158 -0.0840103 0
-0.122596 -0.0843941 0
-0.10307 -0.0808111 0
-0.092281 -0.0735615 0
-0.0826989 -0.0633492 0
-0.0661013 -0.0541262 0
-0.0512057 -0.0445204 0
-0.0383694 -0.0346762 0
-0.0277476 -0.0250992 0
-0.0192937 -0.0162908 0
-0.0128224 -0.00864208 0
-0.00806989 -0.00241553 0
-0.00474025 0.00224098 0
-0.00253803 0.00527162 0
-0.00118857 0.00669016 0
-0.000449011 0.00656139 0
-0.00011293 0.00498686 0
-1.11529e-05 0.0020943 0
-0.000251662 0.00394401 0
-0.00123776 0.0113882 0
-0.00318694 0.0184683 0
-0.00608463 0.0250597 0
-0.00989959 0.0310764 0
-0.0145899 0.0364785 0
-0.0201105 0.041274 0
-0.0264204 0.0455156 0
-0.0334897 0.0492897 0
-0.0413027 0.0527001 0
-0.0498585 0.0558444 0
-0.053982 0.0587885 0
-0.0588622 0.0615107 0
-0.0697281 0.0640593 0
-0.0814664 0.0663306 0
-0.0941 0.0681573 0
-0.107593 0.0692952 0
-0.121836 0.0694274 0
-0.136636 0.0681879 0
-0.151714 0.0651988 0
-0.166707 0.0601143 0
-0.181179 0.0526649 0
-0.194648 0.0426954 0
-0.202195 0.0301896 0
-0.207727 0.01532 0
-0.215135 -0.000289241 0
-0.219511 -0.0173369 0
-0.220476 -0.0350063 0
-0.217774 -0.0524144 0
-0.211256 -0.0686133 0
-0.200914 -0.0826378 0
-0.186917 -0.0935643 0
-0.169653 -0.100589 0
-0.149762 -0.103118 0
-0.128139 -0.100863 0
-0.116355 -0.0939122 0
-0.105222 -0.0828351 0
-0.0849932 -0.072801 0
-0.0665416 -0.0616903 0
-0.0504464 -0.0498422 0
-0.0369676 -0.038008 0
-0.0261025 -0.0268907 0
-0.017668 -0.0170304 0
-0.0113725 -0.00879025 0
-0.00687396 -0.00237779 0
-0.0038221 0.00212267 0
-0.00188628 0.00471829 0
-0.00077084 0.00548152 0
-0.000222177 0.00453044 0
-3.02882e-05 0.00201454 0
-0.00027581 0.00498624 0
-0.00135403 0.0142506 0
-0.00348032 0.0229301 0
-0.00663425 0.0308948 0
-0.010778 0.0380668 0
-0.0158635 0.0444259 0
-0.0218405 0.0500106 0
-0.0286656 0.0549102 0
-0.0363088 0.0592502 0
-0.0447581 0.0631701 0
-0.0540186 0.0667949 0
-0.058466 0.0702046 0
-0.0637565 0.0733729 0
-0.0755875 0.0764504 0
-0.088397 0.0792858 0
-0.102211 0.0816601 0
-0.11699 0.0832698 0
-0.132613 0.083733 0
-0.148869 0.0826169 0
-0.165455 0.079481 0
-0.181984 0.0739274 0
-0.198007 0.065651 0
-0.213037 0.0544805 0
-0.221294 0.040403 0
-0.227624 0.0236215 0
-0.236711 0.00555098 0
-0.242675 -0.0142955 0
-0.245186 -0.035041 0
-0.243975 -0.0557712 0
-0.238836 -0.0754919 0
-0.229649 -0.0931606 0
-0.216424 -0.107727 0
-0.19936 -0.118199 0
-0.178908 -0.123731 0
-0.155816 -0.12374 0
-0.14352 -0.118005 0
-0.130951 -0.106827 0
-0.106853 -0.0962143 0
-0.0845382 -0.0834996 0
-0.0648078 -0.0693565 0
-0.0480556 -0.0548384 0
-0.0343647 -0.0408996 0
-0.0235885 -0.0282782 0
-0.0154284 -0.0174784 0
-0.00950381 -0.00879681 0
-0.00540861 -0.00236378 0
-0.00274955 0.0018125 0
-0.00116926 0.00380963 0
-0.000357377 0.00376328 0
-5.39378e-05 0.00184759 0
-0.000296837 0.00615088 0
-0.0014554 0.0174406 0
-0.00373657 0.0278926 0
-0.00711539 0.0373732 0
-0.0115491 0.0458156 0
-0.0169847 0.0532244 0
-0.0233686 0.0596739 0
-0.0306556 0.0652967 0
-0.0388166 0.0702633 0
-0.0478428 0.074754 0
-0.0577453 0.0789246 0
-0.0624871 0.0828711 0
-0.0681523 0.0865624 0
-0.0808646 0.0902538 0
-0.0946447 0.0937394 0
-0.109515 0.0967405 0
-0.125424 0.0988863 0
-0.142232 0.0997221 0
-0.159702 0.0987432 0
-0.177504 0.0954452 0
-0.195228 0.0893832 0
-0.212416 0.0802291 0
-0.228594 0.0678167 0
-0.237327 0.0521649 0
-0.244246 0.0335372 0
-0.254681 0.0128539 0