# vtk DataFile Version 2.0
Presion
ASCII

DATASET STRUCTURED_GRID
DIMENSIONS   50   50   20

POINTS   50000   double
0.00568455   0.00568455   0.025
0.0174023   0.00568455   0.025
0.0298294   0.00568455   0.025
0.0429888   0.00568455   0.025
0.0569012   0.00568455   0.025
0.0715849   0.00568455   0.025
0.0870549   0.00568455   0.025
0.103323   0.00568455   0.025
0.120395   0.00568455   0.025
0.138275   0.00568455   0.025
0.156961   0.00568455   0.025
0.176443   0.00568455   0.025
0.196707   0.00568455   0.025
0.217734   0.00568455   0.025
0.239496   0.00568455   0.025
0.261959   0.00568455   0.025
0.285082   0.00568455   0.025
0.308818   0.00568455   0.025
0.333113   0.00568455   0.025
0.357906   0.00568455   0.025
0.383132   0.00568455   0.025
0.408719   0.00568455   0.025
0.434592   0.00568455   0.025
0.460672   0.00568455   0.025
0.486877   0.00568455   0.025
0.513123   0.00568455   0.025
0.539328   0.00568455   0.025
0.565408   0.00568455   0.025
0.591281   0.00568455   0.025
0.616868   0.00568455   0.025
0.642094   0.00568455   0.025
0.666887   0.00568455   0.025
0.691182   0.00568455   0.025
0.714918   0.00568455   0.025
0.738041   0.00568455   0.025
0.760504   0.00568455   0.025
0.782266   0.00568455   0.025
0.803293   0.00568455   0.025
0.823557   0.00568455   0.025
0.843039   0.00568455   0.025
0.861725   0.00568455   0.025
0.879605   0.00568455   0.025
0.896677   0.00568455   0.025
0.912945   0.00568455   0.025
0.928415   0.00568455   0.025
0.943099   0.00568455   0.025
0.957011   0.00568455   0.025
0.970171   0.00568455   0.025
0.982598   0.00568455   0.025
0.994315   0.00568455   0.025
0.00568455   0.0174023   0.025
0.0174023   0.0174023   0.025
0.0298294   0.0174023   0.025
0.0429888   0.0174023   0.025
0.0569012   0.0174023   0.025
0.0715849   0.0174023   0.025
0.0870549   0.0174023   0.025
0.103323   0.0174023   0.025
0.120395   0.0174023   0.025
0.138275   0.0174023   0.025
0.156961   0.0174023   0.025
0.176443   0.0174023   0.025
0.196707   0.0174023   0.025
0.217734   0.0174023   0.025
0.239496   0.0174023   0.025
0.261959   0.0174023   0.025
0.285082   0.0174023   0.025
0.308818   0.0174023   0.025
0.333113   0.0174023   0.025
0.357906   0.0174023   0.025
0.383132   0.0174023   0.025
0.408719   0.0174023   0.025
0.434592   0.0174023   0.025
0.460672   0.0174023   0.025
0.486877   0.0174023   0.025
0.513123   0.0174023   0.025
0.539328   0.0174023   0.025
0.565408   0.0174023   0.025
0.591281   0.0174023   0.025
0.616868   0.0174023   0.025
0.642094   0.0174023   0.025
0.666887   0.0174023   0.025
0.691182   0.0174023   0.025
0.714918   0.0174023   0.025
0.738041   0.0174023   0.025
0.760504   0.0174023   0.025
0.782266   0.0174023   0.025
0.803293   0.0174023   0.025
0.823557   0.0174023   0.025
0.843039   0.0174023   0.025
0.861725   0.0174023   0.025
0.879605   0.0174023   0.025
0.896677   0.0174023   0.025
0.912945   0.0174023   0.025
0.928415   0.0174023   0.025
0.943099   0.0174023   0.025
0.957011   0.0174023   0.025
0.970171   0.0174023   0.025
0.982598   0.0174023   0.025
0.994315   0.0174023   0.025
0.00568455   0.0298294   0.025
0.0174023   0.0298294   0.025
0.0298294   0.0298294   0.025
0.0429888   0.0298294   0.025
0.0569012   0.0298294   0.025
0.0715849   0.0298294   0.025
0.0870549   0.0298294   0.025
0.103323   0.0298294   0.025
0.120395   0.0298294   0.025
0.138275   0.0298294   0.025
0.156961   0.0298294   0.025
0.176443   0.0298294   0.025
0.196707   0.0298294   0.025
0.217734   0.0298294   0.025
0.239496   0.0298294   0.025
0.261959   0.0298294   0.025
0.285082   0.0298294   0.025
0.308818   0.0298294   0.025
0.333113   0.0298294   0.025
0.357906   0.0298294   0.025
0.383132   0.0298294   0.025
0.408719   0.0298294   0.025
0.434592   0.0298294   0.025
0.460672   0.0298294   0.025
0.486877   0.0298294   0.025
0.513123   0.0298294   0.025
0.539328   0.0298294   0.025
0.565408   0.0298294   0.025
0.591281   0.0298294   0.025
0.616868   0.0298294   0.025
0.642094   0.0298294   0.025
0.666887   0.0298294   0.025
0.691182   0.0298294   0.025
0.714918   0.0298294   0.025
0.738041   0.0298294   0.025
0.760504   0.0298294   0.025
0.782266   0.0298294   0.025
0.803293   0.0298294   0.025
0.823557   0.0298294   0.025
0.843039   0.0298294   0.025
0.861725   0.0298294   0.025
0.879605   0.0298294   0.025
0.896677   0.0298294   0.025
0.912945   0.0298294   0.025
0.928415   0.0298294   0.025
0.943099   0.0298294   0.025
0.957011   0.0298294   0.025
0.970171   0.0298294   0.025
0.982598   0.0298294   0.025
0.994315   0.0298294   0.025
0.00568455   0.0429888   0.025
0.0174023   0.0429888   0.025
0.0298294   0.0429888   0.025
0.0429888   0.0429888   0.025
0.0569012   0.0429888   0.025
0.0715849   0.0429888   0.025
0.0870549   0.0429888   0.025
0.103323   0.0429888   0.025
0.120395   0.0429888   0.025
0.138275   0.0429888   0.025
0.156961   0.0429888   0.025
0.176443   0.0429888   0.025
0.196707   0.0429888   0.025
0.217734   0.0429888   0.025
0.239496   0.0429888   0.025
0.261959   0.0429888   0.025
0.285082   0.0429888   0.025
0.308818   0.0429888   0.025
0.333113   0.0429888   0.025
0.357906   0.0429888   0.025
0.383132   0.0429888   0.025
0.408719   0.0429888   0.025
0.434592   0.0429888   0.025
0.460672   0.0429888   0.025
0.486877   0.0429888   0.025
0.513123   0.0429888   0.025
0.539328   0.0429888   0.025
0.565408   0.0429888   0.025
0.591281   0.0429888   0.025
0.616868   0.0429888   0.025
0.642094   0.0429888   0.025
0.666887   0.0429888   0.025
0.691182   0.0429888   0.025
0.714918   0.0429888   0.025
0.738041   0.0429888   0.025
0.760504   0.0429888   0.025
0.782266   0.0429888   0.025
0.803293   0.0429888   0.025
0.823557   0.0429888   0.025
0.843039   0.0429888   0.025
0.861725   0.0429888   0.025
0.879605   0.0429888   0.025
0.896677   0.0429888   0.025
0.912945   0.0429888   0.025
0.928415   0.0429888   0.025
0.943099   0.0429888   0.025
0.957011   0.0429888   0.025
0.970171   0.0429888   0.025
0.982598   0.0429888   0.025
0.994315   0.0429888   0.025
0.00568455   0.0569012   0.025
0.0174023   0.0569012   0.025
0.0298294   0.0569012   0.025
0.0429888   0.0569012   0.025
0.0569012   0.0569012   0.025
0.0715849   0.0569012   0.025
0.0870549   0.0569012   0.025
0.103323   0.0569012   0.025
0.120395   0.0569012   0.025
0.138275   0.0569012   0.025
0.156961   0.0569012   0.025
0.176443   0.0569012   0.025
0.196707   0.0569012   0.025
0.217734   0.0569012   0.025
0.239496   0.0569012   0.025
0.261959   0.0569012   0.025
0.285082   0.0569012   0.025
0.308818   0.0569012   0.025
0.333113   0.0569012   0.025
0.357906   0.0569012   0.025
0.383132   0.0569012   0.025
0.408719   0.0569012   0.025
0.434592   0.0569012   0.025
0.460672   0.0569012   0.025
0.486877   0.0569012   0.025
0.513123   0.0569012   0.025
0.539328   0.0569012   0.025
0.565408   0.0569012   0.025
0.591281   0.0569012   0.025
0.616868   0.0569012   0.025
0.642094   0.0569012   0.025
0.666887   0.0569012   0.025
0.691182   0.0569012   0.025
0.714918   0.0569012   0.025
0.738041   0.0569012   0.025
0.760504   0.0569012   0.025
0.782266   0.0569012   0.025
0.803293   0.0569012   0.025
0.823557   0.0569012   0.025
0.843039   0.0569012   0.025
0.861725   0.0569012   0.025
0.879605   0.0569012   0.025
0.896677   0.0569012   0.025
0.912945   0.0569012   0.025
0.928415   0.0569012   0.025
0.943099   0.0569012   0.025
0.957011   0.0569012   0.025
0.970171   0.0569012   0.025
0.982598   0.0569012   0.025
0.994315   0.0569012   0.025
0.00568455   0.0715849   0.025
0.0174023   0.0715849   0.025
0.0298294   0.0715849   0.025
0.0429888   0.0715849   0.025
0.0569012   0.0715849   0.025
0.0715849   0.0715849   0.025
0.0870549   0.0715849   0.025
0.103323   0.0715849   0.025
0.120395   0.0715849   0.025
0.138275   0.0715849   0.025
0.156961   0.0715849   0.025
0.176443   0.0715849   0.025
0.196707   0.0715849   0.025
0.217734   0.0715849   0.025
0.239496   0.0715849   0.025
0.261959   0.0715849   0.025
0.285082   0.0715849   0.025
0.308818   0.0715849   0.025
0.333113   0.0715849   0.025
0.357906   0.0715849   0.025
0.383132   0.0715849   0.025
0.408719   0.0715849   0.025
0.434592   0.0715849   0.025
0.460672   0.0715849   0.025
0.486877   0.0715849   0.025
0.513123   0.0715849   0.025
0.539328   0.0715849   0.025
0.565408   0.0715849   0.025
0.591281   0.0715849   0.025
0.616868   0.0715849   0.025
0.642094   0.0715849   0.025
0.666887   0.0715849   0.025
0.691182   0.0715849   0.025
0.714918   0.0715849   0.025
0.738041   0.0715849   0.025
0.760504   0.0715849   0.025
0.782266   0.0715849   0.025
0.803293   0.0715849   0.025
0.823557   0.0715849   0.025
0.843039   0.0715849   0.025
0.861725   0.0715849   0.025
0.879605   0.0715849   0.025
0.896677   0.0715849   0.025
0.912945   0.0715849   0.025
0.928415   0.0715849   0.025
0.943099   0.0715849   0.025
0.957011   0.0715849   0.025
0.970171   0.0715849   0.025
0.982598   0.0715849   0.025
0.994315   0.0715849   0.025
0.00568455   0.0870549   0.025
0.0174023   0.0870549   0.025
0.0298294   0.0870549   0.025
0.0429888   0.0870549   0.025
0.0569012   0.0870549   0.025
0.0715849   0.0870549   0.025
0.0870549   0.0870549   0.025
0.103323   0.0870549   0.025
0.120395   0.0870549   0.025
0.138275   0.0870549   0.025
0.156961   0.0870549   0.025
0.176443   0.0870549   0.025
0.196707   0.0870549   0.025
0.217734   0.0870549   0.025
0.239496   0.0870549   0.025
0.261959   0.0870549   0.025
0.285082   0.0870549   0.025
0.308818   0.0870549   0.025
0.333113   0.0870549   0.025
0.357906   0.0870549   0.025
0.383132   0.0870549   0.025
0.408719   0.0870549   0.025
0.434592   0.0870549   0.025
0.460672   0.0870549   0.025
0.486877   0.0870549   0.025
0.513123   0.0870549   0.025
0.539328   0.0870549   0.025
0.565408   0.0870549   0.025
0.591281   0.0870549   0.025
0.616868   0.0870549   0.025
0.642094   0.0870549   0.025
0.666887   0.0870549   0.025
0.691182   0.0870549   0.025
0.714918   0.0870549   0.025
0.738041   0.0870549   0.025
0.760504   0.0870549   0.025
0.782266   0.0870549   0.025
[...]
POINT_DATA   50000
SCALARS Presion double
LOOKUP_TABLE   Presion

0 0 0 0 0 0 0 0 0 0 0 0 0 0 0 0 0 0 0 0 0 0 0 0 0 0 0 0 0 0 0 0 0 0 0 0 0 0 0 0 0 0 0 0 0 0 0 0 0 0 0.00166176 0.00180914 0.00198706 0.00211575 0.00218071 0.00218309 0.00212749 0.00201903 0.00186257 0.00166239 0.00142187 0.00114274 0.000683181 0.000404059 0.000154941 -6.21072e-05 -0.00024197 -0.000376248 -0.000455139 -0.000469838 -0.000414973 -0.000290628 -0.000103308 0.00013437 0.000385212 0.000635004 0.000850028 0.00100333 0.00107341 0.00104643 0.000917714 0.000692472 0.000385447 1.97636e-05 -0.000374955 -0.000763942 -0.00101264 -0.00137473 -0.00171177 -0.00200624 -0.00224769 -0.00243042 -0.00255151 -0.00260954 -0.00260374 -0.00253361 -0.00239921 -0.00220406 -0.00196859 -0.00178543 0.00218134 0.00217021 0.0022202 0.00227109 0.00229315 0.0022741 0.00221025 0.00210186 0.00195115 0.00176135 0.00153681 0.00128153 0.000760979 0.000508496 0.000273299 6.25554e-05 -0.000116338 -0.000254326 -0.000341662 -0.000369792 -0.000333476 -0.000232634 -7.33415e-05 0.000130695 0.000353647 0.000572122 0.000758102 0.000886069 0.000935726 0.000894055 0.000756844 0.000529284 0.000225483 -0.00013306 -0.000520101 -0.000905502 -0.00108235 -0.0014415 -0.00176766 -0.0020494 -0.00227949 -0.00245421 -0.00257225 -0.0026341 -0.00264186 -0.00259981 -0.00251638 -0.00240895 -0.00231367 -0.0023001 0.00253348 0.00248355 0.00246898 0.0024636 0.00244592 0.0024023 0.00232555 0.00221292 0.00206445 0.0018823 0.00167093 0.0014336 0.000843403 0.000613376 0.000390573 0.000184206 3.17005e-06 -0.000142821 -0.00024379 -0.000290991 -0.000278745 -0.000206186 -7.8479e-05 8.94834e-05 0.000289198 0.00048234 0.000646794 0.000757958 0.000795628 0.000746349 0.000605226 0.000376688 7.39659e-05 -0.000282745 -0.000669443 -0.00105748 -0.00115849 -0.0015198 -0.00184064 -0.00211433 -0.00233706 -0.00250746 -0.00262617 -0.00269559 -0.00272011 -0.00270683 -0.00266705 -0.00261854 -0.00258721 -0.00260406 0.00282656 0.00276688 0.00272041 0.00267839 0.00262912 0.00256243 0.00247125 0.00235167 0.00220247 0.0020249 0.00182296 0.00159799 0.000932874 0.000719122 0.00050448 0.000298324 0.000110148 -4.98727e-05 -0.000171335 -0.000244833 -0.000263599 -0.000225214 -0.000133161 -2.79537e-06 0.000175612 0.000349529 0.000500238 0.000603728 0.000638914 0.000590684 0.000452281 0.000226467 -7.48555e-05 -0.000432649 -0.0008242 -0.00122025 -0.00124543 -0.00161293 -0.00193292 -0.00220275 -0.00242192 -0.00259147 -0.00271383 -0.0027929 -0.00283426 -0.00284554 -0.00283696 -0.00282139 -0.00281306 -0.00282309 0.00311004 0.00304204 0.00297572 0.0029087 0.00283524 0.00274873 0.00264349 0.0025156 0.00236327 0.00218695 0.00198997 0.00177118 0.00102877 0.000823499 0.000610155 0.000397374 0.000194541 1.20468e-05 -0.000139113 -0.000248383 -0.000307168 -0.000310601 -0.000259433 -0.000168336 -1.11256e-05 0.000148976 0.000293673 0.000399312 0.00044304 0.000406881 0.000280916 6.50917e-05 -0.000230794 -0.000589049 -0.000987656 -0.00139527 -0.00134811 -0.0017245 -0.0020467 -0.00231601 -0.00253499 -0.00270675 -0.00283511 -0.00292479 -0.00298151 -0.00301201 -0.003024 -0.00302552 -0.00302357 -0.00302178 0.00340364 0.00332194 0.00323796 0.00315107 0.00305819 0.0029549 0.00283669 0.00269988 0.00254227 0.00236362 0.00216635 0.00194649 0.00112692 0.00092057 0.000698929 0.000469584 0.000241383 2.47689e-05 -0.000168473 -0.000326106 -0.000436897 -0.000492509 -0.000489728 -0.000441182 -0.000305058 -0.00015524 -9.34869e-06 0.000109024 0.000174403 0.000164691 6.53081e-05 -0.000128131 -0.000409177 -0.000762164 -0.00116568 -0.00158532 -0.00147293 -0.00185854 -0.00218406 -0.00245501 -0.00267656 -0.00285327 -0.00298969 -0.00309066 -0.00316132 -0.00320703 -0.00323313 -0.0032444 -0.00324438 -0.00323453 0.00371148 0.00360991 0.00350661 0.00340115 0.00329122 0.00317319 0.00304294 0.00289666 0.00273154 0.00254644 0.00234261 0.0021131 0.00121853 0.000999405 0.000756871 0.000497441 0.000229256 -3.72099e-05 -0.000289103 -0.000511907 -0.000690881 -0.00081312 -0.0008701 -0.000870953 -0.000753261 -0.000613602 -0.000460581 -0.000318219 -0.000215455 -0.000179864 -0.000232479 -0.00038402 -0.000633255 -0.000967893 -0.00136769 -0.00179484 -0.00162882 -0.00201997 -0.00234706 -0.0026202 -0.00284641 -0.0030307 -0.00317744 -0.0032909 -0.00337526 -0.0034345 -0.0034722 -0.00349135 -0.00349408 -0.00348157 0.00402777 0.00390089 0.00377553 0.00365098 0.00352474 0.00339293 0.00325093 0.00309415 0.00291871 0.00272214 0.00250415 0.00225467 0.00128871 0.00104255 0.000763149 0.000456004 0.000128554 -0.000208549 -0.000540997 -0.000851333 -0.00112039 -0.00132955 -0.00146363 -0.00152673 -0.00141956 -0.00129518 -0.00113149 -0.00095363 -0.000794818 -0.000689539 -0.000667396 -0.000748022 -0.000938049 -0.0012308 -0.00160863 -0.00203084 -0.00182904 -0.00221557 -0.00253831 -0.00281206 -0.0030442 -0.00323873 -0.00339868 -0.00352696 -0.00362648 -0.00369995 -0.00374978 -0.00377804 -0.00378646 -0.00377644 0.00433858 0.00418199 0.0040319 0.00388714 0.00374445 0.0035989 0.0034446 0.00327544 0.00308583 0.00287144 0.00262997 0.00234813 0.00131481 0.00102439 0.000688331 0.000311162 -0.000100268 -0.000534856 -0.000976349 -0.00140362 -0.00179212 -0.00211641 -0.00235331 -0.0025002 -0.0023886 -0.00229184 -0.00211791 -0.00189379 -0.00165759 -0.00145211 -0.00131787 -0.00128654 -0.00137616 -0.00158899 -0.00191257 -0.00230515 -0.00209413 -0.0024559 -0.0027624 -0.00303209 -0.00327031 -0.00347778 -0.00365459 -0.00380138 -0.00391929 -0.00400979 -0.00407442 -0.00411481 -0.0041326 -0.0041296 0.00462205 0.00443249 0.00425559 0.00408952 0.0039298 0.00376985 0.00360175 0.00341718 0.00320817 0.00296792 0.00269152 0.00236244 0.00126492 0.000909635 0.000492895 1.81777e-05 -0.000508105 -0.00107404 -0.00166085 -0.00224295 -0.00278946 -0.00326693 -0.00364301 -0.00390636 -0.00376926 -0.00372142 -0.0035436 -0.00326492 -0.00292856 -0.00258671 -0.00229306 -0.0020948 -0.00202568 -0.00210149 -0.00231893 -0.00263916 -0.00245684 -0.00275893 -0.00302868 -0.0032851 -0.00352745 -0.00375007 -0.00394797 -0.00411812 -0.00425924 -0.00437126 -0.00445491 -0.00451146 -0.00454265 -0.00455059 0.00484803 0.00462347 0.00441851 0.00423039 0.00405294 0.00387731 0.00369295 0.0034886 0.00325328 0.00297707 0.00265185 0.00225787 0.00109676 0.000652371 0.000126352 -0.00047905 -0.00115773 -0.00189655 -0.00267359 -0.00345795 -0.00421134 -0.00489117 -0.00545479 -0.0058796 -0.00569527 -0.00572739 -0.00555987 -0.00522329 -0.00476524 -0.00424757 -0.0037387 -0.00330459 -0.00299943 -0.00285814 -0.00289226 -0.00307279 -0.00296951 -0.00315611 -0.00335623 -0.00358288 -0.00382343 -0.00406161 -0.00428447 -0.00448345 -0.00465371 -0.00479302 -0.00490101 -0.00497853 -0.00502732 -0.00504981 0.00497794 0.00471782 0.00448452 0.00427408 0.00407815 0.00388504 0.0036809 0.00345096 0.00318058 0.00285612 0.00246556 0.00198601 0.000757495 0.00019606 -0.000472445 -0.00124732 -0.00212266 -0.00308365 -0.00410449 -0.005148 -0.00616729 -0.00710933 -0.00792005 -0.00856233 -0.00831955 -0.00847141 -0.00833744 -0.00794745 -0.00735172 -0.00662054 -0.00583718 -0.00508832 -0.00445279 -0.0039907 -0.00373549 -0.00367901 -0.00371362 -0.00370116 -0.00378108 -0.0039497 -0.00417497 -0.0044248 -0.0046745 -0.00490729 -0.00511297 -0.00528611 -0.00542459 -0.0055285 -0.00559945 -0.00564007 0.00496542 0.00467075 0.00440997 0.00417749 0.00396232 0.00374935 0.00352088 0.00325805 0.00294201 0.00255477 0.00207983 0.00149107 0.000185 -0.000524749 -0.00137312 -0.00236131 -0.00348345 -0.00472254 -0.00604797 -0.00741506 -0.00876688 -0.0100384 -0.0111629 -0.0120849 -0.0117984 -0.0121148 -0.012046 -0.0116175 -0.0108792 -0.00990658 -0.00879556 -0.00765302 -0.00658459 -0.00568077 -0.00500457 -0.00458392 -0.00480901 -0.00448027 -0.00436489 -0.00442875 -0.00461233 -0.00486164 -0.00513533 -0.00540465 -0.00565136 -0.00586502 -0.00604067 -0.00617703 -0.00627526 -0.00633803 0.00475789 0.00443153 0.00414533 0.00389168 0.00365647 0.00342072 0.00316237 0.00285799 0.002484 0.00201755 0.00143701 0.000712852 -0.000688689 -0.00158044 -0.00264904 -0.00389781 -0.00532068 -0.00689764 -0.00859205 -0.0103502 -0.0121032 -0.0137723 -0.0152763 -0.0165377 -0.0162626 -0.0167864 -0.0168198 -0.0163792 -0.0155098 -0.0142875 -0.0128155 -0.011217 -0.00962287 -0.00815646 -0.006917 -0.00598697 -0.00641612 -0.00561923 -0.00520201 -0.00508798 -0.0051836 -0.00540671 -0.00569319 -0.00599716 -0.00628836 -0.00654858 -0.00676829 -0.00694379 -0.00707523 -0.00716511 0.00429977 0.00394654 0.00363823 0.00336486 0.00310884 0.00284691 0.00255231 0.00219663 0.00175118 0.00118777 0.000479096 -0.000408132 -0.00193142 -0.00303962 -0.00436957 -0.00592676 -0.00770424 -0.00967782 -0.0118031 -0.0140153 -0.0162314 -0.0183568 -0.0202943 -0.0219412 -0.021777 -0.0225414 -0.0227131 -0.0222963 -0.0213269 -0.0198749 -0.0180436 -0.0159643 -0.0137872 -0.0116663 -0.00974063 -0.00816555 -0.00872172 -0.00728003 -0.0064206 -0.00602289 -0.00595769 -0.00610955 -0.00638487 -0.006714 -0.00704916 -0.00736035 -0.00763075 -0.00785265 -0.00802428 -0.00814757 0.00353704 0.00316376 0.00283792 0.00254692 0.00226941 0.00197765 0.00163994 0.00122268 0.000691793 1.33966e-05 -0.000845853 -0.0019236 -0.00360232 -0.00495969 -0.00658966 -0.00849938 -0.0106799 -0.0131011 -0.0157086 -0.0184238 -0.0211474 -0.0237671 -0.0261681 -0.0282227 -0.0282999 -0.0293199 -0.0296586 -0.029306 -0.0282853 -0.0266552 -0.0245109 -0.0219817 -0.0192265 -0.0164222 -0.0137464 -0.0114398 -0.0119018 -0.00964071 -0.00817403 -0.00735464 -0.00702523 -0.00703624 -0.00725897 -0.00759259 -0.00796484 -0.00832839 -0.00865522 -0.00893111 -0.009151 -0.00931556 0.0024232 0.00203855 0.00170099 0.00139512 0.00109575 0.00077059 0.000382993 -0.000105855 -0.000735533 -0.00154574 -0.00257603 -0.00386901 -0.00574139 -0.00737582 -0.00933787 -0.0116352 -0.0142552 -0.0171594 -0.0202807 -0.0235244 -0.0267727 -0.0298941 -0.0327562 -0.0352094 -0.0356576 -0.036927 -0.0374469 -0.0371953 -0.036182 -0.0344514 -0.0320839 -0.029197 -0.0259456 -0.0225172 -0.0191201 -0.0160799 -0.0160694 -0.0128595 -0.0106217 -0.00922207 -0.00849653 -0.00826966 -0.0083765 -0.00867882 -0.00907208 -0.0094845 -0.00987153 -0.0102089 -0.010486 -0.0107011 0.000925877 0.00054012 0.000197734 -0.000119503 -0.000440545 -0.000802059 -0.00124546 -0.00181461 -0.00255443 -0.0035103 -0.00472784 -0.00625506 -0.00835884 -0.01029 -0.0126052 -0.0153109 -0.0183884 -0.0217884 -0.0254285 -0.0291953 -0.0329514 -0.0365467 -0.0398326 -0.0426445 -0.0435535 -0.0450459 -0.0457442 -0.0456189 -0.0446695 -0.0429269 -0.040454 -0.0373495 -0.0337528 -0.0298474 -0.0258584 -0.0221757 -0.0212313 -0.0170343 -0.0139015 -0.0117661 -0.0104945 -0.00990701 -0.00981029 -0.0100266 -0.0104122 -0.0108628 -0.0113103 -0.0117155 -0.0120591 -0.0123355 -0.000966819 -0.00134236 -0.00168178 -0.00200607 -0.00234768 -0.00274728 -0.00325067 -0.00390635 -0.00476417 -0.00587475 -0.00728918 -0.00906094 -0.0114268 -0.0136631 -0.0163377 -0.0194538 -0.0229842 -0.026866 -0.0309993 -0.0352511 -0.0394646 -0.0434732 -0.0471159 -0.0502222 -0.0516147 -0.05329 -0.0541476 -0.0541571 -0.0533137 -0.0516391 -0.0491807 -0.0460161 -0.0422619 -0.0380839 -0.0337045 -0.0295388 -0.0272748 -0.0221702 -0.0180967 -0.0151054 -0.0131398 -0.0120521 -0.0116412 -0.0116958 -0.0120294 -0.0124974 -0.0130004 -0.0134773 -0.0138964 -0.0142451 -0.00324144 -0.00359503 -0.00392312 -0.00424929 -0.00460907 -0.00504665 -0.0056116 -0.00635643 -0.00733524 -0.0086031 -0.0102156 -0.0122311 -0.0148759 -0.0174121 -0.0204353 -0.0239431 -0.0278975 -0.0322202 -0.036793 -0.0414633 -0.046057 -0.0503949 -0.0543089 -0.0576321 -0.0594624 -0.0612742 -0.0622601 -0.0623956 -0.0616786 -0.0601276 -0.0577796 -0.0546942 -0.0509626 -0.0467229 -0.0421755 -0.0377101 -0.0339842 -0.0281617 -0.023203 -0.0193031 -0.0165259 -0.0147997 -0.0139488 -0.0137463 -0.0139663 -0.0144187 -0.0149644 -0.0155133 -0.016015 -0.0164472 -0.00585695 -0.00617721 -0.00648541 -0.00680745 -0.00718148 -0.00765455 -0.00827927 -0.00911137 -0.0102083 -0.0116284 -0.0134307 -0.0156769 -0.0185977 -0.0214147 -0.0247586 -0.0286195 -0.0329473 -0.0376479 -0.0425848 -0.0475882 -0.0524701 -0.0570433 -0.0611386 -0.0645997 -0.0667763 -0.0686787 -0.0697565 -0.069996 -0.0694033 -0.0679999 -0.0658186 -0.0629064 -0.0593324 -0.0552026 -0.0506794 -0.0460835 -0.041071 -0.0347924 -0.0291037 -0.0243337 -0.0206879 -0.0182112 -0.0167955 -0.016228 -0.0162569 -0.0166472 -0.0172137 -0.0178291 -0.0184179 -0.0189436 -0.00874598 -0.00902266 -0.00930268 -0.00961391 -0.00999658 -0.0104999 -0.0111789 -0.0120914 -0.0132971 -0.0148568 -0.0168308 -0.0192829 -0.0224542 -0.0255194 -0.0291409 -0.0333002 -0.0379351 -0.0429361 -0.0481506 -0.0533947 -0.0584711 -0.0631892 -0.0673835 -0.0709125 -0.0733312 -0.0752834 -0.0764174 -0.0767324 -0.0762455 -0.0749848 -0.0729849 -0.0702866 -0.0669427 -0.0630292 -0.0586636 -0.0540741 -0.0482041 -0.041751 -0.0355634 -0.0300578 -0.025571 -0.0222868 -0.0202046 -0.019165 -0.0189154 -0.0191852 -0.0197407 -0.0204107 -0.0210871 -0.0217141 -0.0118196 -0.0120444 -0.0122887 -0.0125819 -0.0129661 -0.0134918 -0.0142154 -0.0151965 -0.0164957 -0.0181746 -0.0202939 -0.0229169 -0.0262908 -0.0295608 -0.0334054 -0.0377979 -0.0426647 -0.0478832 -0.0532881 -0.0586853 -0.0638721 -0.0686588 -0.0728862 -0.0764289 -0.0789992 -0.0809689 -0.0821291 -0.0824908 -0.0820825 -0.0809406 -0.0791047 -0.0766155 -0.0735163 -0.0698601 -0.0657228 -0.0612411 -0.0550426 -0.0486694 -0.0422495 -0.0362211 -0.0310121 -0.0269397 -0.024137 -0.0225377 -0.0219233 -0.0220069 -0.0225112 -0.0232166 -0.0239765 -0.0247096 -0.0149754 -0.0151424 -0.0153445 -0.0156127 -0.0159897 -0.0165274 -0.0172828 -0.0183159 -0.0196877 -0.0214594 -0.0236906 -0.0264421 -0.0299513 -0.0333747 -0.0373812 -0.041937 -0.0469592 -0.0523154 -0.0578313 -0.0633067 -0.0685371 -0.0733357 -0.0775508 -0.0810711 -0.0837302 -0.0856945 -0.0868588 -0.0872433 -0.0868854 -0.0858296 -0.0841224 -0.0818082 -0.0789278 -0.0755206 -0.0716315 -0.0673258 -0.0612731 -0.0551746 -0.0487784 -0.0424817 -0.0367447 -0.0319859 -0.0284742 -0.0262662 -0.0252156 -0.025048 -0.0254556 -0.0261717 -0.0270059 -0.0278463 -0.018107 -0.018213 -0.0183683 -0.0186045 -0.0189652 -0.0195024 -0.0202736 -0.0213384 -0.0227574 -0.0245905 -0.0268953 -0.0297284 -0.0332913 -0.0368122 -0.040917 -0.0455667 -0.0506722 -0.056095 -0.0616557 -0.0671515 -0.0723785 -0.0771534 -0.0813311 -0.084811 -0.0875241 -0.0894697 -0.0906248 -0.0910147 -0.0906828 -0.0896805 -0.0880611 -0.0858753 -0.0831668 -0.079971 -0.0763156 -0.0722228 -0.0666435 -0.0609412 -0.0547759 -0.0484607 -0.042431 -0.0371551 -0.0330154 -0.0302017 -0.0286722 -0.0281986 -0.0284643 -0.0291625 -0.0300576 -0.0310028 -0.021114 -0.0211589 -0.0212645 -0.0214629 -0.0217977 -0.0223208 -0.0230894 -0.0241627 -0.0256001 -0.0274598 -0.0297968 -0.0326623 -0.0361887 -0.0397496 -0.04389 -0.0485684 -0.0536931 -0.0591231 -0.0646777 -0.070154 -0.0753495 -0.0800842 -0.0842169 -0.0876536 -0.0904073 -0.0923296 -0.09347 -0.0938549 -0.0935308 -0.092554 -0.0909843 -0.0888796 -0.0862904 -0.0832556 -0.0797995 -0.0759274 -0.0709845 -0.0657271 -0.0599284 -0.0538003 -0.0477101 -0.042123 -0.0374925 -0.03413 -0.0321163 -0.031301 -0.0313853 -0.0320367 -0.0329767 -0.034021 -0.0239107 -0.0238974 -0.0239526 -0.0241085 -0.0244082 -0.0249031 -0.0256495 -0.0267059 -0.0281304 -0.0299794 -0.0323053 -0.0351538 -0.0385497 -0.0420937 -0.0462102 -0.0508584 -0.0559475 -0.0613377 -0.0668497 -0.0722823 -0.0774346 -0.0821279 -0.0862219 -0.0896241 -0.0924185 -0.0943202 -0.0954467 -0.0958224 -0.095494 -0.0945212 -0.0929694 -0.0909041 -0.0883845 -0.0854583 -0.0821561 -0.078487 -0.0742111 -0.0693865 -0.064014 -0.0582089 -0.0522497 -0.0465547 -0.0416003 -0.037789 -0.0353236 -0.0341543 -0.0340288 -0.0346071 -0.0355751 -0.0367108 -0.0264327 -0.0263663 -0.0263726 -0.0264831 -0.0267396 -0.0271921 -0.0278961 -0.0289088 -0.0302873 -0.0320866 -0.0343573 -0.0371398 -0.0403115 -0.0437833 -0.0478209 -0.052387 -0.0573949 -0.0627094 -0.0681546 -0.073532 -0.0786416 -0.0833037 -0.0873752 -0.0907606 -0.0936014 -0.0954913 -0.0966097 -0.0969765 -0.0966373 -0.0956534 -0.0940948 -0.0920345 -0.0895412 -0.0866739 -0.0834755 -0.0799714 -0.0763098 -0.0718608 -0.0669068 -0.0614849 -0.0557829 -0.0501465 -0.0450324 -0.040894 -0.0380383 -0.0365262 -0.036175 -0.0366589 -0.0376393 -0.0388584 -0.0286393 -0.0285272 -0.0284883 -0.0285522 -0.0287587 -0.0291557 -0.0297968 -0.0307384 -0.0320367 -0.033746 -0.0359163 -0.0385845 -0.041441 -0.044788 -0.0486963 -0.053135 -0.0580247 -0.0632367 -0.0686007 -0.0739208 -0.0789968 -0.0836454 -0.0877175 -0.0911096 -0.0940034 -0.0958953 -0.0970151 -0.0973777 -0.0970256 -0.0960207 -0.094437 -0.0923542 -0.0898504 -0.0869963 -0.0838496 -0.0804579 -0.0773197 -0.0731598 -0.068565 -0.0635173 -0.0581256 -0.0526552 -0.0475135 -0.0431658 -0.0399949 -0.0381672 -0.037586 -0.0379601 -0.0389395 -0.0402352 -0.0305141 -0.0303656 -0.0302869 -0.030305 -0.0304564 -0.0307858 -0.0313444 -0.032187 -0.0333696 -0.0349474 -0.0369715 -0.0394776 -0.0419326 -0.0451045 -0.0488378 -0.0531102 -0.0578518 -0.0629424 -0.068218 -0.0734852 -0.0785423 -0.0832001 -0.0873 -0.0907264 -0.0936773 -0.0955888 -0.0967232 -0.0970895 -0.0967265 -0.0956955 -0.0940735 -0.0919462 -0.0894003 -0.0865175 -0.0833694 -0.0800271 -0.077315 -0.0733405 -0.0690103 -0.0642722 -0.0591752 -0.0539096 -0.04882 -0.0443535 -0.0409365 -0.038826 -0.0380171 -0.0382704 -0.039238 -0.0406059 -0.0320627 -0.031888 -0.0317766 -0.0317517 -0.0318448 -0.0320961 -0.032553 -0.0332686 -0.0342993 -0.0357026 -0.0375337 -0.03983 -0.0418028 -0.0447524 -0.0482697 -0.0523431 -0.0569135 -0.0618703 -0.0670559 -0.0722793 -0.0773355 -0.0820276 -0.0861849 -0.0896762 -0.0926831 -0.0946353 -0.0958008 -0.0961823 -0.0958141 -0.0947561 -0.0930873 -0.0908982 -0.0882827 -0.0853316 -0.0821287 -0.0787658 -0.0763917 -0.0724902 -0.068307 -0.0637732 -0.0588969 -0.0538077 -0.0487871 -0.0442464 -0.0406287 -0.0382602 -0.0372252 -0.0373474 -0.0382944 -0.039733 -0.0333081 -0.0331186 -0.0329831 -0.0329194 -0.0329527 -0.0331165 -0.0334531 -0.0340134 -0.034855 -0.0360397 -0.0376299 -0.0396691 -0.0410861 -0.0437691 -0.0470346 -0.0508827 -0.0552657 -0.0600825 -0.0651818 -0.0703738 -0.0754493 -0.0802019 -0.0844472 -0.0880357 -0.0910898 -0.0931069 -0.0943235 -0.0947354 -0.0943718 -0.0932904 -0.0915707 -0.0893066 -0.0865974 -0.0835407 -0.0802288 -0.0767701 -0.0746601 -0.0707143 -0.0665458 -0.0620814 -0.0573053 -0.0523036 -0.047304 -0.0426771 -0.0388646 -0.0362416 -0.0349724 -0.0349496 -0.0358668 -0.0373775 -0.0342866 -0.0340945 -0.0339446 -0.0338478 -0.0338208 -0.0338884 -0.0340861 -0.034462 -0.0350759 -0.0359967 -0.0372976 -0.0390331 -0.039829 -0.0422057 -0.04519 -0.0487937 -0.0529804 -0.0576578 -0.0626794 -0.0678556 -0.0729721 -0.0778117 -0.0821751 -0.0858939 -0.0889768 -0.0910858 -0.0923765 -0.0928378 -0.0924932 -0.0913967 -0.0896269 -0.0872789 -0.0844554 -0.0812576 -0.0777824 -0.0741482 -0.0722392 -0.0681276 -0.0638307 -0.0592784 -0.0544448 -0.0493894 -0.0443008 -0.0395141 -0.0354625 -0.032555 -0.0310244 -0.030833 -0.0317078 -0.0332941 -0.0350426 -0.034861 -0.0347076 -0.0345844 -0.034497 -0.0344592 -0.0344982 -0.0346588 -0.0350046 -0.0356149 -0.0365785 -0.0379659 -0.0380864 -0.0401231 -0.0428042 -0.0461533 -0.0501434 -0.0546892 -0.0596472 -0.0648267 -0.0700071 -0.0749599 -0.0794705 -0.0833521 -0.0864344 -0.0886637 -0.0900546 -0.0905882 -0.0902812 -0.0891827 -0.0873685 -0.0849328 -0.081978 -0.0786059 -0.0749134 -0.0710207 -0.0692528 -0.0648488 -0.0602698 -0.0554529 -0.0503727 -0.045077 -0.0397319 -0.0346492 -0.0302569 -0.0269913 -0.0251443 -0.0247448 -0.0255579 -0.0272235 -0.035625 -0.0354689 -0.0353241 -0.0351816 -0.0350329 -0.0348782 -0.0347351 -0.0346461 -0.034681 -0.0349338 -0.035514 -0.0365133 -0.0359178 -0.0375889 -0.0399547 -0.043049 -0.0468518 -0.0512817 -0.0561962 -0.0614014 -0.0666698 -0.0717616 -0.0764469 -0.0805221 -0.0835627 -0.0859411 -0.0874601 -0.0880917 -0.0878447 -0.0867617 -0.0849137 -0.0823907 -0.0792919 -0.0757154 -0.0717529 -0.0675168 -0.0658238 -0.0609949 -0.0559688 -0.0506915 -0.0451458 -0.0393815 -0.0335589 -0.0279824 -0.023086 -0.0193375 -0.017083 -0.0164136 -0.0171345 -0.0188819 -0.0360848 -0.0359721 -0.0358502 -0.035695 -0.0354811 -0.03