# vtk DataFile Version 2.0
Presion
ASCII

DATASET STRUCTURED_GRID
DIMENSIONS   50   50   20

POINTS   50000   double
0.00568455   0.00568455   0.025
0.0174023   0.00568455   0.025
0.0298294   0.00568455   0.025
0.0429888   0.00568455   0.025
0.0569012   0.00568455   0.025
0.0715849   0.00568455   0.025
0.0870549   0.00568455   0.025
0.103323   0.00568455   0.025
0.120395   0.00568455   0.025
0.138275   0.00568455   0.025
0.156961   0.00568455   0.025
0.176443   0.00568455   0.025
0.196707   0.00568455   0.025
0.217734   0.00568455   0.025
0.239496   0.00568455   0.025
0.261959   0.00568455   0.025
0.285082   0.00568455   0.025
0.308818   0.00568455   0.025
0.333113   0.00568455   0.025
0.357906   0.00568455   0.025
0.383132   0.00568455   0.025
0.408719   0.00568455   0.025
0.434592   0.00568455   0.025
0.460672   0.00568455   0.025
0.486877   0.00568455   0.025
0.513123   0.00568455   0.025
0.539328   0.00568455   0.025
0.565408   0.00568455   0.025
0.591281   0.00568455   0.025
0.616868   0.00568455   0.025
0.642094   0.00568455   0.025
0.666887   0.00568455   0.025
0.691182   0.00568455   0.025
0.714918   0.00568455   0.025
0.738041   0.00568455   0.025
0.760504   0.00568455   0.025
0.782266   0.00568455   0.025
0.803293   0.00568455   0.025
0.823557   0.00568455   0.025
0.843039   0.00568455   0.025
0.861725   0.00568455   0.025
0.879605   0.00568455   0.025
0.896677   0.00568455   0.025
0.912945   0.00568455   0.025
0.928415   0.00568455   0.025
0.943099   0.00568455   0.025
0.957011   0.00568455   0.025
0.970171   0.00568455   0.025
0.982598   0.00568455   0.025
0.994315   0.00568455   0.025
0.00568455   0.0174023   0.025
0.0174023   0.0174023   0.025
0.0298294   0.0174023   0.025
0.0429888   0.0174023   0.025
0.0569012   0.0174023   0.025
0.0715849   0.0174023   0.025
0.0870549   0.0174023   0.025
0.103323   0.0174023   0.025
0.120395   0.0174023   0.025
0.138275   0.0174023   0.025
0.156961   0.0174023   0.025
0.176443   0.0174023   0.025
0.196707   0.0174023   0.025
0.217734   0.0174023   0.025
0.239496   0.0174023   0.025
0.261959   0.0174023   0.025
0.285082   0.0174023   0.025
0.308818   0.0174023   0.025
0.333113   0.0174023   0.025
0.357906   0.0174023   0.025
0.383132   0.0174023   0.025
0.408719   0.0174023   0.025
0.434592   0.0174023   0.025
0.460672   0.0174023   0.025
0.486877   0.0174023   0.025
0.513123   0.0174023   0.025
0.539328   0.0174023   0.025
0.565408   0.0174023   0.025
0.591281   0.0174023   0.025
0.616868   0.0174023   0.025
0.642094   0.0174023   0.025
0.666887   0.0174023   0.025
0.691182   0.0174023   0.025
0.714918   0.0174023   0.025
0.738041   0.0174023   0.025
0.760504   0.0174023   0.025
0.782266   0.0174023   0.025
0.803293   0.0174023   0.025
0.823557   0.0174023   0.025
0.843039   0.0174023   0.025
0.861725   0.0174023   0.025
0.879605   0.0174023   0.025
0.896677   0.0174023   0.025
0.912945   0.0174023   0.025
0.928415   0.0174023   0.025
0.943099   0.0174023   0.025
0.957011   0.0174023   0.025
0.970171   0.0174023   0.025
0.982598   0.0174023   0.025
0.994315   0.0174023   0.025
0.00568455   0.0298294   0.025
0.0174023   0.0298294   0.025
0.0298294   0.0298294   0.025
0.0429888   0.0298294   0.025
0.0569012   0.0298294   0.025
0.0715849   0.0298294   0.025
0.0870549   0.0298294   0.025
0.103323   0.0298294   0.025
0.120395   0.0298294   0.025
0.138275   0.0298294   0.025
0.156961   0.0298294   0.025
0.176443   0.0298294   0.025
0.196707   0.0298294   0.025
0.217734   0.0298294   0.025
0.239496   0.0298294   0.025
0.261959   0.0298294   0.025
0.285082   0.0298294   0.025
0.308818   0.0298294   0.025
0.333113   0.0298294   0.025
0.357906   0.0298294   0.025
0.383132   0.0298294   0.025
0.408719   0.0298294   0.025
0.434592   0.0298294   0.025
0.460672   0.0298294   0.025
0.486877   0.0298294   0.025
0.513123   0.0298294   0.025
0.539328   0.0298294   0.025
0.565408   0.0298294   0.025
0.591281   0.0298294   0.025
0.616868   0.0298294   0.025
0.642094   0.0298294   0.025
0.666887   0.0298294   0.025
0.691182   0.0298294   0.025
0.714918   0.0298294   0.025
0.738041   0.0298294   0.025
0.760504   0.0298294   0.025
0.782266   0.0298294   0.025
0.803293   0.0298294   0.025
0.823557   0.0298294   0.025
0.843039   0.0298294   0.025
0.861725   0.0298294   0.025
0.879605   0.0298294   0.025
0.896677   0.0298294   0.025
0.912945   0.0298294   0.025
0.928415   0.0298294   0.025
0.943099   0.0298294   0.025
0.957011   0.0298294   0.025
0.970171   0.0298294   0.025
0.982598   0.0298294   0.025
0.994315   0.0298294   0.025
0.00568455   0.0429888   0.025
0.0174023   0.0429888   0.025
0.0298294   0.0429888   0.025
0.0429888   0.0429888   0.025
0.0569012   0.0429888   0.025
0.0715849   0.0429888   0.025
0.0870549   0.0429888   0.025
0.103323   0.0429888   0.025
0.120395   0.0429888   0.025
0.138275   0.0429888   0.025
0.156961   0.0429888   0.025
0.176443   0.0429888   0.025
0.196707   0.0429888   0.025
0.217734   0.0429888   0.025
0.239496   0.0429888   0.025
0.261959   0.0429888   0.025
0.285082   0.0429888   0.025
0.308818   0.0429888   0.025
0.333113   0.0429888   0.025
0.357906   0.0429888   0.025
0.383132   0.0429888   0.025
0.408719   0.0429888   0.025
0.434592   0.0429888   0.025
0.460672   0.0429888   0.025
0.486877   0.0429888   0.025
0.513123   0.0429888   0.025
0.539328   0.0429888   0.025
0.565408   0.0429888   0.025
0.591281   0.0429888   0.025
0.616868   0.0429888   0.025
0.642094   0.0429888   0.025
0.666887   0.0429888   0.025
0.691182   0.0429888   0.025
0.714918   0.0429888   0.025
0.738041   0.0429888   0.025
0.760504   0.0429888   0.025
0.782266   0.0429888   0.025
0.803293   0.0429888   0.025
0.823557   0.0429888   0.025
0.843039   0.0429888   0.025
0.861725   0.0429888   0.025
0.879605   0.0429888   0.025
0.896677   0.0429888   0.025
0.912945   0.0429888   0.025
0.928415   0.0429888   0.025
0.943099   0.0429888   0.025
0.957011   0.0429888   0.025
0.970171   0.0429888   0.025
0.982598   0.0429888   0.025
0.994315   0.0429888   0.025
0.00568455   0.0569012   0.025
0.0174023   0.0569012   0.025
0.0298294   0.0569012   0.025
0.0429888   0.0569012   0.025
0.0569012   0.0569012   0.025
0.0715849   0.0569012   0.025
0.0870549   0.0569012   0.025
0.103323   0.0569012   0.025
0.120395   0.0569012   0.025
0.138275   0.0569012   0.025
0.156961   0.0569012   0.025
0.176443   0.0569012   0.025
0.196707   0.0569012   0.025
0.217734   0.0569012   0.025
0.239496   0.0569012   0.025
0.261959   0.0569012   0.025
0.285082   0.0569012   0.025
0.308818   0.0569012   0.025
0.333113   0.0569012   0.025
0.357906   0.0569012   0.025
0.383132   0.0569012   0.025
0.408719   0.0569012   0.025
0.434592   0.0569012   0.025
0.460672   0.0569012   0.025
0.486877   0.0569012   0.025
0.513123   0.0569012   0.025
0.539328   0.0569012   0.025
0.565408   0.0569012   0.025
0.591281   0.0569012   0.025
0.616868   0.0569012   0.025
0.642094   0.0569012   0.025
0.666887   0.0569012   0.025
0.691182   0.0569012   0.025
0.714918   0.0569012   0.025
0.738041   0.0569012   0.025
0.760504   0.0569012   0.025
0.782266   0.0569012   0.025
0.803293   0.0569012   0.025
0.823557   0.0569012   0.025
0.843039   0.0569012   0.025
0.861725   0.0569012   0.025
0.879605   0.0569012   0.025
0.896677   0.0569012   0.025
0.912945   0.0569012   0.025
0.928415   0.0569012   0.025
0.943099   0.0569012   0.025
0.957011   0.0569012   0.025
0.970171   0.0569012   0.025
0.982598   0.0569012   0.025
0.994315   0.0569012   0.025
0.00568455   0.0715849   0.025
0.0174023   0.0715849   0.025
0.0298294   0.0715849   0.025
0.0429888   0.0715849   0.025
0.0569012   0.0715849   0.025
0.0715849   0.0715849   0.025
0.0870549   0.0715849   0.025
0.103323   0.0715849   0.025
0.120395   0.0715849   0.025
0.138275   0.0715849   0.025
0.156961   0.0715849   0.025
0.176443   0.0715849   0.025
0.196707   0.0715849   0.025
0.217734   0.0715849   0.025
0.239496   0.0715849   0.025
0.261959   0.0715849   0.025
0.285082   0.0715849   0.025
0.308818   0.0715849   0.025
0.333113   0.0715849   0.025
0.357906   0.0715849   0.025
0.383132   0.0715849   0.025
0.408719   0.0715849   0.025
0.434592   0.0715849   0.025
0.460672   0.0715849   0.025
0.486877   0.0715849   0.025
0.513123   0.0715849   0.025
0.539328   0.0715849   0.025
0.565408   0.0715849   0.025
0.591281   0.0715849   0.025
0.616868   0.0715849   0.025
0.642094   0.0715849   0.025
0.666887   0.0715849   0.025
0.691182   0.0715849   0.025
0.714918   0.0715849   0.025
0.738041   0.0715849   0.025
0.760504   0.0715849   0.025
0.782266   0.0715849   0.025
0.803293   0.0715849   0.025
0.823557   0.0715849   0.025
0.843039   0.0715849   0.025
0.861725   0.0715849   0.025
0.879605   0.0715849   0.025
0.896677   0.0715849   0.025
0.912945   0.0715849   0.025
0.928415   0.0715849   0.025
0.943099   0.0715849   0.025
0.957011   0.0715849   0.025
0.970171   0.0715849   0.025
0.982598   0.0715849   0.025
0.994315   0.0715849   0.025
0.00568455   0.0870549   0.025
0.0174023   0.0870549   0.025
0.0298294   0.0870549   0.025
0.0429888   0.0870549   0.025
0.0569012   0.0870549   0.025
0.0715849   0.0870549   0.025
0.0870549   0.0870549   0.025
0.103323   0.0870549   0.025
0.120395   0.0870549   0.025
0.138275   0.0870549   0.025
0.156961   0.0870549   0.025
0.176443   0.0870549   0.025
0.196707   0.0870549   0.025
0.217734   0.0870549   0.025
0.239496   0.0870549   0.025
0.261959   0.0870549   0.025
0.285082   0.0870549   0.025
0.308818   0.0870549   0.025
0.333113   0.0870549   0.025
0.357906   0.0870549   0.025
0.383132   0.0870549   0.025
0.408719   0.0870549   0.025
0.434592   0.0870549   0.025
0.460672   0.0870549   0.025
0.486877   0.0870549   0.025
0.513123   0.0870549   0.025
0.539328   0.0870549   0.025
0.565408   0.0870549   0.025
0.591281   0.0870549   0.025
0.616868   0.0870549   0.025
0.642094   0.0870549   0.025
0.666887   0.0870549   0.025
0.691182   0.0870549   0.025
0.714918   0.0870549   0.025
0.738041   0.0870549   0.025
0.760504   0.0870549   0.025
0.782266   0.0870549   0.025
[...]
POINT_DATA   50000
SCALARS Presion double
LOOKUP_TABLE   Presion

0 0 0 0 0 0 0 0 0 0 0 0 0 0 0 0 0 0 0 0 0 0 0 0 0 0 0 0 0 0 0 0 0 0 0 0 0 0 0 0 0 0 0 0 0 0 0 0 0 0 0.00166083 0.00180813 0.00198593 0.00211455 0.00217947 0.00218185 0.0021263 0.00201791 0.00186158 0.00166154 0.00142119 0.00114227 0.000682967 0.000404042 0.000155112 -6.17634e-05 -0.000241476 -0.000375634 -0.000454446 -0.000469112 -0.000414264 -0.000289986 -0.000102776 0.000134757 0.000385462 0.0006351 0.000849981 0.00100316 0.00107316 0.00104612 0.0009174 0.00069219 0.000385232 1.96428e-05 -0.000374963 -0.000763832 -0.00101246 -0.00137444 -0.00171138 -0.00200578 -0.00224715 -0.00242983 -0.00255089 -0.0026089 -0.0026031 -0.00253298 -0.00239861 -0.0022035 -0.00196809 -0.00178498 0.00218014 0.00216902 0.00221897 0.00226983 0.00229187 0.00227284 0.00220903 0.00210073 0.00195013 0.00176047 0.0015361 0.001281 0.000760733 0.000508433 0.000273415 6.284e-05 -0.000115904 -0.000253772 -0.000341024 -0.000369113 -0.000332804 -0.000232016 -7.28184e-05 0.000131088 0.000353918 0.000572254 0.000758102 0.000885958 0.000935535 0.000893818 0.0007566 0.000529071 0.000225333 -0.00013312 -0.000520053 -0.000905339 -0.00108215 -0.00144119 -0.00176725 -0.00204892 -0.00227895 -0.00245361 -0.00257162 -0.00263346 -0.00264121 -0.00259916 -0.00251575 -0.00240834 -0.00231309 -0.00229952 0.00253212 0.0024822 0.00246763 0.00246225 0.00244458 0.00240098 0.0023243 0.00221174 0.00206339 0.00188138 0.00167017 0.00143302 0.000843118 0.000613262 0.000390632 0.000184432 3.54633e-06 -0.000142318 -0.000243195 -0.000290342 -0.000278088 -0.000205565 -7.79343e-05 8.99183e-05 0.000289523 0.000482537 0.000646867 0.000757923 0.000795513 0.000746186 0.000605054 0.000376541 7.38786e-05 -0.000282746 -0.000669341 -0.00105726 -0.00115826 -0.00151946 -0.00184021 -0.00211383 -0.00233651 -0.00250686 -0.00262553 -0.00269493 -0.00271944 -0.00270616 -0.00266639 -0.00261788 -0.00258656 -0.0026034 0.00282505 0.00276539 0.00271893 0.00267693 0.00262769 0.00256104 0.00246993 0.00235043 0.00220136 0.00202392 0.00182213 0.00159734 0.00093254 0.000718953 0.000504481 0.000298493 0.000110475 -4.94082e-05 -0.000170762 -0.000244188 -0.000262923 -0.000224551 -0.000132552 -2.27314e-06 0.000176035 0.000349833 0.00050042 0.000603801 0.0006389 0.000590614 0.000452191 0.000226393 -7.4878e-05 -0.000432592 -0.000824041 -0.00121998 -0.00124516 -0.00161256 -0.00193246 -0.00220222 -0.00242134 -0.00259084 -0.00271317 -0.00279223 -0.00283357 -0.00284485 -0.00283626 -0.00282069 -0.00281236 -0.00282238 0.00310839 0.00304041 0.00297411 0.00290713 0.0028337 0.00274725 0.00264208 0.00251429 0.00236207 0.0021859 0.00198907 0.00177045 0.00102837 0.000823269 0.0006101 0.000397497 0.000194835 1.24966e-05 -0.000138531 -0.000247701 -0.000306426 -0.000309842 -0.000258701 -0.000167666 -1.05408e-05 0.000149446 0.00029402 0.000399541 0.000443169 0.000406935 0.000280932 6.51079e-05 -0.000230741 -0.000588927 -0.000987439 -0.00139495 -0.00134779 -0.00172409 -0.00204621 -0.00231546 -0.00253438 -0.0027061 -0.00283443 -0.00292409 -0.00298079 -0.00301129 -0.00302326 -0.00302478 -0.00302282 -0.00302102 0.00340184 0.00332016 0.00323621 0.00314936 0.00305654 0.00295331 0.00283518 0.00269847 0.00254099 0.00236248 0.00216537 0.00194569 0.00112646 0.000920279 0.000698826 0.000469676 0.00024167 2.52408e-05 -0.000167835 -0.000325331 -0.000436023 -0.00049158 -0.000488794 -0.000440282 -0.000304226 -0.00015452 -8.7577e-06 0.000109481 0.000174737 0.000164924 6.54743e-05 -0.000127992 -0.000409026 -0.000761962 -0.00116539 -0.00158493 -0.00147255 -0.00185808 -0.00218353 -0.00245442 -0.00267592 -0.0028526 -0.00298899 -0.00308993 -0.00316056 -0.00320627 -0.00323235 -0.00324361 -0.00324358 -0.00323372 0.0037095 0.00360797 0.00350471 0.0033993 0.00328943 0.00317147 0.00304131 0.00289513 0.00273015 0.0025452 0.00234154 0.00211222 0.001218 0.000999061 0.000756738 0.000497533 0.000229577 -3.66614e-05 -0.000288341 -0.000510959 -0.000689785 -0.000811923 -0.000868858 -0.000869714 -0.000752071 -0.000612521 -0.000459639 -0.000317432 -0.000214824 -0.000179372 -0.000232096 -0.000383707 -0.000632966 -0.000967584 -0.00136732 -0.00179439 -0.00162837 -0.00201945 -0.00234648 -0.00261958 -0.00284574 -0.00302999 -0.0031767 -0.00329013 -0.00337447 -0.00343369 -0.00347138 -0.00349051 -0.00349323 -0.00348071 0.0040256 0.00389877 0.00377346 0.00364897 0.0035228 0.00339106 0.00324916 0.0030925 0.00291721 0.00272079 0.002503 0.00225373 0.00128811 0.00104217 0.000763017 0.000456141 0.000128971 -0.000207848 -0.000540021 -0.000850107 -0.00111895 -0.00132796 -0.00146195 -0.00152501 -0.00141787 -0.00129359 -0.00113005 -0.00095238 -0.000793765 -0.000688677 -0.000666701 -0.000747455 -0.000937563 -0.00123034 -0.00160816 -0.00203032 -0.0018285 -0.00221497 -0.00253768 -0.00281139 -0.00304349 -0.00323799 -0.0033979 -0.00352615 -0.00362564 -0.00369909 -0.0037489 -0.00377715 -0.00378555 -0.00377552 0.00433622 0.00417969 0.00402966 0.00388497 0.00374235 0.00359688 0.00344269 0.00327366 0.00308421 0.00287001 0.00262875 0.00234716 0.00131416 0.00102401 0.000688252 0.000311412 -9.96691e-05 -0.000533899 -0.00097504 -0.00140198 -0.0017902 -0.00211426 -0.00235101 -0.00249782 -0.00238624 -0.00228958 -0.00211581 -0.00189191 -0.00165596 -0.00145073 -0.00131673 -0.00128561 -0.00137539 -0.00158832 -0.00191195 -0.00230452 -0.00209346 -0.00245521 -0.00276171 -0.00303138 -0.00326956 -0.00347699 -0.00365377 -0.00380052 -0.0039184 -0.00400887 -0.00407348 -0.00411385 -0.00413163 -0.00412861 0.0046195 0.00443001 0.00425319 0.0040872 0.00392756 0.0037677 0.00359972 0.00341529 0.00320646 0.00296642 0.00269026 0.00236148 0.00126427 0.000909314 0.000492944 1.86332e-05 -0.000507214 -0.0010727 -0.00165906 -0.00224074 -0.00278688 -0.00326404 -0.00363991 -0.00390314 -0.00376604 -0.00371828 -0.00354063 -0.00326221 -0.00292615 -0.00258464 -0.00229131 -0.00209336 -0.00202451 -0.00210051 -0.0023181 -0.0026384 -0.00245598 -0.00275813 -0.00302791 -0.00328433 -0.00352665 -0.00374924 -0.0039471 -0.0041172 -0.00425829 -0.00437028 -0.0044539 -0.00451043 -0.0045416 -0.00454953 0.0048453 0.00462085 0.00441597 0.00422793 0.00405057 0.00387505 0.00369081 0.00348662 0.0032515 0.00297554 0.00265061 0.00225699 0.00109618 0.000652192 0.00012663 -0.000478269 -0.00115641 -0.00189468 -0.00267116 -0.00345499 -0.00420791 -0.00488735 -0.00545069 -0.00587532 -0.00569097 -0.00572316 -0.00555583 -0.00521953 -0.00476185 -0.00424459 -0.00373616 -0.00330247 -0.0029977 -0.00285674 -0.00289112 -0.00307184 -0.00296839 -0.00315514 -0.00335534 -0.00358203 -0.00382256 -0.00406071 -0.00428354 -0.00448248 -0.00465269 -0.00479197 -0.00489993 -0.00497742 -0.00502618 -0.00504866 0.0049751 0.00471509 0.00448189 0.00427154 0.00407571 0.00388271 0.00367871 0.00344895 0.0031788 0.00285463 0.00246443 0.0019853 0.00075708 0.000196137 -0.00047181 -0.00124607 -0.00212075 -0.00308106 -0.00410123 -0.0051441 -0.00616282 -0.00710438 -0.00791475 -0.00855681 -0.00831398 -0.0084659 -0.00833212 -0.00794245 -0.00734715 -0.00661645 -0.00583363 -0.00508532 -0.00445032 -0.00398871 -0.00373391 -0.00367776 -0.00371215 -0.00369996 -0.00378004 -0.00394873 -0.00417401 -0.00442383 -0.00467348 -0.00490623 -0.00511187 -0.00528497 -0.00542341 -0.00552729 -0.00559821 -0.00563881 0.00496253 0.00466798 0.00440731 0.00417493 0.00395986 0.00374702 0.00351871 0.00325609 0.00294031 0.00255342 0.0020789 0.00149064 0.000184879 -0.000524277 -0.00137198 -0.00235942 -0.00348078 -0.00471906 -0.00604369 -0.00741003 -0.0087612 -0.0100322 -0.0111563 -0.012078 -0.0117914 -0.0121078 -0.0120393 -0.0116112 -0.0108733 -0.00990124 -0.00879083 -0.00764896 -0.00658118 -0.005678 -0.00500238 -0.00458222 -0.00480707 -0.00447874 -0.00436361 -0.00442761 -0.00461123 -0.00486056 -0.00513421 -0.0054035 -0.00565016 -0.00586377 -0.00603938 -0.00617571 -0.0062739 -0.00633665 0.00475505 0.00442882 0.00414273 0.00388919 0.00365409 0.00341848 0.00316031 0.00285617 0.00248249 0.00201644 0.0014364 0.000712844 -0.000688365 -0.00157942 -0.00264721 -0.00389513 -0.00531707 -0.0068931 -0.00858661 -0.0103439 -0.0120961 -0.0137647 -0.0152683 -0.0165294 -0.0162541 -0.0167781 -0.0168117 -0.0163714 -0.0155025 -0.0142808 -0.0128095 -0.0112117 -0.00961837 -0.00815271 -0.00691398 -0.00598458 -0.00641357 -0.00561725 -0.00520039 -0.00508658 -0.00518232 -0.00540546 -0.00569194 -0.00599588 -0.00628703 -0.00654721 -0.00676687 -0.00694233 -0.00707373 -0.00716359 0.0042971 0.00394401 0.00363581 0.00336255 0.00310666 0.00284488 0.00255048 0.00219508 0.00174999 0.00118704 0.000478949 -0.000407581 -0.00193048 -0.00303787 -0.00436691 -0.00592311 -0.00769955 -0.00967209 -0.0117964 -0.0140077 -0.016223 -0.0183478 -0.0202849 -0.0219317 -0.0217672 -0.0225317 -0.0227037 -0.0222873 -0.0213184 -0.019867 -0.0180364 -0.0159578 -0.0137816 -0.0116615 -0.00973659 -0.00816225 -0.00871844 -0.00727747 -0.00641853 -0.00602115 -0.00595615 -0.0061081 -0.00638345 -0.00671256 -0.00704768 -0.00735882 -0.00762918 -0.00785104 -0.00802263 -0.00814589 0.00353469 0.00316154 0.00283581 0.00254493 0.00226755 0.00197596 0.00163848 0.00122153 0.000691059 1.31925e-05 -0.000845396 -0.00192235 -0.00360062 -0.00495707 -0.00658601 -0.00849464 -0.010674 -0.0130941 -0.0157006 -0.0184149 -0.0211378 -0.023757 -0.0261577 -0.0282122 -0.0282891 -0.0293093 -0.0296483 -0.0292961 -0.0282759 -0.0266464 -0.0245027 -0.0219742 -0.0192198 -0.0164163 -0.0137412 -0.0114354 -0.0118977 -0.00963748 -0.00817142 -0.00735247 -0.00702335 -0.00703453 -0.00725733 -0.00759096 -0.00796319 -0.00832669 -0.00865347 -0.00892932 -0.00914917 -0.00931368 0.00242131 0.00203679 0.00169934 0.00139358 0.00109435 0.000769379 0.000382038 -0.000106459 -0.000735673 -0.00154528 -0.00257484 -0.00386694 -0.00573877 -0.00737219 -0.00933314 -0.0116293 -0.0142481 -0.0171511 -0.0202715 -0.0235144 -0.026762 -0.0298831 -0.0327451 -0.0351983 -0.0356462 -0.0369159 -0.0374362 -0.0371851 -0.0361722 -0.0344422 -0.0320752 -0.0291889 -0.0259381 -0.0225103 -0.0191139 -0.0160743 -0.0160646 -0.0128556 -0.0106185 -0.00921939 -0.00849424 -0.00826761 -0.00837458 -0.00867695 -0.00907021 -0.0094826 -0.00986959 -0.0102069 -0.0104839 -0.0106991 0.000924602 0.000538955 0.000196674 -0.00012045 -0.000441347 -0.00080266 -0.00124578 -0.00181454 -0.00255385 -0.00350908 -0.00472581 -0.00625208 -0.00835521 -0.0102853 -0.0125993 -0.0153039 -0.0183802 -0.0217791 -0.0254183 -0.0291844 -0.03294 -0.0365352 -0.0398212 -0.0426333 -0.0435421 -0.0450349 -0.0457338 -0.0456089 -0.0446599 -0.0429178 -0.0404453 -0.0373412 -0.0337449 -0.02984 -0.0258515 -0.0221693 -0.021226 -0.0170298 -0.0138977 -0.0117629 -0.0104918 -0.00990458 -0.00980805 -0.0100245 -0.0104101 -0.0108607 -0.0113082 -0.0117133 -0.0120569 -0.0123332 -0.000967356 -0.00134281 -0.00168214 -0.00200631 -0.00234777 -0.00274716 -0.00325025 -0.00390551 -0.00476278 -0.00587267 -0.00728624 -0.00905701 -0.0114221 -0.0136573 -0.0163307 -0.0194456 -0.0229749 -0.0268557 -0.0309883 -0.0352396 -0.0394529 -0.0434616 -0.0471046 -0.0502114 -0.0516039 -0.0532797 -0.0541379 -0.0541479 -0.053305 -0.0516307 -0.0491726 -0.0460083 -0.0422543 -0.0380765 -0.0336974 -0.029532 -0.0272692 -0.0221651 -0.0180923 -0.0151016 -0.0131365 -0.0120493 -0.0116386 -0.0116934 -0.012027 -0.0124951 -0.012998 -0.0134749 -0.0138939 -0.0142426 -0.00324114 -0.00359466 -0.00392268 -0.00424874 -0.00460837 -0.00504573 -0.00561036 -0.00635475 -0.00733298 -0.00860012 -0.0102117 -0.0122262 -0.0148702 -0.0174053 -0.0204274 -0.023934 -0.0278874 -0.0322094 -0.0367816 -0.0414516 -0.0460454 -0.0503837 -0.0542982 -0.0576222 -0.0594526 -0.0612651 -0.0622517 -0.0623877 -0.0616711 -0.0601204 -0.0577726 -0.0546873 -0.0509557 -0.0467161 -0.0421688 -0.0377035 -0.0339787 -0.0281565 -0.0231982 -0.0192989 -0.0165222 -0.0147964 -0.0139458 -0.0137436 -0.0139636 -0.0144161 -0.0149618 -0.0155106 -0.0160123 -0.0164445 -0.00585577 -0.00617598 -0.00648413 -0.00680607 -0.00717995 -0.00765279 -0.00827718 -0.00910883 -0.0102051 -0.0116246 -0.0134259 -0.0156711 -0.0185911 -0.021407 -0.0247498 -0.0286097 -0.0329367 -0.0376367 -0.0425733 -0.0475767 -0.0524589 -0.0570328 -0.0611288 -0.0645908 -0.066768 -0.0686711 -0.0697496 -0.0699896 -0.0693974 -0.0679942 -0.065813 -0.0629008 -0.0593267 -0.0551968 -0.0506735 -0.0460776 -0.0410658 -0.0347872 -0.0290988 -0.0243292 -0.0206839 -0.0182076 -0.0167922 -0.0162249 -0.0162539 -0.0166443 -0.0172108 -0.0178262 -0.018415 -0.0189406 -0.00874391 -0.00902058 -0.00930055 -0.00961169 -0.00999422 -0.0104974 -0.0111759 -0.012088 -0.0132932 -0.0148521 -0.0168252 -0.0192764 -0.0224469 -0.0255111 -0.0291315 -0.03329 -0.0379242 -0.0429248 -0.0481392 -0.0533837 -0.0584606 -0.0631796 -0.0673749 -0.070905 -0.0733244 -0.0752775 -0.0764122 -0.0767277 -0.0762412 -0.0749807 -0.0729809 -0.0702826 -0.0669385 -0.0630247 -0.0586589 -0.0540693 -0.0481995 -0.0417462 -0.0355587 -0.0300532 -0.0255667 -0.0222829 -0.020201 -0.0191616 -0.0189122 -0.0191821 -0.0197377 -0.0204076 -0.021084 -0.0217109 -0.0118167 -0.0120415 -0.0122857 -0.0125789 -0.0129629 -0.0134884 -0.0142118 -0.0151923 -0.016491 -0.0181692 -0.0202877 -0.0229098 -0.0262829 -0.0295519 -0.0333956 -0.0377874 -0.0426538 -0.0478721 -0.0532771 -0.0586749 -0.0638626 -0.0686503 -0.0728789 -0.0764227 -0.0789939 -0.0809646 -0.0821255 -0.0824878 -0.0820798 -0.0809381 -0.0791022 -0.0766129 -0.0735135 -0.0698571 -0.0657195 -0.0612375 -0.0550389 -0.0486653 -0.0422452 -0.0362168 -0.0310078 -0.0269356 -0.0241333 -0.0225341 -0.0219199 -0.0220036 -0.0225079 -0.0232134 -0.0239733 -0.0247063 -0.0149718 -0.0151387 -0.0153409 -0.015609 -0.0159859 -0.0165234 -0.0172785 -0.0183111 -0.0196824 -0.0214534 -0.0236838 -0.0264345 -0.029943 -0.0333655 -0.0373713 -0.0419265 -0.0469484 -0.0523046 -0.0578209 -0.063297 -0.0685285 -0.0733283 -0.0775447 -0.0810663 -0.0837264 -0.0856917 -0.0868568 -0.0872419 -0.0868842 -0.0858286 -0.0841214 -0.0818071 -0.0789264 -0.0755189 -0.0716295 -0.0673234 -0.0612703 -0.0551714 -0.0487748 -0.0424778 -0.0367407 -0.0319819 -0.0284704 -0.0262625 -0.0252121 -0.0250446 -0.0254523 -0.0261685 -0.0270026 -0.027843 -0.0181027 -0.0182088 -0.018364 -0.0186002 -0.0189608 -0.0194979 -0.0202687 -0.0213331 -0.0227517 -0.0245842 -0.0268882 -0.0297205 -0.0332828 -0.0368029 -0.0409071 -0.0455563 -0.0506617 -0.0560847 -0.061646 -0.0671428 -0.0723709 -0.0771471 -0.0813262 -0.0848075 -0.0875216 -0.0894682 -0.0906241 -0.0910146 -0.090683 -0.0896808 -0.0880615 -0.0858754 -0.0831667 -0.0799705 -0.0763148 -0.0722216 -0.0666416 -0.0609388 -0.054773 -0.0484575 -0.0424274 -0.0371515 -0.0330117 -0.0301981 -0.0286687 -0.0281952 -0.0284609 -0.0291593 -0.0300544 -0.0309995 -0.0211092 -0.0211542 -0.0212598 -0.0214582 -0.0217929 -0.0223159 -0.0230842 -0.0241571 -0.0255941 -0.0274532 -0.0297895 -0.0326543 -0.0361801 -0.0397404 -0.0438802 -0.0485583 -0.053683 -0.0591134 -0.0646687 -0.070146 -0.0753428 -0.0800789 -0.0842131 -0.0876511 -0.090406 -0.0923293 -0.0934705 -0.093856 -0.0935322 -0.0925555 -0.0909857 -0.0888808 -0.0862913 -0.0832561 -0.0797996 -0.075927 -0.0709835 -0.0657256 -0.0599264 -0.0537977 -0.0477071 -0.0421198 -0.0374891 -0.0341266 -0.032113 -0.0312976 -0.0313821 -0.0320335 -0.0329736 -0.0340178 -0.0239056 -0.0238923 -0.0239476 -0.0241035 -0.0244032 -0.0248979 -0.0256441 -0.0267001 -0.0281242 -0.0299726 -0.032298 -0.0351458 -0.0385412 -0.0420846 -0.0462007 -0.0508487 -0.0559379 -0.0613286 -0.0668413 -0.072275 -0.0774287 -0.0821234 -0.0862189 -0.0896226 -0.0924181 -0.0943209 -0.0954482 -0.0958244 -0.0954963 -0.0945236 -0.0929717 -0.0909061 -0.0883862 -0.0854596 -0.082157 -0.0784874 -0.0742108 -0.0693857 -0.0640127 -0.0582071 -0.0522474 -0.046552 -0.0415973 -0.0377859 -0.0353204 -0.0341512 -0.0340257 -0.034604 -0.0355721 -0.0367078 -0.0264274 -0.0263611 -0.0263675 -0.026478 -0.0267344 -0.0271868 -0.0278906 -0.028903 -0.0302811 -0.0320799 -0.03435 -0.037132 -0.0403032 -0.0437745 -0.0478118 -0.0523777 -0.0573858 -0.0627007 -0.0681468 -0.0735253 -0.0786363 -0.0832998 -0.0873729 -0.0907596 -0.0936016 -0.0954926 -0.0966118 -0.0969792 -0.0966403 -0.0956564 -0.0940977 -0.0920371 -0.0895435 -0.0866758 -0.083477 -0.0799724 -0.0763102 -0.0718607 -0.0669061 -0.0614837 -0.0557812 -0.0501444 -0.0450299 -0.0408913 -0.0380355 -0.0365234 -0.0361722 -0.0366561 -0.0376365 -0.0388557 -0.0286339 -0.028522 -0.0284831 -0.0285471 -0.0287535 -0.0291504 -0.0297914 -0.0307327 -0.0320306 -0.0337394 -0.0359093 -0.038577 -0.0414331 -0.0447796 -0.0486876 -0.0531262 -0.058016 -0.0632285 -0.0685933 -0.0739146 -0.0789919 -0.083642 -0.0877156 -0.0911091 -0.0940041 -0.095897 -0.0970177 -0.0973808 -0.097029 -0.0960242 -0.0944404 -0.0923572 -0.0898531 -0.0869986 -0.0838514 -0.0804592 -0.0773205 -0.0731601 -0.0685649 -0.0635167 -0.0581245 -0.0526537 -0.0475115 -0.0431636 -0.0399925 -0.0381647 -0.0375835 -0.0379577 -0.0389371 -0.0402328 -0.0305088 -0.0303604 -0.0302817 -0.0302999 -0.0304513 -0.0307807 -0.0313391 -0.0321815 -0.0333638 -0.0349411 -0.0369648 -0.0394704 -0.041925 -0.0450965 -0.0488295 -0.0531019 -0.0578436 -0.0629347 -0.068211 -0.0734793 -0.0785377 -0.0831969 -0.0872983 -0.0907261 -0.0936782 -0.0955907 -0.096726 -0.0970929 -0.0967301 -0.0956992 -0.0940771 -0.0919495 -0.0894033 -0.0865199 -0.0833714 -0.0800287 -0.077316 -0.0733411 -0.0690105 -0.064272 -0.0591746 -0.0539086 -0.0488186 -0.0443517 -0.0409346 -0.0388239 -0.038015 -0.0382682 -0.0392359 -0.0406038 -0.0320575 -0.0318829 -0.0317717 -0.0317467 -0.0318399 -0.0320911 -0.0325479 -0.0332633 -0.0342938 -0.0356967 -0.0375274 -0.0398233 -0.0417957 -0.0447449 -0.0482619 -0.0523352 -0.0569057 -0.0618629 -0.0670493 -0.0722736 -0.077331 -0.0820245 -0.0861833 -0.089676 -0.092684 -0.0946372 -0.0958035 -0.0961856 -0.0958177 -0.0947598 -0.0930909 -0.0909015 -0.0882856 -0.0853341 -0.0821307 -0.0787674 -0.0763928 -0.072491 -0.0683075 -0.0637733 -0.0588966 -0.053807 -0.0487861 -0.0442451 -0.0406271 -0.0382585 -0.0372235 -0.0373457 -0.0382927 -0.0397313 -0.0333032 -0.0331138 -0.0329784 -0.0329147 -0.032948 -0.0331118 -0.0334483 -0.0340085 -0.0348498 -0.0360343 -0.0376241 -0.0396629 -0.0410795 -0.0437621 -0.0470274 -0.0508753 -0.0552583 -0.0600755 -0.0651754 -0.0703682 -0.0754448 -0.0801988 -0.0844454 -0.0880353 -0.0910905 -0.0931086 -0.094326 -0.0947384 -0.0943752 -0.0932939 -0.0915741 -0.0893097 -0.0866002 -0.0835431 -0.0802307 -0.0767716 -0.0746612 -0.0707151 -0.0665464 -0.0620816 -0.0573053 -0.0523032 -0.0473034 -0.0426762 -0.0388634 -0.0362403 -0.034971 -0.0349482 -0.0358654 -0.0373762 -0.034282 -0.0340899 -0.0339401 -0.0338434 -0.0338164 -0.033884 -0.0340817 -0.0344575 -0.0350712 -0.0359917 -0.0372922 -0.0390273 -0.039823 -0.0421994 -0.0451832 -0.0487867 -0.0529734 -0.057651 -0.0626731 -0.0678501 -0.0729675 -0.0778084 -0.082173 -0.0858932 -0.088977 -0.091087 -0.0923786 -0.0928405 -0.0924963 -0.0913998 -0.0896299 -0.0872818 -0.0844579 -0.0812597 -0.0777841 -0.0741495 -0.0722403 -0.0681283 -0.0638312 -0.0592786 -0.0544449 -0.0493893 -0.0443005 -0.0395135 -0.0354617 -0.032554 -0.0310234 -0.030832 -0.0317068 -0.0332931 -0.0350383 -0.0348568 -0.0347034 -0.0345803 -0.034493 -0.0344552 -0.0344941 -0.0346547 -0.0350003 -0.0356104 -0.0365737 -0.0379607 -0.0380811 -0.0401173 -0.042798 -0.0461468 -0.0501368 -0.0546826 -0.059641 -0.0648211 -0.0700024 -0.0749563 -0.0794681 -0.0833511 -0.0864341 -0.0886644 -0.0900562 -0.0905904 -0.0902837 -0.0891854 -0.0873712 -0.0849352 -0.0819801 -0.0786077 -0.0749148 -0.0710218 -0.0692537 -0.0648494 -0.0602703 -0.0554532 -0.0503728 -0.045077 -0.0397318 -0.0346489 -0.0302564 -0.0269908 -0.0251437 -0.0247441 -0.0255572 -0.0272228 -0.035621 -0.0354649 -0.0353203 -0.0351778 -0.0350292 -0.0348745 -0.0347314 -0.0346424 -0.0346772 -0.0349299 -0.0355098 -0.0365087 -0.0359131 -0.0375838 -0.0399492 -0.0430431 -0.0468456 -0.0512755 -0.0561901 -0.0613958 -0.0666649 -0.0717578 -0.0764441 -0.0805205 -0.0835619 -0.0859412 -0.0874611 -0.0880933 -0.0878467 -0.0867639 -0.0849159 -0.0823927 -0.0792937 -0.0757168 -0.071754 -0.0675176 -0.0658245 -0.0609954 -0.0559692 -0.0506918 -0.0451459 -0.0393816 -0.033559 -0.0279823 -0.0230859 -0.0193373 -0.0170827 -0.0164132 -0.0171342 -0.0188816 -0.0360811 -0.0359685 -0.0358466 -0.0356916 -