# vtk DataFile Version 2.0
Velocidades
ASCII

DATASET STRUCTURED_GRID
DIMENSIONS   50   50   20

POINTS   50000   double
0.00568455   0.00568455   0.025
0.0174023   0.00568455   0.025
0.0298294   0.00568455   0.025
0.0429888   0.00568455   0.025
0.0569012   0.00568455   0.025
0.0715849   0.00568455   0.025
0.0870549   0.00568455   0.025
0.103323   0.00568455   0.025
0.120395   0.00568455   0.025
0.138275   0.00568455   0.025
0.156961   0.00568455   0.025
0.176443   0.00568455   0.025
0.196707   0.00568455   0.025
0.217734   0.00568455   0.025
0.239496   0.00568455   0.025
0.261959   0.00568455   0.025
0.285082   0.00568455   0.025
0.308818   0.00568455   0.025
0.333113   0.00568455   0.025
0.357906   0.00568455   0.025
0.383132   0.00568455   0.025
0.408719   0.00568455   0.025
0.434592   0.00568455   0.025
0.460672   0.00568455   0.025
0.486877   0.00568455   0.025
0.513123   0.00568455   0.025
0.539328   0.00568455   0.025
0.565408   0.00568455   0.025
0.591281   0.00568455   0.025
0.616868   0.00568455   0.025
0.642094   0.00568455   0.025
0.666887   0.00568455   0.025
0.691182   0.00568455   0.025
0.714918   0.00568455   0.025
0.738041   0.00568455   0.025
0.760504   0.00568455   0.025
0.782266   0.00568455   0.025
0.803293   0.00568455   0.025
0.823557   0.00568455   0.025
0.843039   0.00568455   0.025
0.861725   0.00568455   0.025
0.879605   0.00568455   0.025
0.896677   0.00568455   0.025
0.912945   0.00568455   0.025
0.928415   0.00568455   0.025
0.943099   0.00568455   0.025
0.957011   0.00568455   0.025
0.970171   0.00568455   0.025
0.982598   0.00568455   0.025
0.994315   0.00568455   0.025
0.00568455   0.0174023   0.025
0.0174023   0.0174023   0.025
0.0298294   0.0174023   0.025
0.0429888   0.0174023   0.025
0.0569012   0.0174023   0.025
0.0715849   0.0174023   0.025
0.0870549   0.0174023   0.025
0.103323   0.0174023   0.025
0.120395   0.0174023   0.025
0.138275   0.0174023   0.025
0.156961   0.0174023   0.025
0.176443   0.0174023   0.025
0.196707   0.0174023   0.025
0.217734   0.0174023   0.025
0.239496   0.0174023   0.025
0.261959   0.0174023   0.025
0.285082   0.0174023   0.025
0.308818   0.0174023   0.025
0.333113   0.0174023   0.025
0.357906   0.0174023   0.025
0.383132   0.0174023   0.025
0.408719   0.0174023   0.025
0.434592   0.0174023   0.025
0.460672   0.0174023   0.025
0.486877   0.0174023   0.025
0.513123   0.0174023   0.025
0.539328   0.0174023   0.025
0.565408   0.0174023   0.025
0.591281   0.0174023   0.025
0.616868   0.0174023   0.025
0.642094   0.0174023   0.025
0.666887   0.0174023   0.025
0.691182   0.0174023   0.025
0.714918   0.0174023   0.025
0.738041   0.0174023   0.025
0.760504   0.0174023   0.025
0.782266   0.0174023   0.025
0.803293   0.0174023   0.025
0.823557   0.0174023   0.025
0.843039   0.0174023   0.025
0.861725   0.0174023   0.025
0.879605   0.0174023   0.025
0.896677   0.0174023   0.025
0.912945   0.0174023   0.025
0.928415   0.0174023   0.025
0.943099   0.0174023   0.025
0.957011   0.0174023   0.025
0.970171   0.0174023   0.025
0.982598   0.0174023   0.025
0.994315   0.0174023   0.025
0.00568455   0.0298294   0.025
0.0174023   0.0298294   0.025
0.0298294   0.0298294   0.025
0.0429888   0.0298294   0.025
0.0569012   0.0298294   0.025
0.0715849   0.0298294   0.025
0.0870549   0.0298294   0.025
0.103323   0.0298294   0.025
0.120395   0.0298294   0.025
0.138275   0.0298294   0.025
0.156961   0.0298294   0.025
0.176443   0.0298294   0.025
0.196707   0.0298294   0.025
0.217734   0.0298294   0.025
0.239496   0.0298294   0.025
0.261959   0.0298294   0.025
0.285082   0.0298294   0.025
0.308818   0.0298294   0.025
0.333113   0.0298294   0.025
0.357906   0.0298294   0.025
0.383132   0.0298294   0.025
0.408719   0.0298294   0.025
0.434592   0.0298294   0.025
0.460672   0.0298294   0.025
0.486877   0.0298294   0.025
0.513123   0.0298294   0.025
0.539328   0.0298294   0.025
0.565408   0.0298294   0.025
0.591281   0.0298294   0.025
0.616868   0.0298294   0.025
0.642094   0.0298294   0.025
0.666887   0.0298294   0.025
0.691182   0.0298294   0.025
0.714918   0.0298294   0.025
0.738041   0.0298294   0.025
0.760504   0.0298294   0.025
0.782266   0.0298294   0.025
0.803293   0.0298294   0.025
0.823557   0.0298294   0.025
0.843039   0.0298294   0.025
0.861725   0.0298294   0.025
0.879605   0.0298294   0.025
0.896677   0.0298294   0.025
0.912945   0.0298294   0.025
0.928415   0.0298294   0.025
0.943099   0.0298294   0.025
0.957011   0.0298294   0.025
0.970171   0.0298294   0.025
0.982598   0.0298294   0.025
0.994315   0.0298294   0.025
0.00568455   0.0429888   0.025
0.0174023   0.0429888   0.025
0.0298294   0.0429888   0.025
0.0429888   0.0429888   0.025
0.0569012   0.0429888   0.025
0.0715849   0.0429888   0.025
0.0870549   0.0429888   0.025
0.103323   0.0429888   0.025
0.120395   0.0429888   0.025
0.138275   0.0429888   0.025
0.156961   0.0429888   0.025
0.176443   0.0429888   0.025
0.196707   0.0429888   0.025
0.217734   0.0429888   0.025
0.239496   0.0429888   0.025
0.261959   0.0429888   0.025
0.285082   0.0429888   0.025
0.308818   0.0429888   0.025
0.333113   0.0429888   0.025
0.357906   0.0429888   0.025
0.383132   0.0429888   0.025
0.408719   0.0429888   0.025
0.434592   0.0429888   0.025
0.460672   0.0429888   0.025
0.486877   0.0429888   0.025
0.513123   0.0429888   0.025
0.539328   0.0429888   0.025
0.565408   0.0429888   0.025
0.591281   0.0429888   0.025
0.616868   0.0429888   0.025
0.642094   0.0429888   0.025
0.666887   0.0429888   0.025
0.691182   0.0429888   0.025
0.714918   0.0429888   0.025
0.738041   0.0429888   0.025
0.760504   0.0429888   0.025
0.782266   0.0429888   0.025
0.803293   0.0429888   0.025
0.823557   0.0429888   0.025
0.843039   0.0429888   0.025
0.861725   0.0429888   0.025
0.879605   0.0429888   0.025
0.896677   0.0429888   0.025
0.912945   0.0429888   0.025
0.928415   0.0429888   0.025
0.943099   0.0429888   0.025
0.957011   0.0429888   0.025
0.970171   0.0429888   0.025
0.982598   0.0429888   0.025
0.994315   0.0429888   0.025
0.00568455   0.0569012   0.025
0.0174023   0.0569012   0.025
0.0298294   0.0569012   0.025
0.0429888   0.0569012   0.025
0.0569012   0.0569012   0.025
0.0715849   0.0569012   0.025
0.0870549   0.0569012   0.025
0.103323   0.0569012   0.025
0.120395   0.0569012   0.025
0.138275   0.0569012   0.025
0.156961   0.0569012   0.025
0.176443   0.0569012   0.025
0.196707   0.0569012   0.025
0.217734   0.0569012   0.025
0.239496   0.0569012   0.025
0.261959   0.0569012   0.025
0.285082   0.0569012   0.025
0.308818   0.0569012   0.025
0.333113   0.0569012   0.025
0.357906   0.0569012   0.025
0.383132   0.0569012   0.025
0.408719   0.0569012   0.025
0.434592   0.0569012   0.025
0.460672   0.0569012   0.025
0.486877   0.0569012   0.025
0.513123   0.0569012   0.025
0.539328   0.0569012   0.025
0.565408   0.0569012   0.025
0.591281   0.0569012   0.025
0.616868   0.0569012   0.025
0.642094   0.0569012   0.025
0.666887   0.0569012   0.025
0.691182   0.0569012   0.025
0.714918   0.0569012   0.025
0.738041   0.0569012   0.025
0.760504   0.0569012   0.025
0.782266   0.0569012   0.025
0.803293   0.0569012   0.025
0.823557   0.0569012   0.025
0.843039   0.0569012   0.025
0.861725   0.0569012   0.025
0.879605   0.0569012   0.025
0.896677   0.0569012   0.025
0.912945   0.0569012   0.025
0.928415   0.0569012   0.025
0.943099   0.0569012   0.025
0.957011   0.0569012   0.025
0.970171   0.0569012   0.025
0.982598   0.0569012   0.025
0.994315   0.0569012   0.025
0.00568455   0.0715849   0.025
0.0174023   0.0715849   0.025
0.0298294   0.0715849   0.025
0.0429888   0.0715849   0.025
0.0569012   0.0715849   0.025
0.0715849   0.0715849   0.025
0.0870549   0.0715849   0.025
0.103323   0.0715849   0.025
0.120395   0.0715849   0.025
0.138275   0.0715849   0.025
0.156961   0.0715849   0.025
0.176443   0.0715849   0.025
0.196707   0.0715849   0.025
0.217734   0.0715849   0.025
0.239496   0.0715849   0.025
0.261959   0.0715849   0.025
0.285082   0.0715849   0.025
0.308818   0.0715849   0.025
0.333113   0.0715849   0.025
0.357906   0.0715849   0.025
0.383132   0.0715849   0.025
0.408719   0.0715849   0.025
0.434592   0.0715849   0.025
0.460672   0.0715849   0.025
0.486877   0.0715849   0.025
0.513123   0.0715849   0.025
0.539328   0.0715849   0.025
0.565408   0.0715849   0.025
0.591281   0.0715849   0.025
0.616868   0.0715849   0.025
0.642094   0.0715849   0.025
0.666887   0.0715849   0.025
0.691182   0.0715849   0.025
0.714918   0.0715849   0.025
0.738041   0.0715849   0.025
0.760504   0.0715849   0.025
0.782266   0.0715849   0.025
0.803293   0.0715849   0.025
0.823557   0.0715849   0.025
0.843039   0.0715849   0.025
0.861725   0.0715849   0.025
0.879605   0.0715849   0.025
0.896677   0.0715849   0.025
0.912945   0.0715849   0.025
0.928415   0.0715849   0.025
0.943099   0.0715849   0.025
0.957011   0.0715849   0.025
0.970171   0.0715849   0.025
0.982598   0.0715849   0.025
0.994315   0.0715849   0.025
0.00568455   0.0870549   0.025
0.0174023   0.0870549   0.025
0.0298294   0.0870549   0.025
0.0429888   0.0870549   0.025
0.0569012   0.0870549   0.025
0.0715849   0.0870549   0.025
0.0870549   0.0870549   0.025
0.103323   0.0870549   0.025
0.120395   0.0870549   0.025
0.138275   0.0870549   0.025
0.156961   0.0870549   0.025
0.176443   0.0870549   0.025
0.196707   0.0870549   0.025
0.217734   0.0870549   0.025
0.239496   0.0870549   0.025
0.261959   0.0870549   0.025
0.285082   0.0870549   0.025
0.308818   0.0870549   0.025
0.333113   0.0870549   0.025
0.357906   0.0870549   0.025
0.383132   0.0870549   0.025
0.408719   0.0870549   0.025
0.434592   0.0870549   0.025
0.460672   0.0870549   0.025
0.486877   0.0870549   0.025
0.513123   0.0870549   0.025
0.539328   0.0870549   0.025
0.565408   0.0870549   0.025
0.591281   0.0870549   0.025
0.616868   0.0870549   0.025
0.642094   0.0870549   0.025
0.666887   0.0870549   0.025
0.691182   0.0870549   0.025
0.714918   0.0870549   0.025
0.738041   0.0870549   0.025
0.760504   0.0870549   0.025
0.782266   0.0870549   0.025
[...]
POINT_DATA   50000
VECTORS Velocidades double

-7.64924e-05 -0.00168097 0
-0.000206984 -0.00330138 0
-0.000284301 -0.00421352 0
-0.000312808 -0.0047259 0
-0.00032015 -0.00496356 0
-0.000333434 -0.00498971 0
-0.00037328 -0.00484319 0
-0.000454169 -0.00455155 0
-0.000585866 -0.00413578 0
-0.00077494 -0.00361103 0
-0.00102681 -0.0029836 0
-0.00115226 -0.00223737 0
-0.00133156 -0.00127388 0
-0.00177239 -0.00054949 0
-0.00228829 5.43748e-05 0
-0.00285187 0.000564483 0
-0.00345379 0.000977814 0
-0.00408497 0.00127755 0
-0.00473235 0.00144134 0
-0.00537701 0.00144784 0
-0.00599364 0.00128253 0
-0.00655105 0.000942773 0
-0.00701492 0.000441248 0
-0.00733973 -0.000191585 0
-0.00748368 -0.000895828 0
-0.00741868 -0.00160436 0
-0.00712747 -0.00223811 0
-0.00661381 -0.00272289 0
-0.00590162 -0.00299511 0
-0.00503553 -0.00301043 0
-0.00407671 -0.00275102 0
-0.00309487 -0.00222911 0
-0.00215812 -0.00148617 0
-0.00132305 -0.000588618 0
-0.000626226 0.000377107 0
-0.000235709 0.00130277 0
4.23529e-06 0.00202937 0
0.000273797 0.00287027 0
0.000438426 0.00366815 0
0.000504268 0.00436417 0
0.000491039 0.00493249 0
0.000418501 0.00536125 0
0.000304865 0.00564438 0
0.000167274 0.0057771 0
2.28583e-05 0.00575267 0
-0.000109817 0.00555846 0
-0.000208969 0.00516897 0
-0.00024865 0.00452985 0
-0.000204473 0.00351473 0
-7.94126e-05 0.00178783 0
-0.000255923 -0.00309032 0
-0.000674273 -0.00644034 0
-0.000890863 -0.00837593 0
-0.000947323 -0.00944975 0
-0.00094822 -0.00992831 0
-0.000976219 -0.00995589 0
-0.00109009 -0.00962214 0
-0.00133101 -0.00898986 0
-0.00172751 -0.00810583 0
-0.00229973 -0.00700284 0
-0.00306556 -0.00569305 0
-0.0034008 -0.00413964 0
-0.00396268 -0.00216195 0
-0.00538653 -0.000668492 0
-0.00699349 0.000568796 0
-0.00874734 0.00161071 0
-0.010623 0.00245245 0
-0.01259 0.00305817 0
-0.0146031 0.0033795 0
-0.0165972 0.00336959 0
-0.0184874 0.00299565 0
-0.0201719 0.00224973 0
-0.0215402 0.00115688 0
-0.022464 -0.00021965 0
-0.0228242 -0.00177895 0
-0.0225419 -0.00335123 0
-0.0215845 -0.00477481 0
-0.0199772 -0.00589129 0
-0.0177987 -0.00656132 0
-0.0151815 -0.00668458 0
-0.0123008 -0.00621663 0
-0.00935415 -0.00517777 0
-0.00653532 -0.00365237 0
-0.00400912 -0.00178046 0
-0.0018879 0.000251913 0
-0.000734509 0.00220799 0
4.42239e-06 0.00375722 0
0.000885012 0.00553852 0
0.00140561 0.00723018 0
0.00161474 0.00870665 0
0.00157403 0.00991448 0
0.00134381 0.0108297 0
0.000980444 0.0114394 0
0.00053771 0.0117326 0
6.94964e-05 0.0116924 0
-0.000366306 0.0112876 0
-0.000702064 0.0104571 0
-0.00085286 0.00907593 0
-0.000719027 0.00687842 0
-0.000283992 0.00327426 0
-0.000184624 -0.00261105 0
-0.000586654 -0.00604751 0
-0.000957855 -0.00817103 0
-0.00121696 -0.00934818 0
-0.00142499 -0.0098376 0
-0.00167359 -0.0098086 0
-0.00204605 -0.00937529 0
-0.0026086 -0.00861886 0
-0.00341142 -0.0075985 0
-0.00449273 -0.00635388 0
-0.00588466 -0.00489799 0
-0.00651504 -0.00318998 0
-0.00748466 -0.00108467 0
-0.00987781 0.000524661 0
-0.0125673 0.00184569 0
-0.0155085 0.00294937 0
-0.0186549 0.00383202 0
-0.0219464 0.00445169 0
-0.0252982 0.00475028 0
-0.0285946 0.00467017 0
-0.0316889 0.00416885 0
-0.0344099 0.00323194 0
-0.0365738 0.00188358 0
-0.0380113 0.000191459 0
-0.0385258 -0.00176797 0
-0.0379806 -0.0037576 0
-0.0363639 -0.00559889 0
-0.0337229 -0.00710707 0
-0.0301847 -0.00811193 0
-0.0259547 -0.00848381 0
-0.0213 -0.00815603 0
-0.0165201 -0.00713801 0
-0.0119111 -0.00551706 0
-0.00772884 -0.00345079 0
-0.00415493 -0.00115754 0
-0.00218871 0.00107962 0
-0.000908209 0.00289882 0
0.000645992 0.00495121 0
0.00161741 0.00689941 0
0.00208961 0.00860256 0
0.00215782 0.0100023 0
0.0019176 0.0110725 0
0.00146206 0.0117973 0
0.000882986 0.01216 0
0.00027334 0.0121345 0
-0.000270002 0.0116754 0
-0.000645804 0.010702 0
-0.000758673 0.0090719 0
-0.000563944 0.0065425 0
-0.000194743 0.0027538 0
-0.000116682 -0.00226452 0
-0.000448768 -0.00557556 0
-0.000898069 -0.00776975 0
-0.00136963 -0.009011 0
-0.00187364 -0.00949357 0
-0.00247455 -0.00938452 0
-0.00325201 -0.00881497 0
-0.00428135 -0.00788508 0
-0.00562664 -0.00666935 0
-0.00734021 -0.00521762 0
-0.00946397 -0.00354829 0
-0.0104545 -0.00162762 0
-0.0118662 0.000648799 0
-0.0152545 0.00242404 0
-0.0190397 0.00387808 0
-0.0231749 0.00508073 0
-0.0275919 0.00602455 0
-0.0321967 0.00665734 0
-0.03686 0.00690665 0
-0.0414122 0.00669953 0
-0.0456449 0.00598021 0
-0.0493203 0.00472608 0
-0.0521881 0.00296078 0
-0.054074 0.000758729 0
-0.0547025 -0.00179905 0
-0.0538754 -0.0044185 0
-0.0516306 -0.00688703 0
-0.0480338 -0.0089819 0
-0.0432503 -0.0104899 0
-0.0375418 -0.011241 0
-0.0312461 -0.0111372 0
-0.0247429 -0.0101717 0
-0.0184124 -0.00843383 0
-0.0125897 -0.00610319 0
-0.00752663 -0.00343925 0
-0.00471543 -0.000779253 0
-0.00284824 0.00147417 0
-0.000524355 0.00394263 0
0.00101355 0.00627546 0
0.00188298 0.00831964 0
0.00220731 0.0100099 0
0.0021116 0.0113144 0
0.00172108 0.0122102 0
0.00116068 0.0126709 0
0.000554233 0.0126583 0
2.13566e-05 0.0121135 0
-0.000332262 0.0109479 0
-0.000438206 0.00903666 0
-0.000309779 0.00622947 0
-9.77534e-05 0.00241842 0
-8.37151e-05 -0.0020204 0
-0.000380481 -0.00508164 0
-0.000896849 -0.00718322 0
-0.00157734 -0.00837491 0
-0.00241558 -0.00878037 0
-0.00344893 -0.00854153 0
-0.00473916 -0.00779047 0
-0.00635551 -0.00663866 0
-0.00836426 -0.00517365 0
-0.0108234 -0.0034567 0
-0.0137779 -0.00151687 0
-0.0151825 0.000661923 0
-0.0170728 0.00313844 0
-0.0215028 0.00512251 0
-0.0264141 0.00675613 0
-0.03176 0.00809336 0
-0.0374523 0.00911429 0
-0.0433611 0.00975087 0
-0.0493107 0.00991175 0
-0.0550769 0.00950504 0
-0.0603922 0.00845952 0
-0.0649586 0.00674427 0
-0.0684691 0.00438464 0
-0.0707622 0.00146877 0
-0.0714898 -0.00188966 0
-0.070401 -0.00534727 0
-0.0675944 -0.00864959 0
-0.0631456 -0.0115263 0
-0.0572439 -0.0137109 0
-0.0501894 -0.0149831 0
-0.0423708 -0.0152051 0
-0.0342305 -0.014347 0
-0.0262191 -0.0124967 0
-0.0187466 -0.00985573 0
-0.0121387 -0.00672786 0
-0.00845016 -0.00350694 0
-0.00594446 -0.00064309 0
-0.00272723 0.00238742 0
-0.000483145 0.00523065 0
0.000935823 0.00772872 0
0.00167507 0.00980884 0
0.00188224 0.0114295 0
0.00170743 0.0125565 0
0.00130011 0.013152 0
0.000803389 0.0131673 0
0.000344798 0.0125397 0
2.16505e-05 0.0111927 0
-0.000119698 0.00904778 0
-0.000104859 0.00605609 0
-3.33345e-05 0.00226017 0
-7.79252e-05 -0.00181184 0
-0.000390845 -0.00453571 0
-0.00101074 -0.00639047 0
-0.00192465 -0.00738717 0
-0.00313217 -0.00760377 0
-0.00465627 -0.00715327 0
-0.00654038 -0.00615706 0
-0.00884002 -0.00472786 0
-0.0116142 -0.00296046 0
-0.0149177 -0.000926209 0
-0.0187925 0.00133178 0
-0.0206569 0.00380462 0
-0.0230611 0.00650126 0
-0.0285883 0.00872909 0
-0.0346666 0.010582 0
-0.0412483 0.0120834 0
-0.0482251 0.0131898 0
-0.055432 0.0138105 0
-0.0626475 0.0138308 0
-0.0695957 0.0131373 0
-0.0759557 0.011643 0
-0.0813786 0.00931029 0
-0.0855129 0.00617044 0
-0.0881993 0.00233416 0
-0.0890402 -0.00203333 0
-0.0877609 -0.00653124 0
-0.0845034 -0.010872 0
-0.0793391 -0.0147302 0
-0.0724644 -0.0177768 0
-0.0641985 -0.0197319 0
-0.0549634 -0.0204085 0
-0.0452493 -0.0197443 0
-0.0355691 -0.0178181 0
-0.0264068 -0.0148487 0
-0.0181699 -0.0111817 0
-0.0135597 -0.00726768 0
-0.010351 -0.0036117 0
-0.00608746 0.000125182 0
-0.00296941 0.00360282 0
-0.000826354 0.00666888 0
0.000500426 0.00924345 0
0.00117296 0.0112715 0
0.00135826 0.0127045 0
0.00122209 0.0134928 0
0.000918795 0.0135829 0
0.000578935 0.0129185 0
0.00029589 0.0114492 0
0.000114729 0.00914788 0
3.0365e-05 0.00603783 0
4.38576e-06 0.00222408 0
-9.02375e-05 -0.0015826 0
-0.000465987 -0.00386673 0
-0.00124337 -0.00532648 0
-0.00243825 -0.00597351 0
-0.00406151 -0.00586676 0
-0.00613082 -0.00509818 0
-0.0086756 -0.00377472 0
-0.0117361 -0.00200279 0
-0.015359 0.000122216 0
-0.0195896 0.00252198 0
-0.0244612 0.00513837 0
-0.0268232 0.00793364 0
-0.0297731 0.0108649 0
-0.0364544 0.0133645 0
-0.0437445 0.0154679 0
-0.0515911 0.0171537 0
-0.0598655 0.018344 0
-0.0683689 0.0189178 0
-0.0768377 0.0187333 0
-0.0849505 0.0176546 0
-0.0923423 0.01558 0
-0.0986248 0.0124687 0
-0.103415 0.00836298 0
-0.106509 0.00340308 0
-0.107508 -0.00218763 0
-0.10617 -0.00792065 0
-0.102623 -0.0135058 0
-0.0969184 -0.0185557 0
-0.0892397 -0.0226705 0
-0.0799066 -0.0255007 0
-0.0693567 -0.0267986 0
-0.0581157 -0.0264568 0
-0.0467532 -0.0245322 0
-0.0358303 -0.0212506 0
-0.0258457 -0.0169922 0
-0.0202509 -0.0122622 0
-0.0162565 -0.00762935 0
-0.0107578 -0.00304773 0
-0.00656343 0.00118686 0
-0.00349385 0.00494079 0
-0.00138874 0.00812679 0
-8.03936e-05 0.0106718 0
0.00060855 0.0125098 0
0.000855421 0.0135798 0
0.000824015 0.0138276 0
0.00065157 0.0132102 0
0.000439011 0.0117057 0
0.000247644 0.00932755 0
0.000105512 0.0061397 0
2.42775e-05 0.00226377 0
-0.00011495 -0.00128814 0
-0.000591748 -0.00299144 0
-0.00158162 -0.00389756 0
-0.00311473 -0.00403416 0
-0.00520906 -0.00345844 0
-0.00787928 -0.00225094 0
-0.011144 -0.000505099 0
-0.015029 0.00168325 0
-0.0195668 0.00422364 0
-0.0247899 0.00703474 0
-0.0307203 0.0100443 0
-0.033609 0.0131849 0
-0.0371314 0.016362 0
-0.0450184 0.019156 0
-0.0535629 0.021532 0
-0.0627032 0.0234118 0
-0.0722894 0.024673 0
-0.0820919 0.0251581 0
-0.0918113 0.0246954 0
-0.10109 0.023127 0
-0.10953 0.0203394 0
-0.116717 0.0162929 0
-0.122247 0.0110449 0
-0.125788 0.00476736 0
-0.12702 -0.00226289 0
-0.125817 -0.00941901 0
-0.122196 -0.0164602 0
-0.116167 -0.0229296 0
-0.107885 -0.028348 0
-0.0976477 -0.0322865 0
-0.0858934 -0.0344222 0
-0.0731701 -0.0345857 0
-0.0600989 -0.0327937 0
-0.0473202 -0.0292616 0
-0.0354351 -0.0243916 0
-0.0287737 -0.0187384 0
-0.0238891 -0.0129432 0
-0.0169211 -0.00738966 0
-0.0114048 -0.00227594 0
-0.0071711 0.00229792 0
-0.00407246 0.00623393 0
-0.00194357 0.00943384 0
-0.000600358 0.0118088 0
0.000145831 0.0132855 0
0.000471776 0.0138101 0
0.000529241 0.0133531 0
0.000437815 0.0119166 0
0.000285015 0.00954102 0
0.000133414 0.0063098 0
3.22501e-05 0.00234494 0
-0.000148705 -0.000891021 0
-0.000757165 -0.00182569 0
-0.00200878 -0.00199673 0
-0.00393666 -0.00145192 0
-0.0065587 -0.000254735 0
-0.00988421 0.00151953 0
-0.0139213 0.00378938 0
-0.0186823 0.0064722 0
-0.0241852 0.00948686 0
-0.030449 0.012753 0
-0.0374833 0.0161866 0
-0.0409182 0.0196916 0
-0.0450326 0.0231253 0
-0.054167 0.0262317 0
-0.0640004 0.0288934 0
-0.0744576 0.0309659 0
-0.0853674 0.0322742 0
-0.0964742 0.0326203 0
-0.107451 0.0318015 0
-0.117914 0.02964 0
-0.127447 0.0260143 0
-0.13562 0.0208894 0
-0.142019 0.0143398 0
-0.146063 0.00656595 0
-0.147629 -0.00211488 0
-0.146809 -0.0108775 0
-0.143376 -0.0195968 0
-0.137282 -0.0277354 0
-0.128632 -0.0347287 0
-0.11769 -0.0400574 0
-0.104871 -0.043308 0
-0.0907316 -0.0442275 0
-0.0759348 -0.0427678 0
-0.0611996 -0.0391092 0
-0.0472381 -0.0336556 0
-0.0394164 -0.0270002 0
-0.0335148 -0.0198623 0
-0.0247885 -0.013228 0
-0.0176518 -0.00711063 0
-0.0119736 -0.00156373 0
-0.00763515 0.00329333 0
-0.00447981 0.00732446 0
-0.00231697 0.0104095 0
-0.000942918 0.0124581 0
-0.000161165 0.0134142 0
0.000203325 0.013258 0
0.000297319 0.0120083 0
0.000239374 0.00972234 0
0.000124718 0.00649314 0
3.19322e-05 0.00244131 0
-0.000189301 -0.000358005 0
-0.000953524 -0.000288649 0
-0.00250769 0.000485596 0
-0.00487954 0.00189712 0
-0.0080798 0.00387439 0
-0.0121081 0.00634584 0
-0.0169603 0.00924251 0
-0.0226351 0.0124979 0
-0.0291365 0.0160443 0
-0.0364706 0.0198065 0
-0.0446351 0.0236918 0
-0.0486256 0.0275783 0
-0.0533429 0.0312801 0
-0.0637507 0.0347132 0
-0.0748933 0.0376659 0
-0.086679 0.0399195 0
-0.0989168 0.0412426 0
-0.111331 0.0413944 0
-0.123575 0.0401428 0
-0.135253 0.0372928 0
-0.14594 0.032719 0
-0.155203 0.0263936 0
-0.162621 0.0184071 0
-0.167229 0.00897985 0
-0.169241 -0.00154545 0
-0.169092 -0.012097 0
-0.166142 -0.0227279 0
-0.160276 -0.0328072 0
-0.151541 -0.0416817 0
-0.140143 -0.0487339 0
-0.126457 -0.0534433 0
-0.111025 -0.0554494 0
-0.094533 -0.0546085 0
-0.0777688 -0.0510323 0
-0.0615581 -0.045096 0
-0.0524884 -0.0374102 0
-0.0454251 -0.0287702 0
-0.0345899 -0.0209741 0
-0.0254754 -0.0137212 0
-0.0180246 -0.007016 0
-0.0121642 -0.00102227 0
-0.00774976 0.00406571 0
-0.0045813 0.00808308 0
-0.00243377 0.010914 0
-0.00108283 0.0124945 0
-0.000321922 0.0128089 0
2.94039e-05 0.0118865 0
0.000123663 0.00979557 0
8.76109e-05 0.00663623 0
2.56741e-05 0.00253169 0
-0.000234954 0.000340864 0
-0.00117288 0.00169444 0
-0.00306033 0.00365363 0
-0.00591361 0.00613286 0
-0.00973029 0.00905464 0
-0.0144957 0.0123538 0
-0.0201911 0.0159775 0
-0.0268007 0.0198799 0
-0.034315 0.0240118 0
-0.042728 0.0283074 0
-0.0520275 0.032669 0
-0.0565721 0.0369532 0
-0.0618923 0.0409372 0
-0.0735782 0.0447078 0
-0.0860294 0.0479489 0
-0.0991363 0.0503639 0
-0.112691 0.0516635 0
-0.126403 0.0515652 0
-0.139918 0.0498099 0
-0.152836 0.0461897 0
-0.164734 0.0405781 0
-0.175181 0.0329551 0
-0.18376 0.0234237 0
-0.188978 0.0122152 0
-0.191542 -0.000315421 0
-0.192354 -0.0128399 0
-0.190192 -0.0256217 0
-0.184874 -0.0379248 0
-0.176382 -0.0490121 0
-0.16485 -0.0581639 0
-0.150585 -0.0647405 0
-0.134083 -0.0682502 0
-0.116024 -0.0684186 0
-0.0972382 -0.0652463 0
-0.0786536 -0.0590365 0
-0.0682854 -0.0503803 0
-0.05991 -0.0401327 0
-0.0465566 -0.0311329 0
-0.035051 -0.0225982 0
-0.0254541 -0.0145055 0
-0.0177532 -0.00710335 0
-0.0118171 -0.0006735 0
-0.00743244 0.00455582 0
-0.00434561 0.00843169 0
-0.00229639 0.010874 0
-0.00103912 0.0118656 0
-0.00035398 0.0114418 0
-5.1339e-05 0.00967965 0
2.81346e-05 0.00668801 0
1.50696e-05 0.00259828 0
-0.000283876 0.00123162 0
-0.00140685 0.00418867 0
-0.00364655 0.00759866 0
-0.00700344 0.0113607 0
-0.0114574 0.0153959 0
-0.0169756 0.0196515 0
-0.0235223 0.0240974 0
-0.0310662 0.0287151 0
-0.0395848 0.0334803 0
-0.0490614 0.0383419 0
-0.0594756 0.0432018 0
-0.0645609 0.0478993 0
-0.0704711 0.0521824 0
-0.0834114 0.0562971 0
-0.0971417 0.0598169 0
-0.111534 0.0623667 0
-0.126367 0.0636009 0
-0.141343 0.0631987 0
-0.156104 0.0608778 0
-0.170256 0.0564205 0
-0.183383 0.0497016 0
-0.195064 0.0407087 0
-0.204888 0.0295537 0
-0.210722 0.0164725 0
-0.213917 0.00182688 0
-0.215945 -0.0128549 0
-0.21485 -0.0280158 0
-0.210408 -0.0428161 0
-0.202532 -0.0564485 0
-0.191268 -0.0680966 0
-0.176828 -0.0769971 0
-0.159625 -0.0825083 0
-0.140282 -0.084191 0
-0.11963 -0.0818851 0
-0.0986631 -0.0757633 0
-0.0870293 -0.0663415 0
-0.07721 -0.0544931 0
-0.0608931 -0.0442975 0
-0.0465486 -0.034313 0
-0.0344016 -0.0245525 0
-0.0245108 -0.0154072 0
-0.0167606 -0.0072838 0
-0.0109214 -0.000497524 0
-0.00670596 0.00474626 0
-0.00381152 0.00834162 0
-0.00194651 0.0102638 0
-0.000846025 0.010551 0
-0.00027893 0.00928911 0
-4.99225e-05 0.00659894 0
1.11298e-06 0.00262553 0
-0.000334029 0.00233469 0
-0.00164586 0.00724446 0
-0.00424292 0.0123908 0
-0.00810698 0.0176607 0
-0.0131972 0.0229802 0
-0.0194602 0.0283172 0
-0.0268413 0.0336736 0
-0.0352932 0.0390674 0
-0.0447806 0.0445066 0
-0.0552773 0.0499612 0
-0.0667568 0.0553378 0
-0.072356 0.0604637 0
-0.0788274 0.0650647 0
-0.0929623 0.0695245 0
-0.107903 0.0733055 0
-0.123506 0.0759568 0
-0.139536 0.0770808 0
-0.155694 0.0763224 0
-0.171625 0.0733802 0
-0.186941 0.0680301 0
-0.201238 0.0601495 0
-0.214111 0.0497344 0
-0.225163 0.0369055 0
-0.231564 0.0219037 0
-0.235413 0.00510074 0
-0.238819 -0.0119124 0
-0.239011 -0.0296409 0
-0.23575 -0.0471684 0
-0.228885 -0.0636406 0
-0.218366 -0.078163 0
-0.204287 -0.0898572 0
-0.186926 -0.0979253 0
-0.166795 -0.101736 0
-0.144654 -0.100918 0
-0.121498 -0.0954447 0
-0.108773 -0.0856789 0
-0.0974384 -0.0724372 0
-0.0777344 -0.0611108 0
-0.0601202 -0.0494895 0
-0.0450194 -0.0377367 0
-0.032573 -0.0264555 0
-0.0226889 -0.0162199 0
-0.0151264 -0.00746123 0
-0.00956509 -0.000457501 0
-0.00565597 0.00464648 0
-0.00305619 0.00781077 0
-0.00144983 0.00907387 0
-0.00055852 0.00853112 0
-0.000145539 0.00631818 0
-1.58428e-05 0.0025987 0
-0.000383014 0.00366245 0
-0.00187867 0.0108914 0
-0.00482211 0.0180699 0
-0.00917521 0.0250763 0
-0.0148752 0.0318491 0
-0.0218471 0.0383867 0
-0.0300165 0.044734 0
-0.03932 0.0509559 0
-0.0497098 0.0571021 0
-0.061151 0.0631704 0
-0.0736123 0.0690779 0
-0.0796836 0.0746452 0
-0.0866685 0.0795823 0
-0.101893 0.0843798 0
-0.117927 0.0883944 0
-0.13461 0.0911053 0
-0.151698 0.0920681 0
-0.168888 0.0908982 0
-0.18583 0.0872784 0
-0.202145 0.0809814 0
-0.217441 0.0718902 0
-0.231334 0.0600131 0
-0.243458 0.0454857 0
-0.250306 0.0285623 0
-0.254757 0.00963644 0
-0.259564 -0.00984818 0
-0.261157 -0.0302566 0
-0.259316 -0.0506552 0
-0.253844 -0.0701747 0
-0.244594 -0.0878756 0
-0.231517 -0.102791 0
-0.21472 -0.11398 0
-0.194534 -0.120607 0
-0.171563 -0.122051 0
-0.146708 -0.118017 0
-0.133267 -0.10862 0
-0.120466 -0.0945058 0
-0.0970838 -0.0821755 0
-0.0758732 -0.0687418 0
-0.0574673 -0.0546644 0
-0.0421073 -0.0408225 0
-0.0297504 -0.0280014 0
-0.0201648 -0.0167858 0
-0.0130071 -0.00755478 0
-0.00788464 -0.000511593 0
-0.00440055 0.0042774 0
-0.00218223 0.00684604 0
-0.000897441 0.00729877 0
-0.000261063 0.00578866 0
-3.61898e-05 0.0025018 0
-0.000428049 0.00521633 0
-0.00209241 0.0151314 0
-0.00535303 0.0246359 0
-0.0101527 0.0336032 0
-0.0164074 0.0419918 0
-0.0240212 0.0498413 0
-0.0329004 0.0572511 0
-0.0429658 0.0643444 0
-0.0541572 0.0712219 0
-0.0664315 0.0779172 0
-0.0797526 0.0843636 0
-0.0862379 0.0903803 0
-0.0936671 0.0956672 0
-0.109823 0.100782 0
-0.126773 0.104989 0
-0.144339 0.107704 0
-0.16227 0.108442 0
-0.180256 0.106793 0
-0.19795 0.102427 0
-0.214979 0.095119 0
-0.23097 0.0847629 0
-0.245564 0.0713886 0
-0.258444 0.0551595 0
-0.265549 0.0363593 0
-0.270465 0.0154185 0
-0.276519 -0.00660809 0
-0.279486 -0.0296956 0
-0.279197 -0.0529804 0
-0.275427 -0.0756145 0
-0.267947 -0.0966615 0
-0.256561 -0.115112 0
-0.241178 -0.129917 0
-0.221887 -0.140055 0
-0.199047 -0.14464 0
-0.173349 -0.143051 0
-0.159794 -0.135069 0
-0.14577 -0.121023 0
-0.11872 -0.107901 0
-0.0938115 -0.0925727 0
-0.0718741 -0.0759105 0
-0.0532912 -0.0591067 0
-0.0381233 -0.0432043 0
-0.0261898 -0.028991 0
-0.0171508 -0.0169898 0
-0.010582 -0.00749355 0
-0.00603441 -0.000614448 0
-0.00307521 0.00366704 0
-0.00131163 0.00546146 0
-0.000402443 0.00494025 0
-6.11055e-05 0.00231478 0
-0.000466065 0.00698403 0
-0.00227297 0.019932 0
-0.0058019 0.0320398 0
-0.0109796 0.043179 0
-0.0177038 0.0533348 0
-0.0258597 0.0625975 0
-0.0353361 0.0711322 0
-0.0460384 0.0791308 0
-0.0578943 0.086755 0
-0.0708519 0.0940816 0
-0.0848695 0.101066 0
-0.0916934 0.107531 0
-0.0994736 0.113171 0
-0.116342 0.118565 0
-0.133966 0.122903 0
-0.152147 0.125547 0
-0.170621 0.125976 0
-0.189072 0.123757 0
-0.207151 0.118554 0
-0.224493 0.110148 0
-0.240744 0.0984582 0
-0.255587 0.08355 0
-0.268764 0.0656324 0
-0.275883 0.0450383 0
-0.281045 0.0222477 0
-0.288013 -0.00228064 0
-0.292167 -0.0279085 0
-0.29341 -0.0539338 0
-0.291517 -0.0795673 0
-0.286203 -0.103934 0
-0.277143 -0.126043 0
-0.264042 -0.1448 0
-0.246718 -0.159044 0
-0.225215 -0.167646 0
-0.1999 -0.169646 0
-0.18703 -0.164421 0
-0.172287 -0.15184 0
-0.142077 -0.138299 0
-0.113727 -0.121235 0
-0.0882499 -0.101925 0
-0.066249 -0.0818737 0
-0.047974 -0.062431 0
-0.0333658 -0.0446549 0
-0.0221355 -0.029277 0
-0.0138537 -0.0167294 0
-0.00803043 -0.00720303 0
-0.00417336 -0.000711259 0
-0.00182433 0.00285444 0
-0.000578708 0.00368222 0
-9.24401e-05 0.00201047 0
-0.000493897 0.00893724 0
-0.00240591 0.0252211 0
-0.00613425 0.0401768 0
-0.011595 0.0536756 0
-0.0186729 0.0657339 0
-0.0272384 0.0764996 0
-0.0371654 0.0862117 0
-0.0483448 0.0951407 0
-0.0606921 0.103517 0
-0.0741448 0.111469 0
-0.0886538 0.118978 0
-0.0957232 0.125876 0
-0.103737 0.131853 0
-0.121042 0.137466 0
-0.139031 0.141849 0
-0.157486 0.14432 0
-0.176127 0.144325 0
-0.194628 0.141415 0
-0.212637 0.135252 0
-0.2298 0.125638 0
-0.24579 0.11253 0
-0.26034 0.0960481 0
-0.273266 0.0764677 0
-0.280126 0.0541881 0
-0.285264 0.0297433 0
-0.292674 0.00289567 0
-0.297683 -0.0249927 0
-0.300272 -0.053443 0
-0.300247 -0.0817618 0
-0.297303 -0.109192 0
-0.291028 -0.134834 0
-0.280951 -0.157625 0
-0.266631 -0.176346 0
-0.247766 -0.189692 0
-0.224324 -0.196395 0
-0.213023 -0.195415 0