# vtk DataFile Version 2.0
Velocidades
ASCII

DATASET STRUCTURED_GRID
DIMENSIONS   50   50   20

POINTS   50000   double
0.00568455   0.00568455   0.025
0.0174023   0.00568455   0.025
0.0298294   0.00568455   0.025
0.0429888   0.00568455   0.025
0.0569012   0.00568455   0.025
0.0715849   0.00568455   0.025
0.0870549   0.00568455   0.025
0.103323   0.00568455   0.025
0.120395   0.00568455   0.025
0.138275   0.00568455   0.025
0.156961   0.00568455   0.025
0.176443   0.00568455   0.025
0.196707   0.00568455   0.025
0.217734   0.00568455   0.025
0.239496   0.00568455   0.025
0.261959   0.00568455   0.025
0.285082   0.00568455   0.025
0.308818   0.00568455   0.025
0.333113   0.00568455   0.025
0.357906   0.00568455   0.025
0.383132   0.00568455   0.025
0.408719   0.00568455   0.025
0.434592   0.00568455   0.025
0.460672   0.00568455   0.025
0.486877   0.00568455   0.025
0.513123   0.00568455   0.025
0.539328   0.00568455   0.025
0.565408   0.00568455   0.025
0.591281   0.00568455   0.025
0.616868   0.00568455   0.025
0.642094   0.00568455   0.025
0.666887   0.00568455   0.025
0.691182   0.00568455   0.025
0.714918   0.00568455   0.025
0.738041   0.00568455   0.025
0.760504   0.00568455   0.025
0.782266   0.00568455   0.025
0.803293   0.00568455   0.025
0.823557   0.00568455   0.025
0.843039   0.00568455   0.025
0.861725   0.00568455   0.025
0.879605   0.00568455   0.025
0.896677   0.00568455   0.025
0.912945   0.00568455   0.025
0.928415   0.00568455   0.025
0.943099   0.00568455   0.025
0.957011   0.00568455   0.025
0.970171   0.00568455   0.025
0.982598   0.00568455   0.025
0.994315   0.00568455   0.025
0.00568455   0.0174023   0.025
0.0174023   0.0174023   0.025
0.0298294   0.0174023   0.025
0.0429888   0.0174023   0.025
0.0569012   0.0174023   0.025
0.0715849   0.0174023   0.025
0.0870549   0.0174023   0.025
0.103323   0.0174023   0.025
0.120395   0.0174023   0.025
0.138275   0.0174023   0.025
0.156961   0.0174023   0.025
0.176443   0.0174023   0.025
0.196707   0.0174023   0.025
0.217734   0.0174023   0.025
0.239496   0.0174023   0.025
0.261959   0.0174023   0.025
0.285082   0.0174023   0.025
0.308818   0.0174023   0.025
0.333113   0.0174023   0.025
0.357906   0.0174023   0.025
0.383132   0.0174023   0.025
0.408719   0.0174023   0.025
0.434592   0.0174023   0.025
0.460672   0.0174023   0.025
0.486877   0.0174023   0.025
0.513123   0.0174023   0.025
0.539328   0.0174023   0.025
0.565408   0.0174023   0.025
0.591281   0.0174023   0.025
0.616868   0.0174023   0.025
0.642094   0.0174023   0.025
0.666887   0.0174023   0.025
0.691182   0.0174023   0.025
0.714918   0.0174023   0.025
0.738041   0.0174023   0.025
0.760504   0.0174023   0.025
0.782266   0.0174023   0.025
0.803293   0.0174023   0.025
0.823557   0.0174023   0.025
0.843039   0.0174023   0.025
0.861725   0.0174023   0.025
0.879605   0.0174023   0.025
0.896677   0.0174023   0.025
0.912945   0.0174023   0.025
0.928415   0.0174023   0.025
0.943099   0.0174023   0.025
0.957011   0.0174023   0.025
0.970171   0.0174023   0.025
0.982598   0.0174023   0.025
0.994315   0.0174023   0.025
0.00568455   0.0298294   0.025
0.0174023   0.0298294   0.025
0.0298294   0.0298294   0.025
0.0429888   0.0298294   0.025
0.0569012   0.0298294   0.025
0.0715849   0.0298294   0.025
0.0870549   0.0298294   0.025
0.103323   0.0298294   0.025
0.120395   0.0298294   0.025
0.138275   0.0298294   0.025
0.156961   0.0298294   0.025
0.176443   0.0298294   0.025
0.196707   0.0298294   0.025
0.217734   0.0298294   0.025
0.239496   0.0298294   0.025
0.261959   0.0298294   0.025
0.285082   0.0298294   0.025
0.308818   0.0298294   0.025
0.333113   0.0298294   0.025
0.357906   0.0298294   0.025
0.383132   0.0298294   0.025
0.408719   0.0298294   0.025
0.434592   0.0298294   0.025
0.460672   0.0298294   0.025
0.486877   0.0298294   0.025
0.513123   0.0298294   0.025
0.539328   0.0298294   0.025
0.565408   0.0298294   0.025
0.591281   0.0298294   0.025
0.616868   0.0298294   0.025
0.642094   0.0298294   0.025
0.666887   0.0298294   0.025
0.691182   0.0298294   0.025
0.714918   0.0298294   0.025
0.738041   0.0298294   0.025
0.760504   0.0298294   0.025
0.782266   0.0298294   0.025
0.803293   0.0298294   0.025
0.823557   0.0298294   0.025
0.843039   0.0298294   0.025
0.861725   0.0298294   0.025
0.879605   0.0298294   0.025
0.896677   0.0298294   0.025
0.912945   0.0298294   0.025
0.928415   0.0298294   0.025
0.943099   0.0298294   0.025
0.957011   0.0298294   0.025
0.970171   0.0298294   0.025
0.982598   0.0298294   0.025
0.994315   0.0298294   0.025
0.00568455   0.0429888   0.025
0.0174023   0.0429888   0.025
0.0298294   0.0429888   0.025
0.0429888   0.0429888   0.025
0.0569012   0.0429888   0.025
0.0715849   0.0429888   0.025
0.0870549   0.0429888   0.025
0.103323   0.0429888   0.025
0.120395   0.0429888   0.025
0.138275   0.0429888   0.025
0.156961   0.0429888   0.025
0.176443   0.0429888   0.025
0.196707   0.0429888   0.025
0.217734   0.0429888   0.025
0.239496   0.0429888   0.025
0.261959   0.0429888   0.025
0.285082   0.0429888   0.025
0.308818   0.0429888   0.025
0.333113   0.0429888   0.025
0.357906   0.0429888   0.025
0.383132   0.0429888   0.025
0.408719   0.0429888   0.025
0.434592   0.0429888   0.025
0.460672   0.0429888   0.025
0.486877   0.0429888   0.025
0.513123   0.0429888   0.025
0.539328   0.0429888   0.025
0.565408   0.0429888   0.025
0.591281   0.0429888   0.025
0.616868   0.0429888   0.025
0.642094   0.0429888   0.025
0.666887   0.0429888   0.025
0.691182   0.0429888   0.025
0.714918   0.0429888   0.025
0.738041   0.0429888   0.025
0.760504   0.0429888   0.025
0.782266   0.0429888   0.025
0.803293   0.0429888   0.025
0.823557   0.0429888   0.025
0.843039   0.0429888   0.025
0.861725   0.0429888   0.025
0.879605   0.0429888   0.025
0.896677   0.0429888   0.025
0.912945   0.0429888   0.025
0.928415   0.0429888   0.025
0.943099   0.0429888   0.025
0.957011   0.0429888   0.025
0.970171   0.0429888   0.025
0.982598   0.0429888   0.025
0.994315   0.0429888   0.025
0.00568455   0.0569012   0.025
0.0174023   0.0569012   0.025
0.0298294   0.0569012   0.025
0.0429888   0.0569012   0.025
0.0569012   0.0569012   0.025
0.0715849   0.0569012   0.025
0.0870549   0.0569012   0.025
0.103323   0.0569012   0.025
0.120395   0.0569012   0.025
0.138275   0.0569012   0.025
0.156961   0.0569012   0.025
0.176443   0.0569012   0.025
0.196707   0.0569012   0.025
0.217734   0.0569012   0.025
0.239496   0.0569012   0.025
0.261959   0.0569012   0.025
0.285082   0.0569012   0.025
0.308818   0.0569012   0.025
0.333113   0.0569012   0.025
0.357906   0.0569012   0.025
0.383132   0.0569012   0.025
0.408719   0.0569012   0.025
0.434592   0.0569012   0.025
0.460672   0.0569012   0.025
0.486877   0.0569012   0.025
0.513123   0.0569012   0.025
0.539328   0.0569012   0.025
0.565408   0.0569012   0.025
0.591281   0.0569012   0.025
0.616868   0.0569012   0.025
0.642094   0.0569012   0.025
0.666887   0.0569012   0.025
0.691182   0.0569012   0.025
0.714918   0.0569012   0.025
0.738041   0.0569012   0.025
0.760504   0.0569012   0.025
0.782266   0.0569012   0.025
0.803293   0.0569012   0.025
0.823557   0.0569012   0.025
0.843039   0.0569012   0.025
0.861725   0.0569012   0.025
0.879605   0.0569012   0.025
0.896677   0.0569012   0.025
0.912945   0.0569012   0.025
0.928415   0.0569012   0.025
0.943099   0.0569012   0.025
0.957011   0.0569012   0.025
0.970171   0.0569012   0.025
0.982598   0.0569012   0.025
0.994315   0.0569012   0.025
0.00568455   0.0715849   0.025
0.0174023   0.0715849   0.025
0.0298294   0.0715849   0.025
0.0429888   0.0715849   0.025
0.0569012   0.0715849   0.025
0.0715849   0.0715849   0.025
0.0870549   0.0715849   0.025
0.103323   0.0715849   0.025
0.120395   0.0715849   0.025
0.138275   0.0715849   0.025
0.156961   0.0715849   0.025
0.176443   0.0715849   0.025
0.196707   0.0715849   0.025
0.217734   0.0715849   0.025
0.239496   0.0715849   0.025
0.261959   0.0715849   0.025
0.285082   0.0715849   0.025
0.308818   0.0715849   0.025
0.333113   0.0715849   0.025
0.357906   0.0715849   0.025
0.383132   0.0715849   0.025
0.408719   0.0715849   0.025
0.434592   0.0715849   0.025
0.460672   0.0715849   0.025
0.486877   0.0715849   0.025
0.513123   0.0715849   0.025
0.539328   0.0715849   0.025
0.565408   0.0715849   0.025
0.591281   0.0715849   0.025
0.616868   0.0715849   0.025
0.642094   0.0715849   0.025
0.666887   0.0715849   0.025
0.691182   0.0715849   0.025
0.714918   0.0715849   0.025
0.738041   0.0715849   0.025
0.760504   0.0715849   0.025
0.782266   0.0715849   0.025
0.803293   0.0715849   0.025
0.823557   0.0715849   0.025
0.843039   0.0715849   0.025
0.861725   0.0715849   0.025
0.879605   0.0715849   0.025
0.896677   0.0715849   0.025
0.912945   0.0715849   0.025
0.928415   0.0715849   0.025
0.943099   0.0715849   0.025
0.957011   0.0715849   0.025
0.970171   0.0715849   0.025
0.982598   0.0715849   0.025
0.994315   0.0715849   0.025
0.00568455   0.0870549   0.025
0.0174023   0.0870549   0.025
0.0298294   0.0870549   0.025
0.0429888   0.0870549   0.025
0.0569012   0.0870549   0.025
0.0715849   0.0870549   0.025
0.0870549   0.0870549   0.025
0.103323   0.0870549   0.025
0.120395   0.0870549   0.025
0.138275   0.0870549   0.025
0.156961   0.0870549   0.025
0.176443   0.0870549   0.025
0.196707   0.0870549   0.025
0.217734   0.0870549   0.025
0.239496   0.0870549   0.025
0.261959   0.0870549   0.025
0.285082   0.0870549   0.025
0.308818   0.0870549   0.025
0.333113   0.0870549   0.025
0.357906   0.0870549   0.025
0.383132   0.0870549   0.025
0.408719   0.0870549   0.025
0.434592   0.0870549   0.025
0.460672   0.0870549   0.025
0.486877   0.0870549   0.025
0.513123   0.0870549   0.025
0.539328   0.0870549   0.025
0.565408   0.0870549   0.025
0.591281   0.0870549   0.025
0.616868   0.0870549   0.025
0.642094   0.0870549   0.025
0.666887   0.0870549   0.025
0.691182   0.0870549   0.025
0.714918   0.0870549   0.025
0.738041   0.0870549   0.025
0.760504   0.0870549   0.025
0.782266   0.0870549   0.025
[...]
POINT_DATA   50000
VECTORS Velocidades double

-7.67782e-05 -0.00168736 0
-0.000207737 -0.0033142 0
-0.000285263 -0.00423016 0
-0.000313716 -0.00474484 0
-0.000320839 -0.00498364 0
-0.000333854 -0.00500998 0
-0.000373479 -0.00486279 0
-0.000454276 -0.00456975 0
-0.000586065 -0.00415193 0
-0.000775451 -0.00362461 0
-0.00102787 -0.00299421 0
-0.00115359 -0.00224466 0
-0.00133333 -0.0012774 0
-0.00177526 -0.000549817 0
-0.00229245 5.69418e-05 0
-0.00285748 0.000569657 0
-0.00346096 0.000985229 0
-0.00409382 0.00128673 0
-0.00474294 0.00145171 0
-0.00538937 0.00145872 0
-0.00600775 0.00129322 0
-0.00656681 0.000952563 0
-0.00703219 0.000449485 0
-0.00735809 -0.000185418 0
-0.00750269 -0.000891891 0
-0.00743794 -0.00160286 0
-0.00714639 -0.00223895 0
-0.00663177 -0.00272577 0
-0.00591806 -0.00299951 0
-0.00504996 -0.0030157 0
-0.00408883 -0.00275645 0
-0.00310455 -0.00223401 0
-0.00216542 -0.00148994 0
-0.00132819 -0.00059082 0
-0.000629555 0.000376726 0
-0.000237998 0.0013042 0
2.57466e-06 0.00203219 0
0.000272821 0.00287466 0
0.000437915 0.00367395 0
0.000504038 0.00437113 0
0.000490951 0.00494038 0
0.000418454 0.00536984 0
0.000304783 0.00565343 0
0.000167106 0.00578638 0
2.25769e-05 0.00576196 0
-0.000110214 0.00556749 0
-0.000209449 0.00517743 0
-0.000249137 0.00453733 0
-0.000204847 0.00352059 0
-7.95544e-05 0.00179085 0
-0.000256879 -0.00310209 0
-0.000676717 -0.00646543 0
-0.000893853 -0.00840921 0
-0.00095002 -0.0094879 0
-0.000950168 -0.00996884 0
-0.000977307 -0.00999676 0
-0.00109048 -0.00966155 0
-0.0013311 -0.00902627 0
-0.00172784 -0.00813793 0
-0.00230099 -0.00702959 0
-0.00306846 -0.00571363 0
-0.00340446 -0.00415339 0
-0.00396773 -0.00216804 0
-0.00539515 -0.000668056 0
-0.00700624 0.000575127 0
-0.00876471 0.00162234 0
-0.0106454 0.00246863 0
-0.0126178 0.00307793 0
-0.0146365 0.00340162 0
-0.0166362 0.00339271 0
-0.0185319 0.00301829 0
-0.0202213 0.00227042 0
-0.021594 0.00117427 0
-0.0225207 -0.000206636 0
-0.0228824 -0.00177082 0
-0.0226003 -0.00334836 0
-0.0216414 -0.00477705 0
-0.020031 -0.00589799 0
-0.0178476 -0.0065714 0
-0.0152244 -0.00669668 0
-0.0123369 -0.00622921 0
-0.00938303 -0.00518935 0
-0.00655721 -0.00366162 0
-0.00402464 -0.0017864 0
-0.00189799 0.000249855 0
-0.000741555 0.00220982 0
-7.19501e-07 0.0037621 0
0.000882078 0.00554677 0
0.00140413 0.00724143 0
0.00161414 0.00872038 0
0.00157387 0.00993017 0
0.00134376 0.0108468 0
0.000980269 0.0114576 0
0.00053723 0.0117513 0
6.86172e-05 0.0117111 0
-0.000367594 0.0113058 0
-0.000703662 0.0104741 0
-0.000854525 0.00909085 0
-0.000720338 0.00688984 0
-0.000284496 0.00327975 0
-0.000185269 -0.00262107 0
-0.000588584 -0.0060714 0
-0.000960665 -0.00820405 0
-0.00121989 -0.00938671 0
-0.0014275 -0.00987877 0
-0.00167552 -0.00985004 0
-0.00204761 -0.00941498 0
-0.00261034 -0.00865509 0
-0.00341417 -0.00762987 0
-0.00449748 -0.00637932 0
-0.00589253 -0.0049167 0
-0.00652438 -0.00320137 0
-0.00749642 -0.00108806 0
-0.00989561 0.000528131 0
-0.012592 0.00185535 0
-0.015541 0.00296458 0
-0.0186959 0.00385195 0
-0.0219964 0.00447528 0
-0.0253574 0.0047762 0
-0.0286629 0.00469693 0
-0.0317659 0.00419484 0
-0.0344946 0.00325552 0
-0.036665 0.00190329 0
-0.0381068 0.000206077 0
-0.0386231 -0.00175931 0
-0.0380778 -0.00375526 0
-0.0364581 -0.00560273 0
-0.0338116 -0.00711638 0
-0.0302655 -0.00812551 0
-0.0260259 -0.00850008 0
-0.0213604 -0.00817321 0
-0.0165691 -0.00715432 0
-0.0119491 -0.0055309 0
-0.00775652 -0.0034609 0
-0.0041737 -0.00116317 0
-0.00220245 0.00107858 0
-0.00091872 0.0029016 0
0.000639341 0.00495796 0
0.00161342 0.00690962 0
0.00208736 0.00861564 0
0.0021566 0.0100177 0
0.00191685 0.0110896 0
0.00146137 0.0118157 0
0.000882062 0.012179 0
0.000272045 0.0121536 0
-0.000271657 0.0116939 0
-0.000647644 0.0107192 0
-0.000760361 0.0090866 0
-0.000565064 0.0065532 0
-0.000195109 0.00275835 0
-0.000117026 -0.00227341 0
-0.000449979 -0.00559818 0
-0.000900189 -0.00780212 0
-0.00137231 -0.00904946 0
-0.00187659 -0.00953493 0
-0.00247774 -0.00942606 0
-0.00325577 -0.00885437 0
-0.00428639 -0.00792041 0
-0.00563398 -0.00669907 0
-0.0073511 -0.00524059 0
-0.00947983 -0.00356375 0
-0.0104727 -0.00163508 0
-0.011888 0.000649741 0
-0.0152849 0.00243235 0
-0.0190799 0.00389305 0
-0.0232259 0.00510162 0
-0.0276547 0.00605039 0
-0.0322719 0.0066869 0
-0.0369478 0.00693843 0
-0.0415121 0.00673181 0
-0.0457561 0.00601113 0
-0.0494414 0.00475381 0
-0.052317 0.00298362 0
-0.054208 0.000775275 0
-0.0548384 -0.00178997 0
-0.0540102 -0.00441729 0
-0.0517609 -0.00689351 0
-0.0481564 -0.00899528 0
-0.0433624 -0.0105088 0
-0.0376411 -0.0112635 0
-0.0313311 -0.0111613 0
-0.0248131 -0.0101951 0
-0.0184677 -0.00845463 0
-0.0126313 -0.00611974 0
-0.007556 -0.00345051 0
-0.00473788 -0.000784903 0
-0.00286611 0.00147352 0
-0.000536562 0.00394683 0
0.00100544 0.00628382 0
0.00187775 0.00833144 0
0.00220398 0.0100245 0
0.00210939 0.0113311 0
0.00171941 0.0122284 0
0.00115913 0.01269 0
0.000552609 0.0126776 0
1.96366e-05 0.0121322 0
-0.00033392 0.010965 0
-0.000439534 0.00905091 0
-0.000310538 0.00623939 0
-9.7968e-05 0.0024223 0
-8.38947e-05 -0.00202865 0
-0.000381254 -0.00510318 0
-0.000898533 -0.00721462 0
-0.00158004 -0.00841263 0
-0.00241939 -0.00882106 0
-0.00345412 -0.00858218 0
-0.0047463 -0.00782847 0
-0.00636548 -0.00667184 0
-0.00837829 -0.00520031 0
-0.0108429 -0.00347564 0
-0.0138046 -0.00152735 0
-0.0152127 0.000660253 0
-0.0171078 0.00314562 0
-0.0215489 0.0051377 0
-0.0264728 0.00677857 0
-0.0318327 0.00812217 0
-0.0375399 0.00914831 0
-0.0434641 0.0097886 0
-0.0494291 0.00995141 0
-0.05521 0.00954458 0
-0.0605386 0.00849679 0
-0.0651162 0.00677713 0
-0.0686351 0.00441112 0
-0.0709337 0.00148725 0
-0.0716631 -0.00188051 0
-0.0705719 -0.00534794 0
-0.0677592 -0.00865986 0
-0.0633008 -0.0115452 0
-0.0573863 -0.0137368 0
-0.0503164 -0.0150138 0
-0.0424808 -0.0152382 0
-0.0343226 -0.0143799 0
-0.0262933 -0.0125268 0
-0.0188038 -0.00988105 0
-0.0121806 -0.00674693 0
-0.00848336 -0.00351913 0
-0.00597175 -0.000648705 0
-0.0027469 0.00238778 0
-0.000497041 0.00523606 0
0.00092623 0.00773833 0
0.00166855 0.00982188 0
0.00187779 0.0114452 0
0.00170428 0.0125742 0
0.00129769 0.0131709 0
0.000801373 0.0131866 0
0.00034307 0.0125583 0
2.02492e-05 0.0112095 0
-0.000120664 0.00906151 0
-0.000105337 0.00606536 0
-3.3453e-05 0.00226364 0
-7.8051e-05 -0.00181969 0
-0.000391505 -0.00455624 0
-0.00101248 -0.00642053 0
-0.00192796 -0.00742332 0
-0.00313759 -0.00764261 0
-0.00466444 -0.00719161 0
-0.00655217 -0.00619206 0
-0.00885655 -0.00475716 0
-0.0116369 -0.00298219 0
-0.0149482 -0.000939111 0
-0.0188325 0.0013284 0
-0.0207017 0.00381092 0
-0.0231119 0.00651687 0
-0.028653 0.00875341 0
-0.0347467 0.0106143 0
-0.0413452 0.0121225 0
-0.0483398 0.0132343 0
-0.0555648 0.0138586 0
-0.0627979 0.0138802 0
-0.0697626 0.0131857 0
-0.0761372 0.0116877 0
-0.0815718 0.00934892 0
-0.0857146 0.00620074 0
-0.0884064 0.00235431 0
-0.0892486 -0.00202471 0
-0.0879658 -0.00653465 0
-0.0847008 -0.0108872 0
-0.0795253 -0.014756 0
-0.072636 -0.0178114 0
-0.064353 -0.0197727 0
-0.0550987 -0.0204527 0
-0.0453642 -0.0197888 0
-0.0356634 -0.0178598 0
-0.0264814 -0.0148851 0
-0.0182263 -0.0112109 0
-0.0136058 -0.00728853 0
-0.0103898 -0.00362405 0
-0.00611653 0.000120111 0
-0.00299076 0.00360386 0
-0.000841681 0.00667506 0
0.000489657 0.00925391 0
0.00116549 0.0112854 0
0.00135308 0.0127209 0
0.00121845 0.0135109 0
0.000916193 0.0136016 0
0.000577077 0.0129366 0
0.000294632 0.0114655 0
0.000113994 0.00916104 0
3.00522e-05 0.00604658 0
4.3185e-06 0.00222731 0
-9.03845e-05 -0.00159007 0
-0.000466805 -0.00388606 0
-0.00124566 -0.00535457 0
-0.00244289 -0.006007 0
-0.00406943 -0.00590225 0
-0.00614305 -0.0051324 0
-0.00869334 -0.0038047 0
-0.0117608 -0.002026 0
-0.0153921 0.000107717 0
-0.019633 0.00251752 0
-0.0245167 0.00514455 0
-0.0268848 0.00795038 0
-0.0298421 0.0108913 0
-0.0365399 0.0134004 0
-0.0438481 0.0155124 0
-0.0517141 0.0172055 0
-0.0600086 0.0184012 0
-0.0685322 0.0189781 0
-0.0770203 0.018794 0
-0.0851507 0.0177129 0
-0.0925574 0.0156328 0
-0.0988516 0.0125134 0
-0.10365 0.00839697 0
-0.106748 0.00342444 0
-0.107749 -0.00218024 0
-0.106406 -0.00792765 0
-0.102851 -0.0135268 0
-0.0971336 -0.0185896 0
-0.0894394 -0.022715 0
-0.0800878 -0.0255532 0
-0.0695172 -0.0268557 0
-0.0582541 -0.0265149 0
-0.0468691 -0.0245879 0
-0.0359239 -0.0213006 0
-0.0259185 -0.017034 0
-0.0203119 -0.012294 0
-0.016309 -0.00765048 0
-0.0107981 -0.00306014 0
-0.00659385 0.00118173 0
-0.00351622 0.00494192 0
-0.00140477 0.00813327 0
-9.1638e-05 0.0106827 0
0.000600815 0.012524 0
0.000850192 0.0135963 0
0.000820556 0.0138451 0
0.000649367 0.0132274 0
0.000437712 0.0117212 0
0.000246987 0.0093401 0
0.00010527 0.00614803 0
2.42325e-05 0.00226686 0
-0.000115169 -0.00129508 0
-0.000592932 -0.00300905 0
-0.00158489 -0.00392272 0
-0.00312134 -0.00406357 0
-0.00522031 -0.00348873 0
-0.00789659 -0.00227884 0
-0.0111688 -0.000527617 0
-0.0150631 0.0016687 0
-0.0196118 0.00421907 0
-0.0248478 0.00704144 0
-0.030793 0.0100628 0
-0.0336891 0.0132147 0
-0.0372201 0.016402 0
-0.0451262 0.0192061 0
-0.0536913 0.0215912 0
-0.0628531 0.0234786 0
-0.0724613 0.0247449 0
-0.0822854 0.0252323 0
-0.0920248 0.0247687 0
-0.101321 0.023196 0
-0.109776 0.0204008 0
-0.116974 0.0163435 0
-0.122511 0.0110822 0
-0.126056 0.00478936 0
-0.127289 -0.00225742 0
-0.12608 -0.00943031 0
-0.12245 -0.0164879 0
-0.116409 -0.0229723 0
-0.10811 -0.0284035 0
-0.0978546 -0.0323517 0
-0.086079 -0.0344936 0
-0.0733326 -0.0346592 0
-0.0602373 -0.0328653 0
-0.0474344 -0.0293274 0
-0.0355262 -0.0244484 0
-0.0288517 -0.0187836 0
-0.0239573 -0.0129754 0
-0.0169746 -0.00741173 0
-0.0114458 -0.00228944 0
-0.00720166 0.002292 0
-0.00409465 0.00623466 0
-0.00195926 0.00944017 0
-0.000611151 0.0118195 0
0.000138638 0.0132993 0
0.000467172 0.0138256 0
0.000526462 0.0133689 0
0.00043629 0.011931 0
0.000284305 0.00955283 0
0.000133174 0.00631771 0
3.22093e-05 0.0023479 0
-0.000149033 -0.000897134 0
-0.000758871 -0.00184075 0
-0.00201338 -0.00201762 0
-0.00394577 -0.00147542 0
-0.00657401 -0.000277599 0
-0.00990746 0.00150048 0
-0.0139543 0.00377709 0
-0.0187268 0.00646922 0
-0.0242431 0.00949518 0
-0.0305224 0.0127738 0
-0.037574 0.0162203 0
-0.0410175 0.0197374 0
-0.0451418 0.0231814 0
-0.0542976 0.0262984 0
-0.0641536 0.0289698 0
-0.0746339 0.0310496 0
-0.0855669 0.0323625 0
-0.0966958 0.0327095 0
-0.107692 0.031888 0
-0.118173 0.0297199 0
-0.127719 0.0260839 0
-0.135902 0.0209455 0
-0.142306 0.0143799 0
-0.146354 0.00658798 0
-0.14792 -0.00211193 0
-0.147095 -0.0108936 0
-0.143653 -0.0196316 0
-0.137546 -0.0277875 0
-0.128881 -0.0347956 0
-0.11792 -0.0401361 0
-0.10508 -0.0433946 0
-0.0909177 -0.0443178 0
-0.0760961 -0.0428572 0
-0.0613353 -0.0391931 0
-0.0473488 -0.03373 0
-0.039513 -0.0270616 0
-0.0336003 -0.0199082 0
-0.0248565 -0.0132625 0
-0.0177045 -0.00713517 0
-0.0120132 -0.00157914 0
-0.0076642 0.00328618 0
-0.00450048 0.00732445 0
-0.00233122 0.0104153 0
-0.00095239 0.0124682 0
-0.000167164 0.0134268 0
0.000199772 0.0132716 0
0.000295417 0.0120213 0
0.000238514 0.00973321 0
0.000124434 0.00650055 0
3.1885e-05 0.00244414 0
-0.000189762 -0.000362867 0
-0.00095586 -0.000300034 0
-0.00251385 0.000470678 0
-0.00489155 0.00188171 0
-0.00809967 0.00386152 0
-0.0121378 0.0063385 0
-0.0170019 0.00924348 0
-0.0226906 0.0125096 0
-0.0292078 0.0160687 0
-0.0365597 0.0198446 0
-0.0447438 0.0237436 0
-0.0487441 0.0276428 0
-0.0534723 0.031355 0
-0.0639034 0.0347991 0
-0.07507 0.0377614 0
-0.0868799 0.0400219 0
-0.0991412 0.0413483 0
-0.111577 0.0414993 0
-0.12384 0.0402425 0
-0.135534 0.0373832 0
-0.146233 0.0327963 0
-0.155504 0.0264545 0
-0.162926 0.018449 0
-0.167537 0.00900127 0
-0.169548 -0.00154545 0
-0.169393 -0.0121181 0
-0.166435 -0.0227698 0
-0.160557 -0.0328684 0
-0.151808 -0.0417599 0
-0.140393 -0.0488259 0
-0.126688 -0.0535454 0
-0.111233 -0.0555571 0
-0.0947164 -0.0547168 0
-0.0779262 -0.051136 0
-0.0616891 -0.0451903 0
-0.0526048 -0.0374904 0
-0.0455291 -0.0288329 0
-0.0346734 -0.0210242 0
-0.0255405 -0.0137599 0
-0.0180739 -0.0070437 0
-0.0122006 -0.00103974 0
-0.00777577 0.00405728 0
-0.00459931 0.00808216 0
-0.00244575 0.0109189 0
-0.00109041 0.0125032 0
-0.000326394 0.0128197 0
2.70232e-05 0.0118976 0
0.00012259 0.00980522 0
8.72577e-05 0.00664301 0
2.56148e-05 0.00253435 0
-0.000235563 0.000337771 0
-0.0011759 0.00168807 0
-0.00306819 0.00364668 0
-0.00592871 0.00612803 0
-0.00975496 0.00905462 0
-0.0145322 0.0123612 0
-0.0202415 0.0159949 0
-0.0268671 0.0199095 0
-0.0343994 0.0240552 0
-0.0428323 0.0283656 0
-0.0521532 0.0327418 0
-0.0567086 0.037039 0
-0.0620406 0.0410334 0
-0.073751 0.0448149 0
-0.086227 0.0480652 0
-0.0993583 0.050486 0
-0.112936 0.051787 0
-0.126668 0.0516855 0
-0.140201 0.0499223 0
-0.153132 0.0462897 0
-0.165039 0.0406617 0
-0.175493 0.0330195 0
-0.184073 0.0234665 0
-0.189292 0.0122353 0
-0.191855 -0.000318676 0
-0.192662 -0.012866 0
-0.190492 -0.0256704 0
-0.185164 -0.0379946 0
-0.17666 -0.0491007 0
-0.165113 -0.0582685 0
-0.150831 -0.0648574 0
-0.134309 -0.068375 0
-0.116226 -0.0685462 0
-0.0974156 -0.0653711 0
-0.0788044 -0.0591525 0
-0.0684217 -0.0504822 0
-0.0600329 -0.0402156 0
-0.0466559 -0.0312022 0
-0.0351288 -0.0226544 0
-0.0255134 -0.0145486 0
-0.0177971 -0.00713383 0
-0.0118487 -0.000692629 0
-0.00745438 0.00454632 0
-0.00436025 0.00842982 0
-0.00230568 0.0108776 0
-0.0010446 0.0118727 0
-0.000356905 0.0114503 0
-5.26597e-05 0.00968771 0
2.76975e-05 0.00669398 0
1.49954e-05 0.00260072 0
-0.000284635 0.00123088 0
-0.00141058 0.0041888 0
-0.00365612 0.00760186 0
-0.00702161 0.0113691 0
-0.0114867 0.0154117 0
-0.0170186 0.0196769 0
-0.0235811 0.0241344 0
-0.0311429 0.0287657 0
-0.0396812 0.0335459 0
-0.0491793 0.038423 0
-0.0596164 0.0432979 0
-0.0647132 0.0480086 0
-0.0706356 0.0523018 0
-0.083601 0.056427 0
-0.0973561 0.0599549 0
-0.111772 0.0625086 0
-0.126626 0.0637418 0
-0.14162 0.0633334 0
-0.156396 0.0610012 0
-0.170558 0.0565281 0
-0.183691 0.0497897 0
-0.195375 0.0407747 0
-0.205199 0.0295959 0
-0.211033 0.0164902 0
-0.214225 0.00182 0
-0.216247 -0.0128861 0
-0.215146 -0.0280708 0
-0.210695 -0.0428934 0
-0.202809 -0.056546 0
-0.191534 -0.068212 0
-0.177081 -0.077127 0
-0.159861 -0.0826488 0
-0.140499 -0.084337 0
-0.119824 -0.0820308 0
-0.0988313 -0.0759023 0
-0.087184 -0.0664672 0
-0.0773509 -0.0545994 0
-0.0610075 -0.0443898 0
-0.0466388 -0.0343903 0
-0.0344706 -0.0246141 0
-0.0245622 -0.0154535 0
-0.0167978 -0.00731606 0
-0.0109474 -0.000517645 0
-0.00672339 0.00473604 0
-0.00382262 0.00833892 0
-0.00195309 0.0102662 0
-0.000849542 0.0105563 0
-0.000280523 0.00929517 0
-5.0452e-05 0.00660387 0
1.02261e-06 0.00262768 0
-0.000334931 0.00233693 0
-0.00165025 0.00725267 0
-0.00425408 0.0124064 0
-0.00812798 0.0176851 0
-0.0132308 0.0230148 0
-0.019509 0.0283635 0
-0.0269075 0.0337332 0
-0.0353787 0.0391417 0
-0.0448872 0.0445969 0
-0.0554065 0.0500675 0
-0.0669097 0.0554593 0
-0.0725208 0.0605982 0
-0.0790045 0.0652086 0
-0.0931642 0.0696779 0
-0.108129 0.0734652 0
-0.123753 0.0761179 0
-0.139802 0.0772376 0
-0.155975 0.0764694 0
-0.171916 0.0735122 0
-0.187239 0.0681427 0
-0.201538 0.0602394 0
-0.21441 0.0497995 0
-0.225458 0.0369449 0
-0.231857 0.0219174 0
-0.235702 0.00508949 0
-0.239102 -0.0119488 0
-0.239287 -0.0297016 0
-0.236019 -0.0472516 0
-0.229147 -0.0637448 0
-0.218622 -0.0782863 0
-0.204534 -0.089997 0
-0.187162 -0.0980783 0
-0.167017 -0.101898 0
-0.144857 -0.101083 0
-0.121679 -0.0956064 0
-0.108943 -0.0858299 0
-0.0975944 -0.0725701 0
-0.0778621 -0.0612294 0
-0.0602217 -0.0495912 0
-0.0450978 -0.0378199 0
-0.0326319 -0.0265205 0
-0.0227318 -0.0162678 0
-0.0151566 -0.00749411 0
-0.00958546 -0.000477849 0
-0.00566899 0.00463601 0
-0.00306395 0.0078075 0
-0.00145399 0.00907522 0
-0.000560415 0.0085347 0
-0.000146172 0.00632182 0
-1.59512e-05 0.0026005 0
-0.000384037 0.00366825 0
-0.00188361 0.0109092 0
-0.0048346 0.0181001 0
-0.00919855 0.0251192 0
-0.0149123 0.0319051 0
-0.0219005 0.0384566 0
-0.0300884 0.0448187 0
-0.0394123 0.0510564 0
-0.0498239 0.057219 0
-0.0612881 0.0633036 0
-0.0737731 0.069226 0
-0.0798565 0.0748056 0
-0.0868534 0.0797512 0
-0.102102 0.0845565 0
-0.118158 0.0885748 0
-0.134858 0.0912837 0
-0.151962 0.0922384 0
-0.169163 0.0910544 0
-0.186111 0.0874155 0
-0.202427 0.0810953 0
-0.21772 0.0719783 0
-0.231607 0.060074 0
-0.243723 0.0455194 0
-0.250565 0.0285698 0
-0.255012 0.00961942 0
-0.259811 -0.00989043 0
-0.261397 -0.0303224 0
-0.259552 -0.0507428 0
-0.254076 -0.0702828 0
-0.244823 -0.0880031 0
-0.231742 -0.102936 0
-0.214942 -0.114141 0
-0.194748 -0.12078 0
-0.171765 -0.122231 0
-0.146894 -0.118199 0
-0.133445 -0.108795 0
-0.120632 -0.0946671 0
-0.0972214 -0.0823225 0
-0.0759841 -0.06887 0
-0.0575543 -0.0547717 0
-0.0421735 -0.0409086 0
-0.0297991 -0.0280674 0
-0.0201994 -0.0168337 0
-0.0130306 -0.00758715 0
-0.00789978 -0.000531371 0
-0.00440962 0.00426724 0
-0.00218713 0.00684259 0
-0.000899686 0.00729931 0
-0.000261817 0.00579072 0
-3.63201e-05 0.00250315 0
-0.000429159 0.00522623 0
-0.00209774 0.0151601 0
-0.00536645 0.0246824 0
-0.0101777 0.0336667 0
-0.016447 0.0420715 0
-0.0240778 0.049937 0
-0.0329761 0.0573629 0
-0.0430621 0.0644727 0
-0.0542754 0.0713667 0
-0.0665724 0.078078 0
-0.0799166 0.0845387 0
-0.0864138 0.0905666 0
-0.0938543 0.0958606 0
-0.110031 0.100981 0
-0.127 0.105188 0
-0.144581 0.107897 0
-0.162522 0.108622 0
-0.180514 0.106954 0
-0.198208 0.102565 0
-0.215233 0.0952295 0
-0.231214 0.0848444 0
-0.245798 0.0714409 0
-0.258664 0.0551836 0
-0.265761 0.0363574 0
-0.270671 0.0153935 0
-0.276715 -0.00665722 0
-0.279674 -0.0297662 0
-0.279382 -0.0530708 0
-0.275611 -0.0757236 0
-0.268132 -0.096789 0
-0.256749 -0.115258 0
-0.241368 -0.13008 0
-0.222078 -0.140233 0
-0.199235 -0.144829 0
-0.173528 -0.143248 0
-0.159971 -0.135266 0
-0.145938 -0.121212 0
-0.118863 -0.108076 0
-0.093929 -0.0927282 0
-0.0719681 -0.0760434 0
-0.053364 -0.059216 0
-0.0381777 -0.0432906 0
-0.0262289 -0.029056 0
-0.0171777 -0.0170361 0
-0.0105995 -0.00752429 0
-0.00604497 -0.00063283 0
-0.00308097 0.00365781 0
-0.00131429 0.00545831 0
-0.000403347 0.00494035 0
-6.12638e-05 0.00231558 0
-0.000467216 0.00699841 0
-0.0022785 0.0199725 0
-0.00581576 0.032104 0
-0.0110052 0.0432645 0
-0.0177443 0.0534398 0
-0.0259174 0.0627204 0
-0.0354129 0.0712722 0
-0.0461356 0.0792877 0
-0.0580129 0.0869282 0
-0.0709922 0.09427 0
-0.0850314 0.101268 0
-0.0918665 0.107742 0
-0.0996569 0.113387 0
-0.116544 0.118783 0
-0.134182 0.123117 0
-0.152373 0.12575 0
-0.170852 0.126161 0
-0.189303 0.123918 0
-0.207375 0.118686 0
-0.224706 0.110249 0
-0.240943 0.0985278 0
-0.255769 0.0835887 0
-0.268927 0.0656426 0
-0.276035 0.0450234 0
-0.281189 0.0222116 0
-0.288145 -0.00233816 0
-0.29229 -0.027984 0
-0.29353 -0.0540256 0
-0.291638 -0.0796747 0
-0.286329 -0.104057 0
-0.277277 -0.126183 0
-0.264185 -0.144957 0
-0.24687 -0.159218 0
-0.225374 -0.167836 0
-0.20006 -0.169849 0
-0.187194 -0.164632 0
-0.172446 -0.152052 0
-0.142217 -0.138498 0
-0.113846 -0.121416 0
-0.0883485 -0.102083 0
-0.0663272 -0.0820074 0
-0.0480336 -0.0625394 0
-0.0334094 -0.0447391 0
-0.0221658 -0.0293393 0
-0.0138736 -0.0167729 0
-0.00804265 -0.00723107 0
-0.0041801 -0.000727386 0
-0.00182748 0.00284682 0
-0.000579793 0.00367992 0
-9.26336e-05 0.00201057 0
-0.000495038 0.00895628 0
-0.00241138 0.0252738 0
-0.00614794 0.0402594 0
-0.0116204 0.053784 0
-0.0187128 0.0658648 0
-0.0272951 0.0766501 0
-0.0372406 0.0863802 0
-0.0484396 0.095326 0
-0.0608069 0.103718 0
-0.0742797 0.111683 0
-0.0888081 0.119204 0
-0.0958878 0.126109 0
-0.10391 0.132089 0
-0.121229 0.137699 0
-0.139229 0.142073 0
-0.157688 0.144528 0
-0.176328 0.144509 0
-0.194822 0.141569 0
-0.212819 0.135374 0
-0.229964 0.125725 0
-0.245933 0.112582 0
-0.260461 0.096068 0
-0.273363 0.0764594 0
-0.28021 0.0541564 0
-0.285338 0.0296931 0
-0.292733 0.00282814 0
-0.297733 -0.0250735 0
-0.300319 -0.0535354 0
-0.300296 -0.0818654 0
-0.29736 -0.109308 0
-0.291097 -0.134963 0
-0.281035 -0.15777 0
-0.266731 -0.176509 0
-0.247881 -0.189873 0
-0.224451 -0.196594 0
-0.213158 -0.19563 0