# vtk DataFile Version 2.0
Velocidades
ASCII

DATASET STRUCTURED_GRID
DIMENSIONS   50   50   20

POINTS   50000   double
0.00568455   0.00568455   0.025
0.0174023   0.00568455   0.025
0.0298294   0.00568455   0.025
0.0429888   0.00568455   0.025
0.0569012   0.00568455   0.025
0.0715849   0.00568455   0.025
0.0870549   0.00568455   0.025
0.103323   0.00568455   0.025
0.120395   0.00568455   0.025
0.138275   0.00568455   0.025
0.156961   0.00568455   0.025
0.176443   0.00568455   0.025
0.196707   0.00568455   0.025
0.217734   0.00568455   0.025
0.239496   0.00568455   0.025
0.261959   0.00568455   0.025
0.285082   0.00568455   0.025
0.308818   0.00568455   0.025
0.333113   0.00568455   0.025
0.357906   0.00568455   0.025
0.383132   0.00568455   0.025
0.408719   0.00568455   0.025
0.434592   0.00568455   0.025
0.460672   0.00568455   0.025
0.486877   0.00568455   0.025
0.513123   0.00568455   0.025
0.539328   0.00568455   0.025
0.565408   0.00568455   0.025
0.591281   0.00568455   0.025
0.616868   0.00568455   0.025
0.642094   0.00568455   0.025
0.666887   0.00568455   0.025
0.691182   0.00568455   0.025
0.714918   0.00568455   0.025
0.738041   0.00568455   0.025
0.760504   0.00568455   0.025
0.782266   0.00568455   0.025
0.803293   0.00568455   0.025
0.823557   0.00568455   0.025
0.843039   0.00568455   0.025
0.861725   0.00568455   0.025
0.879605   0.00568455   0.025
0.896677   0.00568455   0.025
0.912945   0.00568455   0.025
0.928415   0.00568455   0.025
0.943099   0.00568455   0.025
0.957011   0.00568455   0.025
0.970171   0.00568455   0.025
0.982598   0.00568455   0.025
0.994315   0.00568455   0.025
0.00568455   0.0174023   0.025
0.0174023   0.0174023   0.025
0.0298294   0.0174023   0.025
0.0429888   0.0174023   0.025
0.0569012   0.0174023   0.025
0.0715849   0.0174023   0.025
0.0870549   0.0174023   0.025
0.103323   0.0174023   0.025
0.120395   0.0174023   0.025
0.138275   0.0174023   0.025
0.156961   0.0174023   0.025
0.176443   0.0174023   0.025
0.196707   0.0174023   0.025
0.217734   0.0174023   0.025
0.239496   0.0174023   0.025
0.261959   0.0174023   0.025
0.285082   0.0174023   0.025
0.308818   0.0174023   0.025
0.333113   0.0174023   0.025
0.357906   0.0174023   0.025
0.383132   0.0174023   0.025
0.408719   0.0174023   0.025
0.434592   0.0174023   0.025
0.460672   0.0174023   0.025
0.486877   0.0174023   0.025
0.513123   0.0174023   0.025
0.539328   0.0174023   0.025
0.565408   0.0174023   0.025
0.591281   0.0174023   0.025
0.616868   0.0174023   0.025
0.642094   0.0174023   0.025
0.666887   0.0174023   0.025
0.691182   0.0174023   0.025
0.714918   0.0174023   0.025
0.738041   0.0174023   0.025
0.760504   0.0174023   0.025
0.782266   0.0174023   0.025
0.803293   0.0174023   0.025
0.823557   0.0174023   0.025
0.843039   0.0174023   0.025
0.861725   0.0174023   0.025
0.879605   0.0174023   0.025
0.896677   0.0174023   0.025
0.912945   0.0174023   0.025
0.928415   0.0174023   0.025
0.943099   0.0174023   0.025
0.957011   0.0174023   0.025
0.970171   0.0174023   0.025
0.982598   0.0174023   0.025
0.994315   0.0174023   0.025
0.00568455   0.0298294   0.025
0.0174023   0.0298294   0.025
0.0298294   0.0298294   0.025
0.0429888   0.0298294   0.025
0.0569012   0.0298294   0.025
0.0715849   0.0298294   0.025
0.0870549   0.0298294   0.025
0.103323   0.0298294   0.025
0.120395   0.0298294   0.025
0.138275   0.0298294   0.025
0.156961   0.0298294   0.025
0.176443   0.0298294   0.025
0.196707   0.0298294   0.025
0.217734   0.0298294   0.025
0.239496   0.0298294   0.025
0.261959   0.0298294   0.025
0.285082   0.0298294   0.025
0.308818   0.0298294   0.025
0.333113   0.0298294   0.025
0.357906   0.0298294   0.025
0.383132   0.0298294   0.025
0.408719   0.0298294   0.025
0.434592   0.0298294   0.025
0.460672   0.0298294   0.025
0.486877   0.0298294   0.025
0.513123   0.0298294   0.025
0.539328   0.0298294   0.025
0.565408   0.0298294   0.025
0.591281   0.0298294   0.025
0.616868   0.0298294   0.025
0.642094   0.0298294   0.025
0.666887   0.0298294   0.025
0.691182   0.0298294   0.025
0.714918   0.0298294   0.025
0.738041   0.0298294   0.025
0.760504   0.0298294   0.025
0.782266   0.0298294   0.025
0.803293   0.0298294   0.025
0.823557   0.0298294   0.025
0.843039   0.0298294   0.025
0.861725   0.0298294   0.025
0.879605   0.0298294   0.025
0.896677   0.0298294   0.025
0.912945   0.0298294   0.025
0.928415   0.0298294   0.025
0.943099   0.0298294   0.025
0.957011   0.0298294   0.025
0.970171   0.0298294   0.025
0.982598   0.0298294   0.025
0.994315   0.0298294   0.025
0.00568455   0.0429888   0.025
0.0174023   0.0429888   0.025
0.0298294   0.0429888   0.025
0.0429888   0.0429888   0.025
0.0569012   0.0429888   0.025
0.0715849   0.0429888   0.025
0.0870549   0.0429888   0.025
0.103323   0.0429888   0.025
0.120395   0.0429888   0.025
0.138275   0.0429888   0.025
0.156961   0.0429888   0.025
0.176443   0.0429888   0.025
0.196707   0.0429888   0.025
0.217734   0.0429888   0.025
0.239496   0.0429888   0.025
0.261959   0.0429888   0.025
0.285082   0.0429888   0.025
0.308818   0.0429888   0.025
0.333113   0.0429888   0.025
0.357906   0.0429888   0.025
0.383132   0.0429888   0.025
0.408719   0.0429888   0.025
0.434592   0.0429888   0.025
0.460672   0.0429888   0.025
0.486877   0.0429888   0.025
0.513123   0.0429888   0.025
0.539328   0.0429888   0.025
0.565408   0.0429888   0.025
0.591281   0.0429888   0.025
0.616868   0.0429888   0.025
0.642094   0.0429888   0.025
0.666887   0.0429888   0.025
0.691182   0.0429888   0.025
0.714918   0.0429888   0.025
0.738041   0.0429888   0.025
0.760504   0.0429888   0.025
0.782266   0.0429888   0.025
0.803293   0.0429888   0.025
0.823557   0.0429888   0.025
0.843039   0.0429888   0.025
0.861725   0.0429888   0.025
0.879605   0.0429888   0.025
0.896677   0.0429888   0.025
0.912945   0.0429888   0.025
0.928415   0.0429888   0.025
0.943099   0.0429888   0.025
0.957011   0.0429888   0.025
0.970171   0.0429888   0.025
0.982598   0.0429888   0.025
0.994315   0.0429888   0.025
0.00568455   0.0569012   0.025
0.0174023   0.0569012   0.025
0.0298294   0.0569012   0.025
0.0429888   0.0569012   0.025
0.0569012   0.0569012   0.025
0.0715849   0.0569012   0.025
0.0870549   0.0569012   0.025
0.103323   0.0569012   0.025
0.120395   0.0569012   0.025
0.138275   0.0569012   0.025
0.156961   0.0569012   0.025
0.176443   0.0569012   0.025
0.196707   0.0569012   0.025
0.217734   0.0569012   0.025
0.239496   0.0569012   0.025
0.261959   0.0569012   0.025
0.285082   0.0569012   0.025
0.308818   0.0569012   0.025
0.333113   0.0569012   0.025
0.357906   0.0569012   0.025
0.383132   0.0569012   0.025
0.408719   0.0569012   0.025
0.434592   0.0569012   0.025
0.460672   0.0569012   0.025
0.486877   0.0569012   0.025
0.513123   0.0569012   0.025
0.539328   0.0569012   0.025
0.565408   0.0569012   0.025
0.591281   0.0569012   0.025
0.616868   0.0569012   0.025
0.642094   0.0569012   0.025
0.666887   0.0569012   0.025
0.691182   0.0569012   0.025
0.714918   0.0569012   0.025
0.738041   0.0569012   0.025
0.760504   0.0569012   0.025
0.782266   0.0569012   0.025
0.803293   0.0569012   0.025
0.823557   0.0569012   0.025
0.843039   0.0569012   0.025
0.861725   0.0569012   0.025
0.879605   0.0569012   0.025
0.896677   0.0569012   0.025
0.912945   0.0569012   0.025
0.928415   0.0569012   0.025
0.943099   0.0569012   0.025
0.957011   0.0569012   0.025
0.970171   0.0569012   0.025
0.982598   0.0569012   0.025
0.994315   0.0569012   0.025
0.00568455   0.0715849   0.025
0.0174023   0.0715849   0.025
0.0298294   0.0715849   0.025
0.0429888   0.0715849   0.025
0.0569012   0.0715849   0.025
0.0715849   0.0715849   0.025
0.0870549   0.0715849   0.025
0.103323   0.0715849   0.025
0.120395   0.0715849   0.025
0.138275   0.0715849   0.025
0.156961   0.0715849   0.025
0.176443   0.0715849   0.025
0.196707   0.0715849   0.025
0.217734   0.0715849   0.025
0.239496   0.0715849   0.025
0.261959   0.0715849   0.025
0.285082   0.0715849   0.025
0.308818   0.0715849   0.025
0.333113   0.0715849   0.025
0.357906   0.0715849   0.025
0.383132   0.0715849   0.025
0.408719   0.0715849   0.025
0.434592   0.0715849   0.025
0.460672   0.0715849   0.025
0.486877   0.0715849   0.025
0.513123   0.0715849   0.025
0.539328   0.0715849   0.025
0.565408   0.0715849   0.025
0.591281   0.0715849   0.025
0.616868   0.0715849   0.025
0.642094   0.0715849   0.025
0.666887   0.0715849   0.025
0.691182   0.0715849   0.025
0.714918   0.0715849   0.025
0.738041   0.0715849   0.025
0.760504   0.0715849   0.025
0.782266   0.0715849   0.025
0.803293   0.0715849   0.025
0.823557   0.0715849   0.025
0.843039   0.0715849   0.025
0.861725   0.0715849   0.025
0.879605   0.0715849   0.025
0.896677   0.0715849   0.025
0.912945   0.0715849   0.025
0.928415   0.0715849   0.025
0.943099   0.0715849   0.025
0.957011   0.0715849   0.025
0.970171   0.0715849   0.025
0.982598   0.0715849   0.025
0.994315   0.0715849   0.025
0.00568455   0.0870549   0.025
0.0174023   0.0870549   0.025
0.0298294   0.0870549   0.025
0.0429888   0.0870549   0.025
0.0569012   0.0870549   0.025
0.0715849   0.0870549   0.025
0.0870549   0.0870549   0.025
0.103323   0.0870549   0.025
0.120395   0.0870549   0.025
0.138275   0.0870549   0.025
0.156961   0.0870549   0.025
0.176443   0.0870549   0.025
0.196707   0.0870549   0.025
0.217734   0.0870549   0.025
0.239496   0.0870549   0.025
0.261959   0.0870549   0.025
0.285082   0.0870549   0.025
0.308818   0.0870549   0.025
0.333113   0.0870549   0.025
0.357906   0.0870549   0.025
0.383132   0.0870549   0.025
0.408719   0.0870549   0.025
0.434592   0.0870549   0.025
0.460672   0.0870549   0.025
0.486877   0.0870549   0.025
0.513123   0.0870549   0.025
0.539328   0.0870549   0.025
0.565408   0.0870549   0.025
0.591281   0.0870549   0.025
0.616868   0.0870549   0.025
0.642094   0.0870549   0.025
0.666887   0.0870549   0.025
0.691182   0.0870549   0.025
0.714918   0.0870549   0.025
0.738041   0.0870549   0.025
0.760504   0.0870549   0.025
0.782266   0.0870549   0.025
[...]
POINT_DATA   50000
VECTORS Velocidades double

-7.60878e-05 -0.00167197 0
-0.000205916 -0.00328334 0
-0.00028293 -0.00419008 0
-0.000311509 -0.00469921 0
-0.000319156 -0.00493522 0
-0.000332821 -0.00496105 0
-0.000372987 -0.00481539 0
-0.000454026 -0.00452564 0
-0.000585621 -0.00411265 0
-0.000774294 -0.0035914 0
-0.00102545 -0.00296805 0
-0.00115053 -0.00222637 0
-0.00132926 -0.00126806 0
-0.00176861 -0.000548074 0
-0.00228275 5.17819e-05 0
-0.00284437 0.000558264 0
-0.00344416 0.000968459 0
-0.00407308 0.0012657 0
-0.00471811 0.00142777 0
-0.00536038 0.00143345 0
-0.00597465 0.00126829 0
-0.00652982 0.000929643 0
-0.00699167 0.000430106 0
-0.00731502 -0.000200035 0
-0.00745811 -0.000901364 0
-0.00739279 -0.00160671 0
-0.00710206 -0.00223738 0
-0.0065897 -0.0027195 0
-0.0058796 -0.00298976 0
-0.00501621 -0.00300398 0
-0.00406052 -0.00274442 0
-0.00308197 -0.00222328 0
-0.00214841 -0.0014819 0
-0.00131622 -0.00058651 0
-0.000621817 0.000376739 0
-0.000232686 0.00129995 0
6.42605e-06 0.00202468 0
0.000275085 0.00286347 0
0.000439106 0.00365946 0
0.000504587 0.00435392 0
0.000491179 0.00492101 0
0.000418596 0.00534887 0
0.000305015 0.00563139 0
0.000167547 0.00576382 0
2.32902e-05 0.00573942 0
-0.000109228 0.00554561 0
-0.000208269 0.00515694 0
-0.000247947 0.00451922 0
-0.000203935 0.00350641 0
-7.92097e-05 0.00178355 0
-0.00025457 -0.00307376 0
-0.000670808 -0.00640501 0
-0.000886607 -0.00832908 0
-0.00094346 -0.00939599 0
-0.0009454 -0.0098711 0
-0.000974618 -0.00989809 0
-0.0010895 -0.00956622 0
-0.00133091 -0.00893798 0
-0.00172714 -0.0080598 0
-0.00229819 -0.00696413 0
-0.00306186 -0.00566278 0
-0.00339611 -0.00411874 0
-0.00395614 -0.0021516 0
-0.00537517 -0.000667133 0
-0.00697655 0.000561992 0
-0.00872415 0.00159654 0
-0.010593 0.00243191 0
-0.0125527 0.00303258 0
-0.0145582 0.00335048 0
-0.0165447 0.003339 0
-0.0184276 0.00296548 0
-0.0201053 0.00222198 0
-0.0214678 0.00113337 0
-0.0223877 -0.000237459 0
-0.0227459 -0.00179036 0
-0.0224633 -0.00335572 0
-0.021508 -0.00477259 0
-0.0199051 -0.00588324 0
-0.0177331 -0.00654887 0
-0.015124 -0.00666958 0
-0.0122526 -0.00620111 0
-0.0093156 -0.00516373 0
-0.00650616 -0.00364156 0
-0.00398851 -0.00177419 0
-0.00187455 0.000252906 0
-0.0007252 0.00220372 0
1.12043e-05 0.00374881 0
0.000888881 0.00552559 0
0.00140757 0.00721324 0
0.00161557 0.0086864 0
0.0015743 0.00989162 0
0.00134396 0.0108049 0
0.000980806 0.0114133 0
0.000538505 0.0117058 0
7.08485e-05 0.0116656 0
-0.000364393 0.0112617 0
-0.000699734 0.0104329 0
-0.00085046 0.00905475 0
-0.000717148 0.00686221 0
-0.000283274 0.00326645 0
-0.000183708 -0.00259696 0
-0.000583909 -0.00601392 0
-0.000953848 -0.00812456 0
-0.00121277 -0.00929389 0
-0.00142139 -0.00977948 0
-0.00167084 -0.00974996 0
-0.00204389 -0.00931894 0
-0.00260629 -0.00856716 0
-0.00340786 -0.00755339 0
-0.00448655 -0.00631689 0
-0.00587436 -0.00487021 0
-0.0065028 -0.00317226 0
-0.00746918 -0.00107792 0
-0.00985419 0.000521925 0
-0.0125343 0.00183438 0
-0.015465 0.00293036 0
-0.0185999 0.00380641 0
-0.0218792 0.00442092 0
-0.0252186 0.00471611 0
-0.0285026 0.00463465 0
-0.0315852 0.00413417 0
-0.0342956 0.00320028 0
-0.0364509 0.00185696 0
-0.0378827 0.000171505 0
-0.0383946 -0.00178007 0
-0.0378498 -0.00376135 0
-0.0362371 -0.00559449 0
-0.0336037 -0.00709547 0
-0.030076 -0.00809475 0
-0.0258591 -0.00846316 0
-0.021219 -0.00813429 0
-0.0164544 -0.00711758 0
-0.0118605 -0.00550008 0
-0.00769195 -0.00343891 0
-0.00412998 -0.00115177 0
-0.00217048 0.00107916 0
-0.000894282 0.0028932 0
0.000654805 0.00494027 0
0.00162272 0.00688381 0
0.00209265 0.00858314 0
0.00215954 0.00997986 0
0.00191874 0.0110478 0
0.00146318 0.011771 0
0.00088444 0.0121329 0
0.000275313 0.0121073 0
-0.000267538 0.011649 0
-0.000643108 0.0106777 0
-0.000756226 0.00905107 0
-0.000562331 0.00652733 0
-0.000194219 0.00274736 0
-0.000116193 -0.00225205 0
-0.000447043 -0.00554378 0
-0.000895051 -0.00772421 0
-0.00136581 -0.00895681 0
-0.00186948 -0.00943516 0
-0.00247012 -0.00932568 0
-0.0032469 -0.00875893 0
-0.00427463 -0.00783452 0
-0.00561693 -0.0066264 0
-0.0073258 -0.00518388 0
-0.00944296 -0.00352484 0
-0.0104303 -0.00161517 0
-0.0118373 0.000649699 0
-0.015214 0.00241476 0
-0.018986 0.00385959 0
-0.0231064 0.00505404 0
-0.0275074 0.00599093 0
-0.0320955 0.00661846 0
-0.0367418 0.00686455 0
-0.0412775 0.00665655 0
-0.0454948 0.00593883 0
-0.0491569 0.00468881 0
-0.0520141 0.00292993 0
-0.0538933 0.000736195 0
-0.0545191 -0.0018117 0
-0.0536936 -0.0044207 0
-0.051455 -0.00687902 0
-0.0478687 -0.00896476 0
-0.0430995 -0.0104656 0
-0.0374083 -0.0112119 0
-0.0311319 -0.0111062 0
-0.0246489 -0.0101417 0
-0.0183382 -0.00840749 0
-0.0125342 -0.00608267 0
-0.00748746 -0.00342595 0
-0.00468555 -0.000773559 0
-0.00282447 0.00147311 0
-0.000508109 0.00393506 0
0.00102437 0.0062623 0
0.00189002 0.00830189 0
0.00221186 0.0099885 0
0.00211471 0.0112902 0
0.00172353 0.012184 0
0.00116298 0.0126436 0
0.000556665 0.0126308 0
2.39111e-05 0.0120869 0
-0.00032982 0.0109237 0
-0.000436264 0.00901647 0
-0.000308676 0.00621544 0
-9.74428e-05 0.00241293 0
-8.34595e-05 -0.00200884 0
-0.000379387 -0.00505139 0
-0.000894482 -0.00713903 0
-0.00157357 -0.00832172 0
-0.00241033 -0.00872283 0
-0.00344186 -0.00848383 0
-0.00472955 -0.00773623 0
-0.00634216 -0.00659089 0
-0.00834556 -0.00513473 0
-0.0107973 -0.00342833 0
-0.0137423 -0.0015001 0
-0.0151423 0.000666599 0
-0.0170261 0.00313092 0
-0.021441 0.00510395 0
-0.0263352 0.00672753 0
-0.0316623 0.00805591 0
-0.0373344 0.00906958 0
-0.0432222 0.00970091 0
-0.0491509 0.00985898 0
-0.0548972 0.0094522 0
-0.0601945 0.00840954 0
-0.0647457 0.00670007 0
-0.0682447 0.00434887 0
-0.0705305 0.00144364 0
-0.0712558 -0.00190234 0
-0.0701701 -0.00534688 0
-0.0673718 -0.00863642 0
-0.0629362 -0.0115016 0
-0.057052 -0.013677 0
-0.0500182 -0.0149427 0
-0.0422227 -0.0151618 0
-0.0341067 -0.0143043 0
-0.0261195 -0.0124577 0
-0.0186699 -0.00982341 0
-0.0120826 -0.00670406 0
-0.0084058 -0.00349249 0
-0.00590801 -0.000637519 0
-0.00270096 0.00238496 0
-0.000464555 0.0052214 0
0.000948712 0.00771386 0
0.0016839 0.00978942 0
0.00188835 0.0114065 0
0.00171186 0.0125309 0
0.00130359 0.0131249 0
0.000806327 0.0131399 0
0.000347335 0.0125133 0
2.37105e-05 0.0111689 0
-0.000118278 0.00902838 0
-0.000104157 0.00604302 0
-3.31609e-05 0.00225527 0
-7.77499e-05 -0.00180083 0
-0.000389931 -0.00450685 0
-0.00100836 -0.00634814 0
-0.00192012 -0.0073361 0
-0.00312482 -0.0075487 0
-0.00464525 -0.00709863 0
-0.00652454 -0.00610678 0
-0.00881785 -0.00468526 0
-0.0115838 -0.00292811 0
-0.0148769 -0.000905922 0
-0.0187388 0.00133901 0
-0.0205969 0.00379856 0
-0.0229929 0.00648237 0
-0.0285013 0.00869818 0
-0.0345588 0.0105402 0
-0.0411178 0.012032 0
-0.0480705 0.0131309 0
-0.0552529 0.0137466 0
-0.0624443 0.0137648 0
-0.06937 0.0130726 0
-0.0757102 0.0115829 0
-0.0811171 0.00925825 0
-0.08524 0.00612949 0
-0.087919 0.00230677 0
-0.088758 -0.00204528 0
-0.0874836 -0.00652709 0
-0.0842363 -0.0108521 0
-0.0790873 -0.0146961 0
-0.0722324 -0.0177311 0
-0.06399 -0.0196779 0
-0.054781 -0.0203501 0
-0.0450945 -0.0196858 0
-0.0354421 -0.0177634 0
-0.0263066 -0.0148013 0
-0.0180942 -0.0111443 0
-0.013498 -0.00724161 0
-0.010299 -0.0035971 0
-0.00604852 0.000129959 0
-0.00294078 0.00359939 0
-0.000805758 0.00665858 0
0.000514962 0.00922745 0
0.00118311 0.0112509 0
0.00136537 0.0126805 0
0.00122716 0.0134668 0
0.000922479 0.0135562 0
0.000581603 0.0128928 0
0.000297714 0.0114262 0
0.000115803 0.0091293 0
3.08247e-05 0.00602551 0
4.48527e-06 0.00221953 0
-9.00384e-05 -0.00157211 0
-0.00046488 -0.00383951 0
-0.00124027 -0.00528681 0
-0.002432 -0.00592602 0
-0.00405086 -0.00581618 0
-0.00611438 -0.00504905 0
-0.00865178 -0.00373116 0
-0.0117031 -0.00196832 0
-0.0153145 0.000144852 0
-0.0195312 0.00253093 0
-0.0243865 0.00513273 0
-0.0267404 0.0079135 0
-0.0296803 0.0108313 0
-0.0363391 0.0133179 0
-0.0436048 0.0154094 0
-0.0514251 0.0170851 0
-0.0596721 0.0182678 0
-0.0681481 0.0188372 0
-0.0765906 0.0186519 0
-0.0846795 0.0175762 0
-0.0920507 0.0155087 0
-0.0983172 0.0124084 0
-0.103097 0.00831698 0
-0.106183 0.00337403 0
-0.107182 -0.00219791 0
-0.105849 -0.00791161 0
-0.102315 -0.0134778 0
-0.0966266 -0.0185106 0
-0.0889692 -0.0226111 0
-0.0796612 -0.0254309 0
-0.0691394 -0.0267228 0
-0.0579285 -0.0263797 0
-0.0465969 -0.0244587 0
-0.0357041 -0.0211849 0
-0.0257477 -0.0169378 0
-0.0201688 -0.0122213 0
-0.016186 -0.00760297 0
-0.0107035 -0.0030331 0
-0.00652254 0.00119167 0
-0.00346377 0.00493722 0
-0.00136712 0.00811611 0
-6.51812e-05 0.0106553 0
0.000619071 0.0124888 0
0.000862588 0.013556 0
0.000828803 0.0138026 0
0.000654651 0.0131858 0
0.000440848 0.0116837 0
0.000248582 0.00930986 0
0.000105861 0.00612799 0
2.43435e-05 0.00225945 0
-0.000114656 -0.00127836 0
-0.000590157 -0.00296655 0
-0.00157722 -0.00386183 0
-0.00310586 -0.00399217 0
-0.00519393 -0.00341485 0
-0.007856 -0.00221028 0
-0.0111105 -0.000471563 0
-0.0149832 0.00170606 0
-0.0195061 0.00423291 0
-0.024712 0.00702862 0
-0.0306224 0.0100221 0
-0.0335011 0.013147 0
-0.0370117 0.0163102 0
-0.0448729 0.0190902 0
-0.0533895 0.0214535 0
-0.0625005 0.0233228 0
-0.0720566 0.0245768 0
-0.0818299 0.0250585 0
-0.0915217 0.0245969 0
-0.100776 0.023034 0
-0.109196 0.0202566 0
-0.116367 0.0162244 0
-0.121888 0.0109943 0
-0.125423 0.0047374 0
-0.126655 -0.00227056 0
-0.125458 -0.00940411 0
-0.12185 -0.0164232 0
-0.115839 -0.0228724 0
-0.107578 -0.0282738 0
-0.0973668 -0.0321992 0
-0.0856416 -0.0343269 0
-0.0729499 -0.0344876 0
-0.0599116 -0.0326984 0
-0.0471659 -0.0291743 0
-0.0353122 -0.0243168 0
-0.0286685 -0.0186794 0
-0.0237973 -0.0129018 0
-0.0168492 -0.00736203 0
-0.0113497 -0.00225987 0
-0.00712993 0.00230384 0
-0.00404253 0.00623096 0
-0.00192238 0.0094234 0
-0.000585753 0.0117925 0
0.000155597 0.0132652 0
0.000478055 0.0137877 0
0.00053305 0.0133307 0
0.000439919 0.011896 0
0.000286001 0.00952435 0
0.00013375 0.00629868 0
3.23076e-05 0.0023408 0
-0.000148266 -0.00088236 0
-0.000754875 -0.00180423 0
-0.0020026 -0.00196675 0
-0.0039244 -0.00141787 0
-0.00653809 -0.000221144 0
-0.00985291 0.00154825 0
-0.0138769 0.00380913 0
-0.0186223 0.00647939 0
-0.024107 0.00947872 0
-0.03035 0.0127278 0
-0.0373609 0.0161438 0
-0.0407841 0.0196321 0
-0.0448851 0.0230515 0
-0.0539904 0.0261432 0
-0.0637931 0.0287917 0
-0.0742185 0.0308537 0
-0.0850967 0.0321557 0
-0.0961733 0.0325001 0
-0.107122 0.0316849 0
-0.117562 0.029532 0
-0.127075 0.02592 0
-0.135235 0.0208132 0
-0.141626 0.0142854 0
-0.145665 0.00653584 0
-0.147231 -0.00211917 0
-0.146419 -0.0108561 0
-0.142999 -0.0195501 0
-0.136921 -0.0276655 0
-0.128293 -0.0346388 0
-0.117376 -0.0399518 0
-0.104586 -0.0431918 0
-0.0904785 -0.0441066 0
-0.0757158 -0.0426483 0
-0.0610155 -0.0389973 0
-0.0470882 -0.033557 0
-0.0392857 -0.0269193 0
-0.0333993 -0.0198023 0
-0.0246966 -0.0131836 0
-0.0175807 -0.00707966 0
-0.01192 -0.00154502 0
-0.00759593 0.00330097 0
-0.0044519 0.00732257 0
-0.00229771 0.0104 0
-0.000930116 0.012443 0
-0.000153049 0.0133957 0
0.000208138 0.0132384 0
0.000299898 0.0119897 0
0.000240542 0.00970695 0
0.000125103 0.0064827 0
3.19964e-05 0.00243735 0
-0.000188682 -0.000351023 0
-0.000950381 -0.000272125 0
-0.00249939 0.000507533 0
-0.00486336 0.00192026 0
-0.00805299 0.00389449 0
-0.0120679 0.00635876 0
-0.0169041 0.00924434 0
-0.0225601 0.0124852 0
-0.0290401 0.0160145 0
-0.0363501 0.019758 0
-0.044488 0.0236244 0
-0.0484652 0.0274934 0
-0.0531677 0.0311808 0
-0.0635438 0.0345986 0
-0.0746536 0.037538 0
-0.0864061 0.0397819 0
-0.0986117 0.0411002 0
-0.110996 0.0412528 0
-0.123213 0.0400079 0
-0.13487 0.0371703 0
-0.14554 0.0326141 0
-0.154791 0.0263108 0
-0.162204 0.0183498 0
-0.166808 0.00895042 0
-0.168821 -0.00154582 0
-0.168679 -0.0120688 0
-0.165741 -0.0226714 0
-0.159891 -0.0327246 0
-0.151175 -0.0415762 0
-0.139801 -0.0486097 0
-0.126143 -0.0533057 0
-0.110741 -0.0553045 0
-0.0942831 -0.054463 0
-0.0775547 -0.0508932 0
-0.06138 -0.0449702 0
-0.0523305 -0.0373036 0
-0.0452839 -0.0286874 0
-0.0344767 -0.0209084 0
-0.0253872 -0.0136711 0
-0.0179577 -0.00698066 0
-0.012115 -0.00100067 0
-0.0077146 0.0040752 0
-0.00455698 0.00808255 0
-0.0024176 0.0109059 0
-0.00107261 0.0124812 0
-0.000315899 0.0127931 0
3.26057e-05 0.0118707 0
0.000125102 0.00978183 0
8.80837e-05 0.00662664 0
2.57533e-05 0.00252796 0
-0.000234134 0.000345464 0
-0.00116879 0.00170421 0
-0.00304972 0.00366481 0
-0.00589322 0.00614171 0
-0.00969696 0.00905739 0
-0.0144464 0.0123467 0
-0.0201229 0.0159571 0
-0.0267107 0.0198429 0
-0.0342006 0.023956 0
-0.0425867 0.0282314 0
-0.0518568 0.0325731 0
-0.0563869 0.0368392 0
-0.0616911 0.0408089 0
-0.0733435 0.0445642 0
-0.0857607 0.0477925 0
-0.0988341 0.0501993 0
-0.112357 0.0514965 0
-0.126041 0.0514022 0
-0.139532 0.0496575 0
-0.152431 0.0460539 0
-0.164315 0.0404641 0
-0.174754 0.0328673 0
-0.18333 0.0233649 0
-0.188545 0.0121874 0
-0.19111 -0.000311473 0
-0.191931 -0.0128049 0
-0.189779 -0.0255559 0
-0.184476 -0.0378304 0
-0.176001 -0.0488921 0
-0.164489 -0.0580223 0
-0.150248 -0.0645823 0
-0.133774 -0.0680814 0
-0.115746 -0.0682464 0
-0.0969957 -0.0650784 0
-0.0784479 -0.0588806 0
-0.0680999 -0.0502441 0
-0.0597426 -0.0400226 0
-0.0464215 -0.0310411 0
-0.0349452 -0.0225241 0
-0.0253736 -0.0144492 0
-0.0176936 -0.00706408 0
-0.0117744 -0.000649488 0
-0.00740277 0.00456693 0
-0.00432583 0.00843262 0
-0.00228388 0.0108676 0
-0.00103174 0.0118549 0
-0.000350059 0.0114294 0
-4.95749e-05 0.00966804 0
2.87158e-05 0.00667951 0
1.51676e-05 0.00259484 0
-0.000282849 0.00123304 0
-0.00140181 0.00418964 0
-0.0036336 0.0075961 0
-0.00697883 0.0113516 0
-0.0114176 0.0153773 0
-0.0169173 0.0196202 0
-0.0234425 0.0240503 0
-0.0309621 0.0286496 0
-0.0394538 0.0333944 0
-0.0489011 0.0382347 0
-0.0592841 0.0430739 0
-0.0643538 0.0477532 0
-0.0702473 0.0520223 0
-0.0831532 0.0561223 0
-0.0968494 0.0596307 0
-0.111209 0.0621746 0
-0.126013 0.0634098 0
-0.140963 0.0630156 0
-0.155704 0.0607097 0
-0.169841 0.0562736 0
-0.182958 0.0495809 0
-0.194635 0.040618 0
-0.204459 0.0294953 0
-0.210294 0.0164477 0
-0.21349 0.0018356 0
-0.215526 -0.0128131 0
-0.214442 -0.0279414 0
-0.210011 -0.0427113 0
-0.202149 -0.056316 0
-0.1909 -0.0679399 0
-0.17648 -0.0768207 0
-0.1593 -0.0823177 0
-0.139984 -0.0839932 0
-0.119364 -0.081688 0
-0.0984327 -0.0755757 0
-0.0868177 -0.0661724 0
-0.0770175 -0.0543508 0
-0.0607368 -0.0441743 0
-0.0464257 -0.0342101 0
-0.0343075 -0.0244709 0
-0.0244408 -0.0153464 0
-0.0167101 -0.0072419 0
-0.0108861 -0.000471975 0
-0.00668238 0.00475853 0
-0.00379656 0.00834388 0
-0.00193767 0.0102593 0
-0.000841312 0.0105428 0
-0.000276803 0.00928018 0
-4.92196e-05 0.00659182 0
1.23207e-06 0.00262246 0
-0.000332807 0.00233209 0
-0.00163991 0.00723449 0
-0.00422779 0.0123714 0
-0.00807848 0.01763 0
-0.0131515 0.0229361 0
-0.0193939 0.0282574 0
-0.0267513 0.0335958 0
-0.0351768 0.0389695 0
-0.0446355 0.0443871 0
-0.0551014 0.0498196 0
-0.0665485 0.0551752 0
-0.0721314 0.0602832 0
-0.0785858 0.0648709 0
-0.0926867 0.0693174 0
-0.107595 0.0730894 0
-0.123167 0.0757381 0
-0.139171 0.0768673 0
-0.155308 0.0761219 0
-0.171223 0.0731998 0
-0.18653 0.0678757 0
-0.200823 0.0600258 0
-0.213697 0.0496442 0
-0.224754 0.0368504 0
-0.231158 0.0218838 0
-0.23501 0.00511517 0
-0.238425 -0.0118635 0
-0.238627 -0.0295588 0
-0.235374 -0.0470551 0
-0.228518 -0.0634986 0
-0.218011 -0.0779949 0
-0.203944 -0.0896666 0
-0.1866 -0.0977169 0
-0.166489 -0.101516 0
-0.144374 -0.100694 0
-0.121249 -0.0952256 0
-0.10854 -0.0854749 0
-0.0972241 -0.0722583 0
-0.0775593 -0.0609514 0
-0.0599813 -0.0493533 0
-0.0449122 -0.0376255 0
-0.0324925 -0.0263692 0
-0.0226304 -0.0161566 0
-0.0150853 -0.00741826 0
-0.00953746 -0.000431437 0
-0.00563835 0.00465929 0
-0.00304574 0.007814 0
-0.00144423 0.00907105 0
-0.000555986 0.00852553 0
-0.000144698 0.00631278 0
-1.56996e-05 0.0025961 0
-0.000381624 0.003655 0
-0.00187195 0.0108685 0
-0.00480513 0.0180308 0
-0.00914344 0.0250205 0
-0.0148246 0.0317757 0
-0.0217742 0.0382947 0
-0.0299184 0.0446219 0
-0.0391941 0.0508224 0
-0.049554 0.056946 0
-0.0609638 0.062992 0
-0.0733924 0.0688788 0
-0.0794472 0.0744289 0
-0.0864156 0.079354 0
-0.101608 0.0841405 0
-0.117612 0.0881495 0
-0.134267 0.0908624 0
-0.151334 0.0918356 0
-0.168509 0.0906842 0
-0.185442 0.0870901 0
-0.201754 0.0808243 0
-0.217053 0.0717682 0
-0.230953 0.0599281 0
-0.243087 0.0454379 0
-0.249941 0.0285505 0
-0.254398 0.00965843 0
-0.259216 -0.00979144 0
-0.260818 -0.0301674 0
-0.258985 -0.0505357 0
-0.253518 -0.0700268 0
-0.244272 -0.0877011 0
-0.2312 -0.102592 0
-0.214411 -0.11376 0
-0.194236 -0.12037 0
-0.171282 -0.121805 0
-0.146451 -0.117769 0
-0.13302 -0.108381 0
-0.120236 -0.0942876 0
-0.0968941 -0.0819768 0
-0.0757206 -0.0685687 0
-0.0573479 -0.05452 0
-0.0420166 -0.040707 0
-0.0296837 -0.0279133 0
-0.0201176 -0.0167223 0
-0.012975 -0.00751229 0
-0.00786409 -0.000486097 0
-0.00438827 0.00429 0
-0.00217562 0.00684972 0
-0.000894428 0.00729727 0
-0.000260056 0.00578539 0
-3.6017e-05 0.00249979 0
-0.000426536 0.00520331 0
-0.00208512 0.0150937 0
-0.00533472 0.0245745 0
-0.0101186 0.0335192 0
-0.0163535 0.0418861 0
-0.0239439 0.0497141 0
-0.032797 0.057102 0
-0.042834 0.0641728 0
-0.0539953 0.0710275 0
-0.0662384 0.0777007 0
-0.0795276 0.0841274 0
-0.0859968 0.0901284 0
-0.0934102 0.0954051 0
-0.109536 0.100512 0
-0.126461 0.104718 0
-0.144005 0.107441 0
-0.16192 0.108196 0
-0.179898 0.106571 0
-0.19759 0.102237 0
-0.214624 0.0949655 0
-0.230625 0.0846488 0
-0.245235 0.0713144 0
-0.258131 0.0551239 0
-0.265247 0.0363596 0
-0.270171 0.0154511 0
-0.276239 -0.00654208 0
-0.279215 -0.0295998 0
-0.278932 -0.0528569 0
-0.275164 -0.0754648 0
-0.267682 -0.0964864 0
-0.256294 -0.114913 0
-0.240908 -0.129694 0
-0.221617 -0.139812 0
-0.198783 -0.14438 0
-0.173099 -0.142783 0
-0.159547 -0.1348 0
-0.145536 -0.120766 0
-0.118523 -0.107663 0
-0.0936488 -0.0923616 0
-0.0717442 -0.0757304 0
-0.0531908 -0.058959 0
-0.0380484 -0.0430881 0
-0.0261362 -0.0289038 0
-0.017114 -0.016928 0
-0.0105582 -0.00745303 0
-0.00602005 -0.000590644 0
-0.00306741 0.00367858 0
-0.00130804 0.00546496 0
-0.000401229 0.00493961 0
-6.08943e-05 0.00231351 0
-0.000464488 0.00696489 0
-0.00226541 0.0198781 0
-0.00578294 0.0319542 0
-0.0109444 0.0430647 0
-0.0176483 0.0531946 0
-0.0257806 0.0624331 0
-0.0352308 0.0709443 0
-0.045905 0.07892 0
-0.0577316 0.0865217 0
-0.0706591 0.0938272 0
-0.0846467 0.100794 0
-0.0914551 0.107245 0
-0.0992211 0.112877 0
-0.116064 0.118268 0
-0.133667 0.122611 0
-0.151833 0.125269 0
-0.170299 0.125721 0
-0.188749 0.123534 0
-0.206835 0.118369 0
-0.22419 0.110006 0
-0.24046 0.0983592 0
-0.255326 0.0834934 0
-0.268527 0.0656151 0
-0.275659 0.0450558 0
-0.280834 0.0222948 0
-0.287818 -0.00220332 0
-0.291983 -0.0278058 0
-0.293231 -0.053808 0
-0.291337 -0.0794194 0
-0.286016 -0.103764 0
-0.276947 -0.12585 0
-0.263833 -0.144583 0
-0.246499 -0.158803 0
-0.22499 -0.167384 0
-0.199674 -0.169367 0
-0.1868 -0.164131 0
-0.172064 -0.15155 0
-0.141881 -0.138026 0
-0.11356 -0.120988 0
-0.0881128 -0.101709 0
-0.0661406 -0.081692 0
-0.0478916 -0.0622841 0
-0.0333058 -0.0445412 0
-0.0220937 -0.0291932 0
-0.0138263 -0.0166714 0
-0.00801374 -0.00716598 0
-0.00416418 -0.000690309 0
-0.00182005 0.00286401 0
-0.000577241 0.00368482 0
-9.218e-05 0.00201013 0
-0.000492331 0.0089117 0
-0.0023984 0.0251504 0
-0.00611543 0.040066 0
-0.0115601 0.05353 0
-0.018618 0.0655582 0
-0.0271604 0.0762971 0
-0.0370619 0.0859848 0
-0.0482144 0.0948908 0
-0.0605339 0.103246 0
-0.0739588 0.111178 0
-0.0884406 0.118671 0
-0.0954956 0.125559 0
-0.103497 0.131532 0
-0.120782 0.137146 0
-0.138757 0.141541 0
-0.157204 0.144034 0
-0.175844 0.144071 0
-0.194353 0.141199 0
-0.212378 0.135082 0
-0.229562 0.125515 0
-0.245579 0.112454 0
-0.26016 0.0960161 0
-0.273116 0.0764748 0
-0.279993 0.054228 0
-0.285145 0.0298094 0
-0.292575 0.00298654 0
-0.297597 -0.0248825 0
-0.300191 -0.053316 0
-0.300163 -0.0816187 0
-0.297209 -0.109032 0
-0.290919 -0.134655 0
-0.280823 -0.157423 0
-0.266482 -0.176121 0
-0.247598 -0.189441 0
-0.224142 -0.19612 0
-0.212828 -0.195119 0
-0.19814 -0.185737 0