# vtk DataFile Version 2.0
Presion
ASCII

DATASET STRUCTURED_GRID
DIMENSIONS   50   50   20

POINTS   50000   double
0.00568455   0.00568455   0.025
0.0174023   0.00568455   0.025
0.0298294   0.00568455   0.025
0.0429888   0.00568455   0.025
0.0569012   0.00568455   0.025
0.0715849   0.00568455   0.025
0.0870549   0.00568455   0.025
0.103323   0.00568455   0.025
0.120395   0.00568455   0.025
0.138275   0.00568455   0.025
0.156961   0.00568455   0.025
0.176443   0.00568455   0.025
0.196707   0.00568455   0.025
0.217734   0.00568455   0.025
0.239496   0.00568455   0.025
0.261959   0.00568455   0.025
0.285082   0.00568455   0.025
0.308818   0.00568455   0.025
0.333113   0.00568455   0.025
0.357906   0.00568455   0.025
0.383132   0.00568455   0.025
0.408719   0.00568455   0.025
0.434592   0.00568455   0.025
0.460672   0.00568455   0.025
0.486877   0.00568455   0.025
0.513123   0.00568455   0.025
0.539328   0.00568455   0.025
0.565408   0.00568455   0.025
0.591281   0.00568455   0.025
0.616868   0.00568455   0.025
0.642094   0.00568455   0.025
0.666887   0.00568455   0.025
0.691182   0.00568455   0.025
0.714918   0.00568455   0.025
0.738041   0.00568455   0.025
0.760504   0.00568455   0.025
0.782266   0.00568455   0.025
0.803293   0.00568455   0.025
0.823557   0.00568455   0.025
0.843039   0.00568455   0.025
0.861725   0.00568455   0.025
0.879605   0.00568455   0.025
0.896677   0.00568455   0.025
0.912945   0.00568455   0.025
0.928415   0.00568455   0.025
0.943099   0.00568455   0.025
0.957011   0.00568455   0.025
0.970171   0.00568455   0.025
0.982598   0.00568455   0.025
0.994315   0.00568455   0.025
0.00568455   0.0174023   0.025
0.0174023   0.0174023   0.025
0.0298294   0.0174023   0.025
0.0429888   0.0174023   0.025
0.0569012   0.0174023   0.025
0.0715849   0.0174023   0.025
0.0870549   0.0174023   0.025
0.103323   0.0174023   0.025
0.120395   0.0174023   0.025
0.138275   0.0174023   0.025
0.156961   0.0174023   0.025
0.176443   0.0174023   0.025
0.196707   0.0174023   0.025
0.217734   0.0174023   0.025
0.239496   0.0174023   0.025
0.261959   0.0174023   0.025
0.285082   0.0174023   0.025
0.308818   0.0174023   0.025
0.333113   0.0174023   0.025
0.357906   0.0174023   0.025
0.383132   0.0174023   0.025
0.408719   0.0174023   0.025
0.434592   0.0174023   0.025
0.460672   0.0174023   0.025
0.486877   0.0174023   0.025
0.513123   0.0174023   0.025
0.539328   0.0174023   0.025
0.565408   0.0174023   0.025
0.591281   0.0174023   0.025
0.616868   0.0174023   0.025
0.642094   0.0174023   0.025
0.666887   0.0174023   0.025
0.691182   0.0174023   0.025
0.714918   0.0174023   0.025
0.738041   0.0174023   0.025
0.760504   0.0174023   0.025
0.782266   0.0174023   0.025
0.803293   0.0174023   0.025
0.823557   0.0174023   0.025
0.843039   0.0174023   0.025
0.861725   0.0174023   0.025
0.879605   0.0174023   0.025
0.896677   0.0174023   0.025
0.912945   0.0174023   0.025
0.928415   0.0174023   0.025
0.943099   0.0174023   0.025
0.957011   0.0174023   0.025
0.970171   0.0174023   0.025
0.982598   0.0174023   0.025
0.994315   0.0174023   0.025
0.00568455   0.0298294   0.025
0.0174023   0.0298294   0.025
0.0298294   0.0298294   0.025
0.0429888   0.0298294   0.025
0.0569012   0.0298294   0.025
0.0715849   0.0298294   0.025
0.0870549   0.0298294   0.025
0.103323   0.0298294   0.025
0.120395   0.0298294   0.025
0.138275   0.0298294   0.025
0.156961   0.0298294   0.025
0.176443   0.0298294   0.025
0.196707   0.0298294   0.025
0.217734   0.0298294   0.025
0.239496   0.0298294   0.025
0.261959   0.0298294   0.025
0.285082   0.0298294   0.025
0.308818   0.0298294   0.025
0.333113   0.0298294   0.025
0.357906   0.0298294   0.025
0.383132   0.0298294   0.025
0.408719   0.0298294   0.025
0.434592   0.0298294   0.025
0.460672   0.0298294   0.025
0.486877   0.0298294   0.025
0.513123   0.0298294   0.025
0.539328   0.0298294   0.025
0.565408   0.0298294   0.025
0.591281   0.0298294   0.025
0.616868   0.0298294   0.025
0.642094   0.0298294   0.025
0.666887   0.0298294   0.025
0.691182   0.0298294   0.025
0.714918   0.0298294   0.025
0.738041   0.0298294   0.025
0.760504   0.0298294   0.025
0.782266   0.0298294   0.025
0.803293   0.0298294   0.025
0.823557   0.0298294   0.025
0.843039   0.0298294   0.025
0.861725   0.0298294   0.025
0.879605   0.0298294   0.025
0.896677   0.0298294   0.025
0.912945   0.0298294   0.025
0.928415   0.0298294   0.025
0.943099   0.0298294   0.025
0.957011   0.0298294   0.025
0.970171   0.0298294   0.025
0.982598   0.0298294   0.025
0.994315   0.0298294   0.025
0.00568455   0.0429888   0.025
0.0174023   0.0429888   0.025
0.0298294   0.0429888   0.025
0.0429888   0.0429888   0.025
0.0569012   0.0429888   0.025
0.0715849   0.0429888   0.025
0.0870549   0.0429888   0.025
0.103323   0.0429888   0.025
0.120395   0.0429888   0.025
0.138275   0.0429888   0.025
0.156961   0.0429888   0.025
0.176443   0.0429888   0.025
0.196707   0.0429888   0.025
0.217734   0.0429888   0.025
0.239496   0.0429888   0.025
0.261959   0.0429888   0.025
0.285082   0.0429888   0.025
0.308818   0.0429888   0.025
0.333113   0.0429888   0.025
0.357906   0.0429888   0.025
0.383132   0.0429888   0.025
0.408719   0.0429888   0.025
0.434592   0.0429888   0.025
0.460672   0.0429888   0.025
0.486877   0.0429888   0.025
0.513123   0.0429888   0.025
0.539328   0.0429888   0.025
0.565408   0.0429888   0.025
0.591281   0.0429888   0.025
0.616868   0.0429888   0.025
0.642094   0.0429888   0.025
0.666887   0.0429888   0.025
0.691182   0.0429888   0.025
0.714918   0.0429888   0.025
0.738041   0.0429888   0.025
0.760504   0.0429888   0.025
0.782266   0.0429888   0.025
0.803293   0.0429888   0.025
0.823557   0.0429888   0.025
0.843039   0.0429888   0.025
0.861725   0.0429888   0.025
0.879605   0.0429888   0.025
0.896677   0.0429888   0.025
0.912945   0.0429888   0.025
0.928415   0.0429888   0.025
0.943099   0.0429888   0.025
0.957011   0.0429888   0.025
0.970171   0.0429888   0.025
0.982598   0.0429888   0.025
0.994315   0.0429888   0.025
0.00568455   0.0569012   0.025
0.0174023   0.0569012   0.025
0.0298294   0.0569012   0.025
0.0429888   0.0569012   0.025
0.0569012   0.0569012   0.025
0.0715849   0.0569012   0.025
0.0870549   0.0569012   0.025
0.103323   0.0569012   0.025
0.120395   0.0569012   0.025
0.138275   0.0569012   0.025
0.156961   0.0569012   0.025
0.176443   0.0569012   0.025
0.196707   0.0569012   0.025
0.217734   0.0569012   0.025
0.239496   0.0569012   0.025
0.261959   0.0569012   0.025
0.285082   0.0569012   0.025
0.308818   0.0569012   0.025
0.333113   0.0569012   0.025
0.357906   0.0569012   0.025
0.383132   0.0569012   0.025
0.408719   0.0569012   0.025
0.434592   0.0569012   0.025
0.460672   0.0569012   0.025
0.486877   0.0569012   0.025
0.513123   0.0569012   0.025
0.539328   0.0569012   0.025
0.565408   0.0569012   0.025
0.591281   0.0569012   0.025
0.616868   0.0569012   0.025
0.642094   0.0569012   0.025
0.666887   0.0569012   0.025
0.691182   0.0569012   0.025
0.714918   0.0569012   0.025
0.738041   0.0569012   0.025
0.760504   0.0569012   0.025
0.782266   0.0569012   0.025
0.803293   0.0569012   0.025
0.823557   0.0569012   0.025
0.843039   0.0569012   0.025
0.861725   0.0569012   0.025
0.879605   0.0569012   0.025
0.896677   0.0569012   0.025
0.912945   0.0569012   0.025
0.928415   0.0569012   0.025
0.943099   0.0569012   0.025
0.957011   0.0569012   0.025
0.970171   0.0569012   0.025
0.982598   0.0569012   0.025
0.994315   0.0569012   0.025
0.00568455   0.0715849   0.025
0.0174023   0.0715849   0.025
0.0298294   0.0715849   0.025
0.0429888   0.0715849   0.025
0.0569012   0.0715849   0.025
0.0715849   0.0715849   0.025
0.0870549   0.0715849   0.025
0.103323   0.0715849   0.025
0.120395   0.0715849   0.025
0.138275   0.0715849   0.025
0.156961   0.0715849   0.025
0.176443   0.0715849   0.025
0.196707   0.0715849   0.025
0.217734   0.0715849   0.025
0.239496   0.0715849   0.025
0.261959   0.0715849   0.025
0.285082   0.0715849   0.025
0.308818   0.0715849   0.025
0.333113   0.0715849   0.025
0.357906   0.0715849   0.025
0.383132   0.0715849   0.025
0.408719   0.0715849   0.025
0.434592   0.0715849   0.025
0.460672   0.0715849   0.025
0.486877   0.0715849   0.025
0.513123   0.0715849   0.025
0.539328   0.0715849   0.025
0.565408   0.0715849   0.025
0.591281   0.0715849   0.025
0.616868   0.0715849   0.025
0.642094   0.0715849   0.025
0.666887   0.0715849   0.025
0.691182   0.0715849   0.025
0.714918   0.0715849   0.025
0.738041   0.0715849   0.025
0.760504   0.0715849   0.025
0.782266   0.0715849   0.025
0.803293   0.0715849   0.025
0.823557   0.0715849   0.025
0.843039   0.0715849   0.025
0.861725   0.0715849   0.025
0.879605   0.0715849   0.025
0.896677   0.0715849   0.025
0.912945   0.0715849   0.025
0.928415   0.0715849   0.025
0.943099   0.0715849   0.025
0.957011   0.0715849   0.025
0.970171   0.0715849   0.025
0.982598   0.0715849   0.025
0.994315   0.0715849   0.025
0.00568455   0.0870549   0.025
0.0174023   0.0870549   0.025
0.0298294   0.0870549   0.025
0.0429888   0.0870549   0.025
0.0569012   0.0870549   0.025
0.0715849   0.0870549   0.025
0.0870549   0.0870549   0.025
0.103323   0.0870549   0.025
0.120395   0.0870549   0.025
0.138275   0.0870549   0.025
0.156961   0.0870549   0.025
0.176443   0.0870549   0.025
0.196707   0.0870549   0.025
0.217734   0.0870549   0.025
0.239496   0.0870549   0.025
0.261959   0.0870549   0.025
0.285082   0.0870549   0.025
0.308818   0.0870549   0.025
0.333113   0.0870549   0.025
0.357906   0.0870549   0.025
0.383132   0.0870549   0.025
0.408719   0.0870549   0.025
0.434592   0.0870549   0.025
0.460672   0.0870549   0.025
0.486877   0.0870549   0.025
0.513123   0.0870549   0.025
0.539328   0.0870549   0.025
0.565408   0.0870549   0.025
0.591281   0.0870549   0.025
0.616868   0.0870549   0.025
0.642094   0.0870549   0.025
0.666887   0.0870549   0.025
0.691182   0.0870549   0.025
0.714918   0.0870549   0.025
0.738041   0.0870549   0.025
0.760504   0.0870549   0.025
0.782266   0.0870549   0.025
[...]
POINT_DATA   50000
SCALARS Presion double
LOOKUP_TABLE   Presion

0 0 0 0 0 0 0 0 0 0 0 0 0 0 0 0 0 0 0 0 0 0 0 0 0 0 0 0 0 0 0 0 0 0 0 0 0 0 0 0 0 0 0 0 0 0 0 0 0 0 0.00166201 0.00180942 0.00198736 0.00211608 0.00218105 0.00218343 0.00212782 0.00201933 0.00186284 0.00166262 0.00142205 0.00114287 0.000683228 0.00040405 0.000154881 -6.22161e-05 -0.000242121 -0.000376431 -0.000455343 -0.00047005 -0.000415179 -0.000290814 -0.000103461 0.000134261 0.000385144 0.00063498 0.000850047 0.00100338 0.00107349 0.00104652 0.000917813 0.000692563 0.00038552 1.98096e-05 -0.000374941 -0.000763961 -0.00101268 -0.0013748 -0.00171187 -0.00200637 -0.00224783 -0.00243057 -0.00255168 -0.00260972 -0.00260392 -0.00253379 -0.00239938 -0.00220421 -0.00196873 -0.00178556 0.00218166 0.00217054 0.00222054 0.00227144 0.0022935 0.00227445 0.00221058 0.00210217 0.00195143 0.00176159 0.001537 0.00128167 0.000761035 0.000508501 0.000273254 6.24635e-05 -0.000116471 -0.000254492 -0.000341851 -0.000369991 -0.000333671 -0.000232813 -7.34913e-05 0.000130584 0.000353572 0.000572088 0.000758107 0.000886107 0.000935789 0.000894131 0.000756923 0.000529355 0.000225537 -0.000133032 -0.000520103 -0.000905537 -0.0010824 -0.00144158 -0.00176776 -0.00204953 -0.00227964 -0.00245436 -0.00257242 -0.00263428 -0.00264204 -0.00259998 -0.00251655 -0.00240911 -0.00231383 -0.00230026 0.00253386 0.00248393 0.00246935 0.00246398 0.00244629 0.00240266 0.0023259 0.00221323 0.00206473 0.00188255 0.00167113 0.00143376 0.000843471 0.000613396 0.000390544 0.000184131 3.05318e-06 -0.000142972 -0.000243967 -0.000291182 -0.000278937 -0.000206366 -7.86352e-05 8.93602e-05 0.000289108 0.000482288 0.000646778 0.000757974 0.000795668 0.000746403 0.000605285 0.00037674 7.40013e-05 -0.000282733 -0.000669462 -0.00105753 -0.00115855 -0.00151988 -0.00184075 -0.00211447 -0.00233721 -0.00250763 -0.00262634 -0.00269576 -0.00272029 -0.00270701 -0.00266723 -0.00261871 -0.00258738 -0.00260424 0.00282697 0.00276729 0.00272082 0.00267879 0.00262951 0.00256281 0.00247161 0.002352 0.00220278 0.00202516 0.00182318 0.00159817 0.000932956 0.000719158 0.000504468 0.000298265 0.000110045 -5.00136e-05 -0.000171506 -0.000245023 -0.000263796 -0.000225406 -0.000133336 -2.94391e-06 0.000175493 0.000349446 0.00050019 0.000603713 0.000638925 0.000590712 0.000452316 0.000226497 -7.48389e-05 -0.000432655 -0.000824234 -0.00122032 -0.00124549 -0.00161303 -0.00193304 -0.00220289 -0.00242208 -0.00259163 -0.002714 -0.00279309 -0.00283445 -0.00284573 -0.00283715 -0.00282158 -0.00281325 -0.00282329 0.0031105 0.00304249 0.00297616 0.00290914 0.00283566 0.00274914 0.00264387 0.00251596 0.00236359 0.00218723 0.00199021 0.00177137 0.00102887 0.000823552 0.000610159 0.000397329 0.000194448 1.19098e-05 -0.000139286 -0.000248583 -0.000307384 -0.00031082 -0.000259644 -0.000168527 -1.12912e-05 0.000148844 0.000293578 0.000399252 0.00044301 0.000406873 0.00028092 6.50962e-05 -0.000230799 -0.000589074 -0.000987708 -0.00139536 -0.00134819 -0.00172461 -0.00204683 -0.00231616 -0.00253515 -0.00270692 -0.00283529 -0.00292498 -0.0029817 -0.00301221 -0.0030242 -0.00302572 -0.00302378 -0.00302199 0.00340414 0.00332244 0.00323844 0.00315155 0.00305865 0.00295534 0.0028371 0.00270027 0.00254263 0.00236393 0.00216661 0.00194671 0.00112704 0.00092064 0.000698946 0.000469546 0.000241291 2.46252e-05 -0.000168663 -0.000326333 -0.000437151 -0.000492777 -0.000489997 -0.00044144 -0.000305295 -0.000155444 -9.51404e-06 0.000108898 0.000174313 0.000164631 6.52684e-05 -0.000128162 -0.000409212 -0.000762212 -0.00116575 -0.00158542 -0.00147302 -0.00185866 -0.0021842 -0.00245517 -0.00267673 -0.00285345 -0.00298989 -0.00309086 -0.00316152 -0.00320724 -0.00323335 -0.00324462 -0.0032446 -0.00323475 0.00371203 0.00361045 0.00350714 0.00340167 0.00329172 0.00317367 0.00304339 0.00289708 0.00273193 0.00254678 0.0023429 0.00211333 0.00121867 0.000999491 0.000756896 0.000497404 0.000229153 -3.73761e-05 -0.000289328 -0.000512185 -0.000691199 -0.000813466 -0.000870458 -0.000871308 -0.0007536 -0.000613909 -0.000460847 -0.000318439 -0.00021563 -0.000179998 -0.000232581 -0.000384102 -0.000633329 -0.000967971 -0.00136778 -0.00179496 -0.00162894 -0.00202011 -0.00234721 -0.00262037 -0.00284659 -0.00303089 -0.00317764 -0.00329111 -0.00337548 -0.00343472 -0.00347243 -0.00349158 -0.00349431 -0.0034818 0.00402837 0.00390148 0.0037761 0.00365154 0.00352528 0.00339344 0.00325142 0.00309461 0.00291913 0.0027225 0.00250446 0.00225492 0.00128886 0.00104264 0.000763173 0.000455953 0.000128423 -0.00020876 -0.000541285 -0.00085169 -0.0011208 -0.00133001 -0.00146412 -0.00152722 -0.00142004 -0.00129563 -0.00113189 -0.000953984 -0.000795114 -0.000689779 -0.000667588 -0.000748176 -0.00093818 -0.00123092 -0.00160876 -0.00203098 -0.00182919 -0.00221573 -0.00253848 -0.00281224 -0.00304439 -0.00323894 -0.00339889 -0.00352719 -0.00362671 -0.00370018 -0.00375002 -0.00377829 -0.00378671 -0.00377669 0.00433924 0.00418263 0.00403252 0.00388774 0.00374503 0.00359945 0.00344512 0.00327593 0.00308628 0.00287184 0.00263031 0.00234839 0.00131497 0.00102448 0.00068834 0.000311078 -0.000100451 -0.00053514 -0.000976732 -0.00140409 -0.00179268 -0.00211703 -0.00235397 -0.00250087 -0.00238927 -0.00229248 -0.00211851 -0.00189433 -0.00165805 -0.0014525 -0.00131819 -0.0012868 -0.00137637 -0.00158917 -0.00191274 -0.00230532 -0.00209432 -0.00245608 -0.00276259 -0.00303229 -0.00327051 -0.00347799 -0.00365482 -0.00380161 -0.00391954 -0.00401004 -0.00407468 -0.00411507 -0.00413287 -0.00412987 0.00462276 0.00443317 0.00425625 0.00409016 0.00393042 0.00377044 0.00360231 0.0034177 0.00320864 0.00296833 0.00269186 0.0023627 0.00126509 0.000909711 0.000492866 1.80335e-05 -0.000508373 -0.00107443 -0.00166137 -0.00224359 -0.0027902 -0.00326776 -0.0036439 -0.00390729 -0.00377018 -0.00372231 -0.00354444 -0.00326569 -0.00292925 -0.0025873 -0.00229355 -0.0020952 -0.00202601 -0.00210176 -0.00231916 -0.00263937 -0.00245708 -0.00275915 -0.00302889 -0.00328532 -0.00352767 -0.0037503 -0.00394821 -0.00411837 -0.0042595 -0.00437153 -0.00445519 -0.00451175 -0.00454294 -0.00455089 0.00484878 0.0046242 0.00441921 0.00423106 0.00405359 0.00387794 0.00369354 0.00348914 0.00325376 0.00297749 0.00265218 0.0022581 0.00109691 0.000652405 0.000126257 -0.000479288 -0.00115812 -0.0018971 -0.0026743 -0.00345881 -0.00421233 -0.00489226 -0.00545597 -0.00588082 -0.00569649 -0.00572859 -0.00556102 -0.00522436 -0.00476621 -0.00424841 -0.00373942 -0.00330519 -0.00299992 -0.00285853 -0.00289257 -0.00307306 -0.00296981 -0.00315637 -0.00335647 -0.00358312 -0.00382367 -0.00406186 -0.00428473 -0.00448372 -0.00465399 -0.00479331 -0.00490131 -0.00497884 -0.00502764 -0.00505013 0.00497873 0.00471857 0.00448525 0.00427478 0.00407883 0.00388568 0.00368151 0.00345151 0.00318106 0.00285652 0.00246587 0.0019862 0.000757594 0.00019602 -0.000472644 -0.00124769 -0.00212322 -0.00308441 -0.00410544 -0.00514912 -0.00616857 -0.00711074 -0.00792156 -0.0085639 -0.00832114 -0.00847298 -0.00833895 -0.00794887 -0.00735302 -0.00662169 -0.00583818 -0.00508917 -0.00445348 -0.00399126 -0.00373593 -0.00367936 -0.00371403 -0.00370149 -0.00378137 -0.00394997 -0.00417523 -0.00442507 -0.00467478 -0.00490758 -0.00511327 -0.00528643 -0.00542492 -0.00552884 -0.00559979 -0.00564042 0.00496622 0.00467151 0.00441071 0.0041782 0.00396299 0.00374999 0.00352148 0.00325859 0.00294247 0.00255514 0.00208008 0.00149117 0.000185014 -0.000524904 -0.00137347 -0.00236186 -0.00348423 -0.00472355 -0.0060492 -0.0074165 -0.0087685 -0.0100402 -0.0111648 -0.0120868 -0.0118004 -0.0121167 -0.0120479 -0.0116193 -0.0108809 -0.0099081 -0.00879689 -0.00765417 -0.00658555 -0.00568156 -0.00500519 -0.00458441 -0.00480955 -0.0044807 -0.00436525 -0.00442907 -0.00461263 -0.00486195 -0.00513564 -0.00540497 -0.0056517 -0.00586537 -0.00604103 -0.0061774 -0.00627563 -0.00633841 0.00475867 0.00443228 0.00414604 0.00389236 0.00365712 0.00342133 0.00316293 0.00285848 0.0024844 0.00201784 0.00143716 0.000712831 -0.000688804 -0.00158076 -0.00264958 -0.0038986 -0.00532172 -0.00689894 -0.00859361 -0.0103519 -0.0121052 -0.0137744 -0.0152786 -0.01654 -0.0162649 -0.0167888 -0.0168221 -0.0163814 -0.0155118 -0.0142893 -0.0128172 -0.0112185 -0.00962414 -0.00815751 -0.00691785 -0.00598764 -0.00641684 -0.00561978 -0.00520246 -0.00508837 -0.00518396 -0.00540705 -0.00569353 -0.00599752 -0.00628873 -0.00654896 -0.00676868 -0.0069442 -0.00707564 -0.00716554 0.0043005 0.00394724 0.00363889 0.00336549 0.00310943 0.00284746 0.0025528 0.00219705 0.0017515 0.00118795 0.000479112 -0.000408314 -0.00193171 -0.00304014 -0.00437035 -0.00592782 -0.00770559 -0.00967946 -0.0118051 -0.0140174 -0.0162337 -0.0183593 -0.0202969 -0.0219439 -0.0217798 -0.0225441 -0.0227158 -0.0222989 -0.0213293 -0.0198771 -0.0180456 -0.0159661 -0.0137888 -0.0116677 -0.00974177 -0.00816649 -0.00872265 -0.00728075 -0.00642117 -0.00602337 -0.00595812 -0.00610995 -0.00638527 -0.0067144 -0.00704957 -0.00736077 -0.00763119 -0.0078531 -0.00802474 -0.00814804 0.00353768 0.00316436 0.00283849 0.00254746 0.00226991 0.0019781 0.00164032 0.00122298 0.000691975 1.34277e-05 -0.00084601 -0.00192398 -0.00360284 -0.00496046 -0.00659072 -0.00850075 -0.0106816 -0.013103 -0.0157108 -0.0184263 -0.0211502 -0.02377 -0.0261711 -0.0282256 -0.028303 -0.0293229 -0.0296615 -0.0293087 -0.0282879 -0.0266577 -0.0245132 -0.0219838 -0.0192284 -0.0164239 -0.0137479 -0.0114411 -0.0119029 -0.00964162 -0.00817477 -0.00735525 -0.00702576 -0.00703672 -0.00725943 -0.00759304 -0.00796531 -0.00832886 -0.0086557 -0.00893161 -0.00915151 -0.00931608 0.0024237 0.00203903 0.00170143 0.00139553 0.00109612 0.000770905 0.000383235 -0.000105712 -0.000735522 -0.0015459 -0.00257639 -0.00386962 -0.00574216 -0.00737688 -0.00933924 -0.0116369 -0.0142572 -0.0171617 -0.0202833 -0.0235273 -0.0267757 -0.0298972 -0.0327593 -0.0352124 -0.0356608 -0.03693 -0.0374499 -0.0371981 -0.0361847 -0.034454 -0.0320863 -0.0291993 -0.0259477 -0.0225191 -0.0191219 -0.0160814 -0.0160707 -0.0128606 -0.0106226 -0.00922282 -0.00849717 -0.00827023 -0.00837704 -0.00867934 -0.0090726 -0.00948503 -0.00987207 -0.0102094 -0.0104865 -0.0107017 0.000926208 0.000540419 0.000198005 -0.000119265 -0.000440348 -0.000801918 -0.0012454 -0.00181466 -0.00255462 -0.00351068 -0.00472844 -0.00625594 -0.00835989 -0.0102914 -0.0126069 -0.0153129 -0.0183908 -0.0217911 -0.0254314 -0.0291984 -0.0329546 -0.0365499 -0.0398358 -0.0426476 -0.0435566 -0.0450489 -0.0457471 -0.0456217 -0.0446721 -0.0429294 -0.0404564 -0.0373517 -0.0337549 -0.0298495 -0.0258603 -0.0221775 -0.0212328 -0.0170356 -0.0139026 -0.011767 -0.0104953 -0.0099077 -0.00981091 -0.0100272 -0.0104128 -0.0108634 -0.0113109 -0.0117161 -0.0120597 -0.0123361 -0.0009667 -0.00134227 -0.00168172 -0.00200603 -0.00234768 -0.00274735 -0.00325082 -0.00390662 -0.00476459 -0.00587537 -0.00729004 -0.00906208 -0.0114282 -0.0136647 -0.0163397 -0.0194561 -0.0229868 -0.0268688 -0.0310024 -0.0352543 -0.0394678 -0.0434764 -0.047119 -0.0502252 -0.0516176 -0.0532927 -0.0541502 -0.0541596 -0.0533161 -0.0516414 -0.0491829 -0.0460183 -0.042264 -0.0380859 -0.0337065 -0.0295407 -0.0272763 -0.0221715 -0.0180979 -0.0151064 -0.0131407 -0.0120529 -0.0116419 -0.0116965 -0.0120301 -0.0124981 -0.013001 -0.013478 -0.013897 -0.0142458 -0.00324155 -0.00359517 -0.00392328 -0.00424947 -0.0046093 -0.00504695 -0.00561198 -0.00635694 -0.00733591 -0.00860398 -0.0102167 -0.0122325 -0.0148775 -0.017414 -0.0204376 -0.0239457 -0.0279003 -0.0322233 -0.0367962 -0.0414665 -0.0460602 -0.050398 -0.0543119 -0.0576348 -0.059465 -0.0612766 -0.0622623 -0.0623977 -0.0616805 -0.0601295 -0.0577815 -0.054696 -0.0509644 -0.0467248 -0.0421773 -0.0377119 -0.0339857 -0.0281632 -0.0232043 -0.0193043 -0.0165269 -0.0148006 -0.0139496 -0.0137471 -0.013967 -0.0144195 -0.0149651 -0.015514 -0.0160157 -0.016448 -0.00585732 -0.00617759 -0.00648581 -0.00680788 -0.00718195 -0.00765508 -0.0082799 -0.00911212 -0.0102092 -0.0116296 -0.013432 -0.0156785 -0.0185996 -0.0214169 -0.024761 -0.0286222 -0.0329503 -0.0376511 -0.042588 -0.0475914 -0.0524732 -0.0570462 -0.0611412 -0.064602 -0.0667785 -0.0686806 -0.0697582 -0.0699976 -0.0694048 -0.0680013 -0.06582 -0.0629078 -0.0593338 -0.0552041 -0.0506809 -0.0460851 -0.0410723 -0.0347937 -0.029105 -0.0243349 -0.0206891 -0.0182123 -0.0167964 -0.0162289 -0.0162577 -0.016648 -0.0172145 -0.0178299 -0.0184187 -0.0189444 -0.0087466 -0.00902329 -0.00930332 -0.00961456 -0.00999728 -0.0105007 -0.0111797 -0.0120923 -0.0132983 -0.0148581 -0.0168324 -0.0192847 -0.0224563 -0.0255218 -0.0291435 -0.0333031 -0.0379382 -0.0429392 -0.0481537 -0.0533977 -0.0584739 -0.0631918 -0.0673857 -0.0709144 -0.0733329 -0.0752849 -0.0764187 -0.0767335 -0.0762465 -0.0749857 -0.0729858 -0.0702876 -0.0669437 -0.0630303 -0.0586648 -0.0540754 -0.0482052 -0.0417522 -0.0355647 -0.030059 -0.0255722 -0.0222879 -0.0202056 -0.0191659 -0.0189163 -0.0191861 -0.0197416 -0.0204115 -0.021088 -0.0217149 -0.0118205 -0.0120452 -0.0122895 -0.0125828 -0.012967 -0.0134927 -0.0142165 -0.0151976 -0.0164971 -0.0181762 -0.0202957 -0.0229189 -0.0262931 -0.0295633 -0.0334081 -0.0378009 -0.0426678 -0.0478863 -0.0532911 -0.0586881 -0.0638747 -0.0686611 -0.0728881 -0.0764304 -0.0790004 -0.0809699 -0.0821298 -0.0824914 -0.082083 -0.080941 -0.0791051 -0.076616 -0.0735168 -0.0698608 -0.0657236 -0.061242 -0.0550436 -0.0486704 -0.0422506 -0.0362223 -0.0310132 -0.0269408 -0.0241381 -0.0225387 -0.0219242 -0.0220078 -0.022512 -0.0232175 -0.0239774 -0.0247105 -0.0149765 -0.0151434 -0.0153456 -0.0156137 -0.0159908 -0.0165286 -0.017284 -0.0183172 -0.0196892 -0.0214611 -0.0236925 -0.0264443 -0.0299537 -0.0333773 -0.037384 -0.0419399 -0.0469622 -0.0523183 -0.057834 -0.0633092 -0.0685393 -0.0733376 -0.0775523 -0.0810722 -0.083731 -0.085695 -0.0868591 -0.0872435 -0.0868854 -0.0858296 -0.0841224 -0.0818082 -0.0789279 -0.0755209 -0.0716319 -0.0673263 -0.0612737 -0.0551754 -0.0487793 -0.0424827 -0.0367458 -0.0319869 -0.0284753 -0.0262672 -0.0252166 -0.0250489 -0.0254565 -0.0261726 -0.0270068 -0.0278472 -0.0181082 -0.0182142 -0.0183695 -0.0186057 -0.0189665 -0.0195038 -0.020275 -0.0213399 -0.0227591 -0.0245924 -0.0268973 -0.0297306 -0.0332937 -0.0368148 -0.0409198 -0.0455695 -0.0506751 -0.0560978 -0.0616583 -0.0671538 -0.0723804 -0.0771549 -0.0813322 -0.0848117 -0.0875244 -0.0894697 -0.0906246 -0.0910144 -0.0906824 -0.0896801 -0.0880608 -0.085875 -0.0831666 -0.0799709 -0.0763157 -0.072223 -0.0666439 -0.0609417 -0.0547765 -0.0484616 -0.0424319 -0.0371561 -0.0330164 -0.0302026 -0.0286731 -0.0281995 -0.0284652 -0.0291634 -0.0300585 -0.0310037 -0.0211153 -0.0211603 -0.0212658 -0.0214643 -0.0217991 -0.0223223 -0.0230909 -0.0241643 -0.0256019 -0.0274617 -0.0297988 -0.0326646 -0.0361911 -0.0397522 -0.0438927 -0.0485711 -0.0536958 -0.0591257 -0.0646801 -0.070156 -0.0753512 -0.0800855 -0.0842178 -0.087654 -0.0904074 -0.0923293 -0.0934695 -0.0938543 -0.0935301 -0.0925533 -0.0909836 -0.088879 -0.0862899 -0.0832552 -0.0797992 -0.0759272 -0.0709846 -0.0657274 -0.0599289 -0.0538009 -0.0477108 -0.0421238 -0.0374934 -0.0341309 -0.0321172 -0.0313018 -0.0313862 -0.0320376 -0.0329776 -0.0340218 -0.0239122 -0.0238988 -0.023954 -0.02411 -0.0244097 -0.0249046 -0.0256511 -0.0267075 -0.0281322 -0.0299813 -0.0323074 -0.0351561 -0.0385521 -0.0420962 -0.0462128 -0.0508611 -0.0559501 -0.0613402 -0.0668519 -0.0722841 -0.077436 -0.0821289 -0.0862225 -0.0896243 -0.0924183 -0.0943197 -0.095446 -0.0958214 -0.095493 -0.0945202 -0.0929684 -0.0909032 -0.0883837 -0.0854576 -0.0821556 -0.0784866 -0.074211 -0.0693866 -0.0640142 -0.0582093 -0.0522502 -0.0465553 -0.041601 -0.0377898 -0.0353244 -0.0341551 -0.0340296 -0.0346079 -0.0355759 -0.0367116 -0.0264342 -0.0263678 -0.0263741 -0.0264846 -0.0267411 -0.0271936 -0.0278976 -0.0289104 -0.0302891 -0.0320885 -0.0343593 -0.037142 -0.0403138 -0.0437857 -0.0478234 -0.0523895 -0.0573974 -0.0627116 -0.0681566 -0.0735337 -0.0786429 -0.0833045 -0.0873756 -0.0907605 -0.0936009 -0.0954906 -0.0966087 -0.0969754 -0.0966361 -0.0956521 -0.0940936 -0.0920334 -0.0895402 -0.0866731 -0.0834749 -0.0799709 -0.0763095 -0.0718607 -0.0669068 -0.0614851 -0.0557832 -0.050147 -0.045033 -0.0408947 -0.0380391 -0.0365269 -0.0361757 -0.0366596 -0.03764 -0.0388591 -0.0286408 -0.0285287 -0.0284898 -0.0285537 -0.0287601 -0.0291572 -0.0297984 -0.03074 -0.0320384 -0.0337478 -0.0359183 -0.0385866 -0.0414432 -0.0447903 -0.0486987 -0.0531374 -0.058027 -0.0632388 -0.0686025 -0.0739223 -0.0789979 -0.0836461 -0.0877177 -0.0911093 -0.0940028 -0.0958944 -0.097014 -0.0973764 -0.0970243 -0.0960193 -0.0944357 -0.0923529 -0.0898493 -0.0869954 -0.0838488 -0.0804572 -0.0773193 -0.0731595 -0.0685649 -0.0635173 -0.0581258 -0.0526555 -0.0475139 -0.0431664 -0.0399956 -0.0381679 -0.0375867 -0.0379608 -0.0389401 -0.0402359 -0.0305156 -0.030367 -0.0302883 -0.0303065 -0.0304578 -0.0307873 -0.0313459 -0.0321886 -0.0333713 -0.0349491 -0.0369734 -0.0394796 -0.0419347 -0.0451067 -0.0488401 -0.0531125 -0.057854 -0.0629445 -0.0682197 -0.0734866 -0.0785433 -0.0832007 -0.0873002 -0.0907261 -0.0936767 -0.0955878 -0.096722 -0.0970882 -0.0967251 -0.0956941 -0.0940722 -0.0919449 -0.0893992 -0.0865165 -0.0833686 -0.0800264 -0.0773145 -0.0733402 -0.0690101 -0.0642721 -0.0591752 -0.0539098 -0.0488203 -0.0443539 -0.040937 -0.0388266 -0.0380177 -0.0382709 -0.0392385 -0.0406064 -0.0320641 -0.0318894 -0.031778 -0.0317531 -0.0318462 -0.0320975 -0.0325544 -0.03327 -0.0343009 -0.0357043 -0.0375355 -0.0398319 -0.0418048 -0.0447544 -0.0482718 -0.0523452 -0.0569156 -0.0618723 -0.0670576 -0.0722807 -0.0773365 -0.0820282 -0.0861851 -0.089676 -0.0926825 -0.0946344 -0.0957997 -0.096181 -0.0958127 -0.0947547 -0.093086 -0.0908969 -0.0882816 -0.0853307 -0.0821278 -0.0787651 -0.0763912 -0.0724899 -0.0683068 -0.0637731 -0.0588969 -0.0538078 -0.0487873 -0.0442467 -0.0406291 -0.0382606 -0.0372257 -0.0373479 -0.0382949 -0.0397335 -0.0333095 -0.03312 -0.0329845 -0.0329208 -0.032954 -0.0331178 -0.0334545 -0.0340148 -0.0348564 -0.0360413 -0.0376316 -0.0396709 -0.0410879 -0.043771 -0.0470366 -0.0508847 -0.0552676 -0.0600844 -0.0651835 -0.0703751 -0.0754503 -0.0802025 -0.0844474 -0.0880355 -0.0910893 -0.0931061 -0.0943224 -0.0947341 -0.0943705 -0.093289 -0.0915694 -0.0893054 -0.0865963 -0.0835398 -0.080228 -0.0767694 -0.0746596 -0.0707139 -0.0665456 -0.0620812 -0.0573052 -0.0523036 -0.0473041 -0.0426773 -0.0388649 -0.0362419 -0.0349728 -0.03495 -0.0358671 -0.0373779 -0.0342879 -0.0340958 -0.0339458 -0.0338491 -0.033822 -0.0338896 -0.0340874 -0.0344633 -0.0350772 -0.0359981 -0.0372991 -0.0390347 -0.0398306 -0.0422075 -0.0451918 -0.0487956 -0.0529823 -0.0576596 -0.0626811 -0.067857 -0.0729731 -0.0778124 -0.0821753 -0.0858938 -0.0889764 -0.0910851 -0.0923755 -0.0928367 -0.092492 -0.0913954 -0.0896257 -0.0872778 -0.0844544 -0.0812567 -0.0777817 -0.0741476 -0.0722388 -0.0681272 -0.0638305 -0.0592782 -0.0544447 -0.0493894 -0.0443009 -0.0395142 -0.0354627 -0.0325552 -0.0310247 -0.0308333 -0.0317081 -0.0332944 -0.0350439 -0.0348622 -0.0347088 -0.0345856 -0.0344982 -0.0344604 -0.0344993 -0.03466 -0.0350058 -0.0356161 -0.0365798 -0.0379673 -0.0380879 -0.0401247 -0.0428059 -0.046155 -0.0501452 -0.0546909 -0.0596488 -0.0648281 -0.0700082 -0.0749607 -0.0794709 -0.0833522 -0.0864341 -0.0886631 -0.0900538 -0.0905873 -0.0902801 -0.0891816 -0.0873674 -0.0849318 -0.0819771 -0.0786052 -0.0749128 -0.0710203 -0.0692524 -0.0648485 -0.0602697 -0.0554528 -0.0503726 -0.045077 -0.039732 -0.0346493 -0.030257 -0.0269915 -0.0251445 -0.024745 -0.0255581 -0.0272237 -0.0356261 -0.03547 -0.0353252 -0.0351827 -0.035034 -0.0348792 -0.0347362 -0.0346471 -0.034682 -0.0349349 -0.0355152 -0.0365146 -0.0359191 -0.0375903 -0.0399562 -0.0430506 -0.0468535 -0.0512834 -0.0561978 -0.0614028 -0.066671 -0.0717625 -0.0764474 -0.0805222 -0.0835627 -0.0859407 -0.0874595 -0.0880909 -0.0878438 -0.0867608 -0.0849128 -0.0823899 -0.0792912 -0.0757148 -0.0717525 -0.0675165 -0.0658235 -0.0609947 -0.0559686 -0.0506914 -0.0451457 -0.0393815 -0.0335589 -0.0279824 -0.0230861 -0.0193376 -0.0170831 -0.0164137 -0.0171346 -0.0188821 -0.0360858 -0.0359731 -0.0358512 -0.035696 -0.0354821 