# vtk DataFile Version 2.0
Presion
ASCII

DATASET STRUCTURED_GRID
DIMENSIONS   50   50   20

POINTS   50000   double
0.00568455   0.00568455   0.025
0.0174023   0.00568455   0.025
0.0298294   0.00568455   0.025
0.0429888   0.00568455   0.025
0.0569012   0.00568455   0.025
0.0715849   0.00568455   0.025
0.0870549   0.00568455   0.025
0.103323   0.00568455   0.025
0.120395   0.00568455   0.025
0.138275   0.00568455   0.025
0.156961   0.00568455   0.025
0.176443   0.00568455   0.025
0.196707   0.00568455   0.025
0.217734   0.00568455   0.025
0.239496   0.00568455   0.025
0.261959   0.00568455   0.025
0.285082   0.00568455   0.025
0.308818   0.00568455   0.025
0.333113   0.00568455   0.025
0.357906   0.00568455   0.025
0.383132   0.00568455   0.025
0.408719   0.00568455   0.025
0.434592   0.00568455   0.025
0.460672   0.00568455   0.025
0.486877   0.00568455   0.025
0.513123   0.00568455   0.025
0.539328   0.00568455   0.025
0.565408   0.00568455   0.025
0.591281   0.00568455   0.025
0.616868   0.00568455   0.025
0.642094   0.00568455   0.025
0.666887   0.00568455   0.025
0.691182   0.00568455   0.025
0.714918   0.00568455   0.025
0.738041   0.00568455   0.025
0.760504   0.00568455   0.025
0.782266   0.00568455   0.025
0.803293   0.00568455   0.025
0.823557   0.00568455   0.025
0.843039   0.00568455   0.025
0.861725   0.00568455   0.025
0.879605   0.00568455   0.025
0.896677   0.00568455   0.025
0.912945   0.00568455   0.025
0.928415   0.00568455   0.025
0.943099   0.00568455   0.025
0.957011   0.00568455   0.025
0.970171   0.00568455   0.025
0.982598   0.00568455   0.025
0.994315   0.00568455   0.025
0.00568455   0.0174023   0.025
0.0174023   0.0174023   0.025
0.0298294   0.0174023   0.025
0.0429888   0.0174023   0.025
0.0569012   0.0174023   0.025
0.0715849   0.0174023   0.025
0.0870549   0.0174023   0.025
0.103323   0.0174023   0.025
0.120395   0.0174023   0.025
0.138275   0.0174023   0.025
0.156961   0.0174023   0.025
0.176443   0.0174023   0.025
0.196707   0.0174023   0.025
0.217734   0.0174023   0.025
0.239496   0.0174023   0.025
0.261959   0.0174023   0.025
0.285082   0.0174023   0.025
0.308818   0.0174023   0.025
0.333113   0.0174023   0.025
0.357906   0.0174023   0.025
0.383132   0.0174023   0.025
0.408719   0.0174023   0.025
0.434592   0.0174023   0.025
0.460672   0.0174023   0.025
0.486877   0.0174023   0.025
0.513123   0.0174023   0.025
0.539328   0.0174023   0.025
0.565408   0.0174023   0.025
0.591281   0.0174023   0.025
0.616868   0.0174023   0.025
0.642094   0.0174023   0.025
0.666887   0.0174023   0.025
0.691182   0.0174023   0.025
0.714918   0.0174023   0.025
0.738041   0.0174023   0.025
0.760504   0.0174023   0.025
0.782266   0.0174023   0.025
0.803293   0.0174023   0.025
0.823557   0.0174023   0.025
0.843039   0.0174023   0.025
0.861725   0.0174023   0.025
0.879605   0.0174023   0.025
0.896677   0.0174023   0.025
0.912945   0.0174023   0.025
0.928415   0.0174023   0.025
0.943099   0.0174023   0.025
0.957011   0.0174023   0.025
0.970171   0.0174023   0.025
0.982598   0.0174023   0.025
0.994315   0.0174023   0.025
0.00568455   0.0298294   0.025
0.0174023   0.0298294   0.025
0.0298294   0.0298294   0.025
0.0429888   0.0298294   0.025
0.0569012   0.0298294   0.025
0.0715849   0.0298294   0.025
0.0870549   0.0298294   0.025
0.103323   0.0298294   0.025
0.120395   0.0298294   0.025
0.138275   0.0298294   0.025
0.156961   0.0298294   0.025
0.176443   0.0298294   0.025
0.196707   0.0298294   0.025
0.217734   0.0298294   0.025
0.239496   0.0298294   0.025
0.261959   0.0298294   0.025
0.285082   0.0298294   0.025
0.308818   0.0298294   0.025
0.333113   0.0298294   0.025
0.357906   0.0298294   0.025
0.383132   0.0298294   0.025
0.408719   0.0298294   0.025
0.434592   0.0298294   0.025
0.460672   0.0298294   0.025
0.486877   0.0298294   0.025
0.513123   0.0298294   0.025
0.539328   0.0298294   0.025
0.565408   0.0298294   0.025
0.591281   0.0298294   0.025
0.616868   0.0298294   0.025
0.642094   0.0298294   0.025
0.666887   0.0298294   0.025
0.691182   0.0298294   0.025
0.714918   0.0298294   0.025
0.738041   0.0298294   0.025
0.760504   0.0298294   0.025
0.782266   0.0298294   0.025
0.803293   0.0298294   0.025
0.823557   0.0298294   0.025
0.843039   0.0298294   0.025
0.861725   0.0298294   0.025
0.879605   0.0298294   0.025
0.896677   0.0298294   0.025
0.912945   0.0298294   0.025
0.928415   0.0298294   0.025
0.943099   0.0298294   0.025
0.957011   0.0298294   0.025
0.970171   0.0298294   0.025
0.982598   0.0298294   0.025
0.994315   0.0298294   0.025
0.00568455   0.0429888   0.025
0.0174023   0.0429888   0.025
0.0298294   0.0429888   0.025
0.0429888   0.0429888   0.025
0.0569012   0.0429888   0.025
0.0715849   0.0429888   0.025
0.0870549   0.0429888   0.025
0.103323   0.0429888   0.025
0.120395   0.0429888   0.025
0.138275   0.0429888   0.025
0.156961   0.0429888   0.025
0.176443   0.0429888   0.025
0.196707   0.0429888   0.025
0.217734   0.0429888   0.025
0.239496   0.0429888   0.025
0.261959   0.0429888   0.025
0.285082   0.0429888   0.025
0.308818   0.0429888   0.025
0.333113   0.0429888   0.025
0.357906   0.0429888   0.025
0.383132   0.0429888   0.025
0.408719   0.0429888   0.025
0.434592   0.0429888   0.025
0.460672   0.0429888   0.025
0.486877   0.0429888   0.025
0.513123   0.0429888   0.025
0.539328   0.0429888   0.025
0.565408   0.0429888   0.025
0.591281   0.0429888   0.025
0.616868   0.0429888   0.025
0.642094   0.0429888   0.025
0.666887   0.0429888   0.025
0.691182   0.0429888   0.025
0.714918   0.0429888   0.025
0.738041   0.0429888   0.025
0.760504   0.0429888   0.025
0.782266   0.0429888   0.025
0.803293   0.0429888   0.025
0.823557   0.0429888   0.025
0.843039   0.0429888   0.025
0.861725   0.0429888   0.025
0.879605   0.0429888   0.025
0.896677   0.0429888   0.025
0.912945   0.0429888   0.025
0.928415   0.0429888   0.025
0.943099   0.0429888   0.025
0.957011   0.0429888   0.025
0.970171   0.0429888   0.025
0.982598   0.0429888   0.025
0.994315   0.0429888   0.025
0.00568455   0.0569012   0.025
0.0174023   0.0569012   0.025
0.0298294   0.0569012   0.025
0.0429888   0.0569012   0.025
0.0569012   0.0569012   0.025
0.0715849   0.0569012   0.025
0.0870549   0.0569012   0.025
0.103323   0.0569012   0.025
0.120395   0.0569012   0.025
0.138275   0.0569012   0.025
0.156961   0.0569012   0.025
0.176443   0.0569012   0.025
0.196707   0.0569012   0.025
0.217734   0.0569012   0.025
0.239496   0.0569012   0.025
0.261959   0.0569012   0.025
0.285082   0.0569012   0.025
0.308818   0.0569012   0.025
0.333113   0.0569012   0.025
0.357906   0.0569012   0.025
0.383132   0.0569012   0.025
0.408719   0.0569012   0.025
0.434592   0.0569012   0.025
0.460672   0.0569012   0.025
0.486877   0.0569012   0.025
0.513123   0.0569012   0.025
0.539328   0.0569012   0.025
0.565408   0.0569012   0.025
0.591281   0.0569012   0.025
0.616868   0.0569012   0.025
0.642094   0.0569012   0.025
0.666887   0.0569012   0.025
0.691182   0.0569012   0.025
0.714918   0.0569012   0.025
0.738041   0.0569012   0.025
0.760504   0.0569012   0.025
0.782266   0.0569012   0.025
0.803293   0.0569012   0.025
0.823557   0.0569012   0.025
0.843039   0.0569012   0.025
0.861725   0.0569012   0.025
0.879605   0.0569012   0.025
0.896677   0.0569012   0.025
0.912945   0.0569012   0.025
0.928415   0.0569012   0.025
0.943099   0.0569012   0.025
0.957011   0.0569012   0.025
0.970171   0.0569012   0.025
0.982598   0.0569012   0.025
0.994315   0.0569012   0.025
0.00568455   0.0715849   0.025
0.0174023   0.0715849   0.025
0.0298294   0.0715849   0.025
0.0429888   0.0715849   0.025
0.0569012   0.0715849   0.025
0.0715849   0.0715849   0.025
0.0870549   0.0715849   0.025
0.103323   0.0715849   0.025
0.120395   0.0715849   0.025
0.138275   0.0715849   0.025
0.156961   0.0715849   0.025
0.176443   0.0715849   0.025
0.196707   0.0715849   0.025
0.217734   0.0715849   0.025
0.239496   0.0715849   0.025
0.261959   0.0715849   0.025
0.285082   0.0715849   0.025
0.308818   0.0715849   0.025
0.333113   0.0715849   0.025
0.357906   0.0715849   0.025
0.383132   0.0715849   0.025
0.408719   0.0715849   0.025
0.434592   0.0715849   0.025
0.460672   0.0715849   0.025
0.486877   0.0715849   0.025
0.513123   0.0715849   0.025
0.539328   0.0715849   0.025
0.565408   0.0715849   0.025
0.591281   0.0715849   0.025
0.616868   0.0715849   0.025
0.642094   0.0715849   0.025
0.666887   0.0715849   0.025
0.691182   0.0715849   0.025
0.714918   0.0715849   0.025
0.738041   0.0715849   0.025
0.760504   0.0715849   0.025
0.782266   0.0715849   0.025
0.803293   0.0715849   0.025
0.823557   0.0715849   0.025
0.843039   0.0715849   0.025
0.861725   0.0715849   0.025
0.879605   0.0715849   0.025
0.896677   0.0715849   0.025
0.912945   0.0715849   0.025
0.928415   0.0715849   0.025
0.943099   0.0715849   0.025
0.957011   0.0715849   0.025
0.970171   0.0715849   0.025
0.982598   0.0715849   0.025
0.994315   0.0715849   0.025
0.00568455   0.0870549   0.025
0.0174023   0.0870549   0.025
0.0298294   0.0870549   0.025
0.0429888   0.0870549   0.025
0.0569012   0.0870549   0.025
0.0715849   0.0870549   0.025
0.0870549   0.0870549   0.025
0.103323   0.0870549   0.025
0.120395   0.0870549   0.025
0.138275   0.0870549   0.025
0.156961   0.0870549   0.025
0.176443   0.0870549   0.025
0.196707   0.0870549   0.025
0.217734   0.0870549   0.025
0.239496   0.0870549   0.025
0.261959   0.0870549   0.025
0.285082   0.0870549   0.025
0.308818   0.0870549   0.025
0.333113   0.0870549   0.025
0.357906   0.0870549   0.025
0.383132   0.0870549   0.025
0.408719   0.0870549   0.025
0.434592   0.0870549   0.025
0.460672   0.0870549   0.025
0.486877   0.0870549   0.025
0.513123   0.0870549   0.025
0.539328   0.0870549   0.025
0.565408   0.0870549   0.025
0.591281   0.0870549   0.025
0.616868   0.0870549   0.025
0.642094   0.0870549   0.025
0.666887   0.0870549   0.025
0.691182   0.0870549   0.025
0.714918   0.0870549   0.025
0.738041   0.0870549   0.025
0.760504   0.0870549   0.025
0.782266   0.0870549   0.025
[...]
POINT_DATA   50000
SCALARS Presion double
LOOKUP_TABLE   Presion

0 0 0 0 0 0 0 0 0 0 0 0 0 0 0 0 0 0 0 0 0 0 0 0 0 0 0 0 0 0 0 0 0 0 0 0 0 0 0 0 0 0 0 0 0 0 0 0 0 0 -0.00109797 -0.0012007 -0.0013434 -0.00147367 -0.00158234 -0.00166981 -0.00173789 -0.00178806 -0.00182144 -0.00183892 -0.00184154 -0.00183096 -0.00186189 -0.00182535 -0.00176541 -0.00168366 -0.0015815 -0.00146001 -0.00132024 -0.00116333 -0.000990712 -0.00080415 -0.000605791 -0.000398069 -0.000201653 1.24579e-05 0.000228691 0.000442965 0.000651484 0.000850773 0.00103776 0.00120986 0.00136514 0.00150245 0.00162146 0.00172278 0.00186882 0.0019336 0.0019704 0.00198213 0.00197129 0.00193995 0.00188973 0.00182179 0.00173661 0.00163388 0.0015127 0.00137331 0.0012254 0.00112244 -0.00141647 -0.00141333 -0.00147025 -0.00154704 -0.00162388 -0.00169211 -0.00174815 -0.00179047 -0.00181842 -0.00183165 -0.00182984 -0.00181317 -0.00186203 -0.00182104 -0.00175945 -0.00167729 -0.0015752 -0.00145398 -0.00131451 -0.00115789 -0.000985525 -0.000799117 -0.000600659 -0.000392303 -0.00019985 1.43765e-05 0.000229963 0.000443172 0.000650288 0.000847829 0.00103269 0.00120223 0.00135441 0.00148774 0.00160107 0.00169354 0.00185743 0.00191578 0.00194956 0.00196035 0.00195034 0.00192173 0.00187663 0.00181703 0.00174499 0.00166308 0.00157569 0.00149209 0.00143265 0.00143837 -0.00159444 -0.0015707 -0.00158796 -0.0016286 -0.00167819 -0.00172721 -0.00176992 -0.00180289 -0.00182402 -0.00183186 -0.00182507 -0.00180344 -0.00186918 -0.00182394 -0.00176019 -0.0016771 -0.0015747 -0.00145346 -0.00131408 -0.00115756 -0.000985236 -0.000798757 -0.000600034 -0.000391313 -0.000201773 1.29665e-05 0.000228553 0.000441419 0.000647891 0.000844463 0.00102797 0.00119568 0.00134542 0.00147542 0.00158404 0.00167053 0.0018515 0.00190495 0.0019362 0.00194639 0.0019376 0.00191225 0.00187291 0.00182243 0.00176409 0.00170226 0.00164335 0.00159732 0.00157879 0.00160534 -0.00170319 -0.00168344 -0.00168692 -0.00170782 -0.00173834 -0.00177145 -0.0018017 -0.00182512 -0.00183887 -0.00184076 -0.00182882 -0.00180289 -0.00188374 -0.00183469 -0.00176856 -0.00168415 -0.00158108 -0.00145951 -0.00131993 -0.00116324 -0.000990677 -0.000803831 -0.000604592 -0.000395426 -0.000207683 8.04522e-06 0.000224363 0.000437726 0.000644446 0.00084096 0.00102401 0.00119077 0.00133889 0.00146644 0.0015716 0.0016543 0.00185104 0.00190116 0.00193058 0.00194054 0.00193323 0.0019113 0.00187777 0.00183601 0.00178994 0.00174433 0.00170514 0.00167955 0.00167512 0.00169711 -0.00177826 -0.00176781 -0.00176932 -0.00178141 -0.00180046 -0.00182209 -0.00184209 -0.00185686 -0.00186345 -0.00185939 -0.00184245 -0.00181268 -0.00190659 -0.00185418 -0.00178561 -0.00169961 -0.00159554 -0.00147329 -0.00133319 -0.00117598 -0.0010028 -0.000815184 -0.000615039 -0.00040506 -0.000217997 -6.46042e-07 0.000217258 0.000432094 0.0006401 0.000837615 0.00102126 0.00118807 0.00133556 0.0014617 0.00156474 0.00164538 0.00185648 0.0019046 0.00193288 0.00194293 0.00193715 0.00191847 0.00189016 0.00185583 0.0018194 0.00178515 0.00175759 0.00174098 0.00173841 0.00175045 -0.00183791 -0.00183673 -0.00184094 -0.00185044 -0.0018636 -0.00187786 -0.00189027 -0.00189794 -0.00189821 -0.00188868 -0.00186712 -0.00183393 -0.00193895 -0.00188354 -0.00181258 -0.0017248 -0.00161942 -0.00149613 -0.00135511 -0.00119694 -0.00102266 -0.000833761 -0.000632147 -0.000420726 -0.000233267 -1.34628e-05 0.000207043 0.000424488 0.000634984 0.000834719 0.00102015 0.00118817 0.00133616 0.00146204 0.00156423 0.0016442 0.00186844 0.00191562 0.00194333 0.00195363 0.00194923 0.00193326 0.00190913 0.00188039 0.00185062 0.00182326 0.00180138 0.0017872 0.00178166 0.00178399 -0.00189261 -0.00189948 -0.00190793 -0.001918 -0.00192888 -0.00193899 -0.00194633 -0.00194866 -0.00194378 -0.00192956 -0.00190394 -0.00186777 -0.00198222 -0.00192414 -0.00185087 -0.00176116 -0.00165418 -0.00152949 -0.00138709 -0.00122745 -0.00105149 -0.000860633 -0.000656799 -0.000443057 -0.000254187 -3.08835e-05 0.00019343 0.000414811 0.000629188 0.000832551 0.00102115 0.00119169 0.00134141 0.00146824 0.00157076 0.00165115 0.00188771 0.0019347 0.0019622 0.00197274 0.00196933 0.00195528 0.00193401 0.00190888 0.00188298 0.00185898 0.00183886 0.00182375 0.00181371 0.00180786 -0.00194926 -0.00196288 -0.0019758 -0.00198792 -0.00199865 -0.00200689 -0.00201118 -0.00200985 -0.0020011 -0.00198311 -0.0019541 -0.00191535 -0.00203807 -0.00197759 -0.00190208 -0.00181034 -0.00170148 -0.00157498 -0.00143071 -0.00126899 -0.00109065 -0.00089703 -0.000690032 -0.000472853 -0.000281624 -5.35493e-05 0.000175994 0.000402856 0.000622727 0.000831338 0.00102468 0.00119922 0.00135205 0.00148105 0.00158499 0.00166661 0.00191523 0.00196249 0.0019899 0.00200044 0.00199742 0.0019843 0.00196446 0.00194102 0.00191665 0.00189344 0.00187272 0.00185509 0.00184038 0.00182792 -0.00201302 -0.00203227 -0.00204942 -0.00206416 -0.0020759 -0.00208374 -0.00208654 -0.00208293 -0.00207148 -0.00205065 -0.00201893 -0.001978 -0.00210834 -0.00204571 -0.00196802 -0.00187414 -0.00176315 -0.00163444 -0.00148775 -0.00132329 -0.00114175 -0.000944401 -0.000733107 -0.000511152 -0.00031667 -8.23232e-05 0.000154114 0.00038825 0.000615483 0.000831219 0.00103112 0.00121133 0.00136876 0.00150122 0.00160758 0.00169107 0.00195202 0.00199975 0.00202696 0.00203703 0.00203361 0.00202027 0.0020004 0.00197693 0.00195223 0.00192801 0.0019053 0.00188447 0.00186542 0.00184769 -0.00208815 -0.00211212 -0.00213311 -0.00215061 -0.00216395 -0.0021723 -0.00217465 -0.00216986 -0.00215669 -0.00213386 -0.00210005 -0.00205732 -0.00219513 -0.00213054 -0.00205075 -0.00195464 -0.00184126 -0.00170991 -0.00156023 -0.00139229 -0.00120665 -0.00100448 -0.000787586 -0.000559314 -0.000360727 -0.000118376 0.000126878 0.000370366 0.000607133 0.000832174 0.00104072 0.00122855 0.00139226 0.00152952 0.00163924 0.0017251 0.00199923 0.0020474 0.00207402 0.00208293 0.0020781 0.0020633 0.00204195 0.00201691 0.00199038 0.00196389 0.00193834 0.00191409 0.00189113 0.0018692 -0.00217839 -0.0022064 -0.00223082 -0.00225101 -0.00226622 -0.00227561 -0.00227822 -0.00227301 -0.0022589 -0.00223474 -0.00219939 -0.00215521 -0.00230075 -0.0022344 -0.00215257 -0.00205414 -0.00193813 -0.00180374 -0.00165049 -0.00147829 -0.00128759 -0.0010794 -0.000855446 -0.000619129 -0.000415616 -0.000163302 9.29695e-05 0.000348211 0.000597036 0.000833932 0.00105359 0.00125127 0.00142318 0.00156673 0.00168078 0.00176941 0.00205809 0.00210644 0.00213184 0.00213864 0.0021312 0.00211355 0.00208925 0.0020612 0.00203156 0.00200183 0.00197289 0.00194515 0.00191868 0.00189337 -0.00228721 -0.00231873 -0.00234625 -0.00236902 -0.0023862 -0.00239691 -0.00240021 -0.00239513 -0.00238064 -0.0023557 -0.00231925 -0.00227392 -0.00242782 -0.00235989 -0.00227609 -0.00217529 -0.00205643 -0.00191863 -0.00176124 -0.00158403 -0.00138726 -0.00117178 -0.000939197 -0.000692957 -0.000483727 -0.000219278 5.05046e-05 0.000320261 0.00058409 0.000835845 0.00106953 0.00127973 0.00146207 0.00161361 0.00173305 0.00182482 0.00212992 0.00217797 0.00220125 0.0022047 0.00219317 0.0021711 0.00214229 0.00210979 0.00207586 0.00204203 0.00200923 0.00197794 0.00194828 0.0019202 -0.0024179 -0.00245258 -0.00248296 -0.00250817 -0.00252734 -0.00253954 -0.00254383 -0.00253923 -0.00252478 -0.00249946 -0.00246227 -0.00241608 -0.00257922 -0.00250988 -0.00242423 -0.00232105 -0.00219922 -0.00205769 -0.00189568 -0.00171274 -0.00150892 -0.00128488 -0.00104204 -0.000783889 -0.000568204 -0.000289256 -3.17508e-06 0.000284259 0.000566526 0.000836701 0.0010879 0.00131383 0.00150935 0.00167091 0.00179695 0.00189226 0.00221608 0.00226314 0.00228307 0.00228158 0.00226417 0.00223582 0.00220074 0.00216224 0.00212276 0.00208395 0.00204681 0.00201185 0.00197921 0.00194881 -0.00257367 -0.0026113 -0.00264438 -0.00267197 -0.00269314 -0.00270693 -0.00271238 -0.00270854 -0.00269442 -0.00266905 -0.00263143 -0.00258467 -0.00275812 -0.00268761 -0.00260025 -0.0024948 -0.00236996 -0.00222454 -0.00205755 -0.00186829 -0.00165655 -0.00142273 -0.00116803 -0.000895938 -0.000673169 -0.000377223 -7.17768e-05 0.000236922 0.000541632 0.000834467 0.00110743 0.00135304 0.00156509 0.00173922 0.00187337 0.0019727 0.00231791 0.00236304 0.00237804 0.00236958 0.00234406 0.00230719 0.00226374 0.00221744 0.00217097 0.00212616 0.00208406 0.0020452 0.00200968 0.00197735 -0.00275771 -0.0027982 -0.00283391 -0.00286386 -0.00288706 -0.00290253 -0.0029093 -0.0029064 -0.00289288 -0.00286775 -0.00283001 -0.00278299 -0.00296798 -0.00289657 -0.00280781 -0.0027003 -0.00257261 -0.00242334 -0.00225122 -0.00205528 -0.00183496 -0.00159034 -0.00132229 -0.00103428 -0.000803996 -0.000488514 -0.000160413 0.000173567 0.000505355 0.000825904 0.00112579 0.00139602 0.00162888 0.00181882 0.00196304 0.00206702 0.00243665 0.00247864 0.00248667 0.00246868 0.00243223 0.00238404 0.00232965 0.00227332 0.00221811 0.00216601 0.00211817 0.00207506 0.0020367 0.00200277 -0.00297318 -0.00301655 -0.00305491 -0.00308726 -0.00311255 -0.00312981 -0.00313805 -0.00313631 -0.00312362 -0.00309903 -0.00306151 -0.00301462 -0.00321247 -0.0031406 -0.00305087 -0.00294175 -0.00281161 -0.00265881 -0.00248176 -0.00227911 -0.00204991 -0.00179379 -0.00151121 -0.00120549 -0.000967641 -0.000630213 -0.000276067 8.75836e-05 0.000451749 0.000806006 0.00113916 0.00144019 0.00169937 0.00190942 0.00206637 0.00217588 0.00257315 0.00261052 0.00260903 0.00257826 0.00252734 0.0024643 0.00239571 0.00232657 0.00226039 0.00219939 0.00214475 0.00209688 0.00205563 0.00202047 -0.00322329 -0.00326959 -0.0033107 -0.00334553 -0.00337304 -0.00339223 -0.00340212 -0.00340176 -0.00339021 -0.0033665 -0.00332963 -0.00328337 -0.00349549 -0.00342374 -0.00333372 -0.00322372 -0.0030919 -0.00293629 -0.00275495 -0.0025461 -0.00230824 -0.00204046 -0.00174265 -0.0014179 -0.00117301 -0.000811634 -0.000428189 -3.02692e-05 0.000372183 0.000767161 0.00114129 0.00148093 0.00177362 0.00200956 0.00218296 0.00229939 0.00272751 0.00275854 0.00274441 0.00269684 0.00262698 0.00254463 0.00245773 0.00237223 0.00229223 0.0022202 0.00215737 0.00210401 0.00205975 0.00202375 -0.00351117 -0.00356054 -0.00360451 -0.00364197 -0.00367186 -0.00369317 -0.00370494 -0.00370626 -0.0036962 -0.00367383 -0.00363814 -0.00359319 -0.00382103 -0.00375024 -0.00366089 -0.00355111 -0.00341878 -0.00326164 -0.00307729 -0.00286341 -0.0026179 -0.00233912 -0.00202621 -0.00168184 -0.00143137 -0.0010449 -0.00062945 -0.000192799 0.000254229 0.000697902 0.00112225 0.00151031 0.00184589 0.00211562 0.00231086 0.00243648 0.0028981 0.00292112 0.00289082 0.0028216 0.00272728 0.00262002 0.00250959 0.0024032 0.00230569 0.00221986 0.00214695 0.00208706 0.0020395 0.00200307 -0.00383986 -0.00389247 -0.00393948 -0.00397976 -0.00401223 -0.0040359 -0.00404985 -0.0040532 -0.00404509 -0.00402462 -0.00399081 -0.00394803 -0.00419308 -0.00412433 -0.00403697 -0.00392894 -0.00379788 -0.00364113 -0.00345583 -0.00323905 -0.00298793 -0.00269997 -0.00237332 -0.00200999 -0.00175676 -0.00134556 -0.000896648 -0.000417599 8.01239e-05 0.000581074 0.00106634 0.00151487 0.00190554 0.0022199 0.00244497 0.00258373 0.00307986 0.003094 0.00304408 0.00294778 0.00282243 0.00268337 0.00254288 0.00240986 0.0022901 0.0021868 0.00210121 0.0020332 0.00198169 0.00194506 -0.00421224 -0.00426828 -0.00431853 -0.00436184 -0.00439715 -0.00442348 -0.00443997 -0.00444579 -0.00444017 -0.0044223 -0.00439125 -0.00435172 -0.00461542 -0.00455012 -0.00446646 -0.00436223 -0.00423482 -0.0040812 -0.003898 -0.00368161 -0.00342832 -0.00313458 -0.00279729 -0.00241752 -0.00216636 -0.00173326 -0.00125173 -0.000728544 -0.000175291 0.000391176 0.000948903 0.00147204 0.00193322 0.00230701 0.00257388 0.00273283 0.00326098 0.00326802 0.00319647 0.00306787 0.00290423 0.00272528 0.00254676 0.0023799 0.00223179 0.00210613 0.00200417 0.00192549 0.00186861 0.00183138 -0.00463087 -0.00469056 -0.00474429 -0.0047909 -0.00482933 -0.00485867 -0.0048781 -0.00488692 -0.00488444 -0.00486998 -0.00484272 -0.00480775 -0.00509144 -0.00503129 -0.00495346 -0.00485562 -0.00473496 -0.00458811 -0.0044112 -0.00419992 -0.00394963 -0.00365556 -0.00331317 -0.00292217 -0.00268059 -0.00223218 -0.00172276 -0.0011575 -0.000547195 9.0652e-05 0.000731436 0.00134423 0.00189424 0.00234693 0.00267341 0.0028652 0.00341663 0.00342492 0.00333418 0.00317038 0.00296176 0.0027342 0.00250839 0.00229889 0.00211461 0.00195996 0.00183623 0.00174266 0.00167735 0.00163766 -0.00509795 -0.00516153 -0.00521901 -0.0052692 -0.00531109 -0.00534381 -0.00536665 -0.00537902 -0.00538041 -0.00537029 -0.00534799 -0.00531906 -0.00562388 -0.00557083 -0.00550131 -0.00541298 -0.0053029 -0.00516743 -0.00500227 -0.00480245 -0.00456237 -0.00427603 -0.00393717 -0.00354381 -0.00332295 -0.00287116 -0.00234464 -0.00174595 -0.00108381 -0.000374964 0.000354563 0.00106945 0.00172711 0.00228225 0.00269365 0.00294021 0.00349714 0.00352904 0.00343215 0.00323728 0.00298084 0.00269732 0.00241458 0.00215213 0.00192172 0.00172895 0.0015753 0.00145975 0.00137998 0.00133299 -0.00561516 -0.00568291 -0.00574444 -0.00579855 -0.00584425 -0.00588076 -0.00590749 -0.00592401 -0.00593 -0.00592517 -0.00590907 -0.00588774 -0.0062145 -0.00617066 -0.00611222 -0.00603696 -0.00594191 -0.00582336 -0.00567669 -0.0054964 -0.0052761 -0.0050085 -0.00468568 -0.00430355 -0.00411906 -0.00368296 -0.00315893 -0.00254597 -0.00184925 -0.00108272 -0.000271446 0.000547211 0.00132462 0.0020051 0.00253352 0.00286952 0.00340558 0.00350936 0.00344133 0.00323657 0.00294122 0.00260107 0.00225428 0.00192814 0.00163921 0.00139558 0.00119955 0.00105019 0.000944986 0.000880751 -0.00618362 -0.0062559 -0.00632184 -0.00638023 -0.00643013 -0.00647083 -0.0065019 -0.00652311 -0.0065344 -0.00653575 -0.00652702 -0.00651486 -0.00686379 -0.00683126 -0.00678678 -0.00672838 -0.00665331 -0.00655795 -0.00643765 -0.00628666 -0.00609802 -0.00586349 -0.0055736 -0.00522201 -0.00509481 -0.00470223 -0.00421209 -0.00361947 -0.00292488 -0.00213729 -0.00127736 -0.000379832 0.000506115 0.0013196 0.00199477 0.00246551 0.00295592 0.00322066 0.00325702 0.00310018 0.00280383 0.00242607 0.00201888 0.00162179 0.00126047 0.000948584 0.000691411 0.000489288 0.000340205 0.000241222 -0.00680389 -0.00688115 -0.00695193 -0.00701502 -0.00706951 -0.00711478 -0.00715057 -0.00717689 -0.00719399 -0.00720221 -0.00720182 -0.00720013 -0.00757069 -0.00755133 -0.0075235 -0.00748571 -0.00743569 -0.00737021 -0.00728497 -0.00717438 -0.00703141 -0.00684742 -0.00661195 -0.0063166 -0.00627313 -0.00596155 -0.00555104 -0.00503396 -0.00440653 -0.00367172 -0.00284236 -0.00194369 -0.00101472 -0.000107989 0.000713293 0.0013554 0.00180547 0.00236997 0.00265119 0.00266935 0.0024721 0.00212348 0.00169027 0.00123043 0.000786617 0.000385447 4.0611e-05 -0.000242709 -0.000463973 -0.000624845 -0.00747602 -0.00755883 -0.007635 -0.00770327 -0.00776272 -0.00781286 -0.00785359 -0.00788521 -0.00790833 -0.00792373 -0.0079322 -0.00794181 -0.0083324 -0.00832748 -0.00831845 -0.00830457 -0.00828433 -0.00825531 -0.008214 -0.00815559 -0.00807374 -0.00796028 -0.00780484 -0.00759774 -0.00766913 -0.00748496 -0.0072151 -0.0068529 -0.00639387 -0.00583736 -0.00518735 -0.00445228 -0.00364501 -0.002785 -0.00190389 -0.00111139 -0.000618961 0.00041722 0.00116552 0.00159443 0.00170893 0.00155357 0.00120039 0.000729856 0.000213899 -0.000293588 -0.000758155 -0.00116104 -0.00149385 -0.00175433 -0.00819969 -0.00828886 -0.0083711 -0.00844507 -0.00850985 -0.00856501 -0.00861065 -0.00864738 -0.00867623 -0.00869852 -0.00871567 -0.00873662 -0.00914421 -0.00915408 -0.00916504 -0.00917738 -0.00919071 -0.00920387 -0.00921472 -0.00921995 -0.00921489 -0.0091931 -0.00914597 -0.00906419 -0.00928384 -0.00927933 -0.00922392 -0.009119 -0.0089678 -0.00877412 -0.00853752 -0.00824495 -0.00786392 -0.00734567 -0.00664495 -0.00585146 -0.00512226 -0.00347522 -0.00197877 -0.000777804 2.11923e-05 0.00038427 0.000352634 1.99877e-05 -0.000500659 -0.0011057 -0.00171665 -0.00228279 -0.00277605 -0.00318387 -0.00897448 -0.00907108 -0.00916026 -0.00924056 -0.00931097 -0.00937111 -0.00942126 -0.00946237 -0.00949595 -0.00952397 -0.0095486 -0.00957977 -0.00999964 -0.0100233 -0.0100539 -0.0100933 -0.0101424 -0.0102017 -0.0102712 -0.0103499 -0.0104359 -0.0105259 -0.0106154 -0.010698 -0.0110973 -0.0113246 -0.0115628 -0.0118316 -0.0121552 -0.0125563 -0.0130408 -0.0135739 -0.0140584 -0.0143374 -0.0142357 -0.0137586 -0.0125509 -0.0102946 -0.00780421 -0.00540262 -0.0033965 -0.00199449 -0.00126563 -0.00114705 -0.00148963 -0.00211655 -0.00287026 -0.00363565 -0.00434181 -0.0049528 -0.00980026 -0.00990571 -0.010003 -0.0100903 -0.0101666 -0.0102313 -0.0102851 -0.0103291 -0.0103655 -0.0103969 -0.0104265 -0.0104653 -0.0108906 -0.0109252 -0.0109734 -0.0110384 -0.0111231 -0.0112301 -0.011362 -0.0115208 -0.0117085 -0.0119269 -0.0121777 -0.0124608 -0.013063 -0.0135658 -0.0141696 -0.014924 -0.0158894 -0.0171245 -0.0186552 -0.0204262 -0.0222585 -0.0238511 -0.024854 -0.0251098 -0.0233647 -0.0207153 -0.0171661 -0.0132354 -0.00948803 -0.00640713 -0.00428959 -0.00320203 -0.00301031 -0.00346305 -0.00428734 -0.00525734 -0.006221 -0.00709509 -0.0106776 -0.0107938 -0.0109006 -0.0109958 -0.011078 -0.0111466 -0.0112024 -0.0112468 -0.0112828 -0.0113139 -0.0113443 -0.0113862 -0.0118078 -0.0118484 -0.0119096 -0.0119964 -0.0121137 -0.0122667 -0.0124607 -0.0127018 -0.0129966 -0.0133533 -0.0137819 -0.0142924 -0.0151061 -0.0159106 -0.0169296 -0.0182514 -0.0199848 -0.0222372 -0.0250625 -0.0283825 -0.0319213 -0.0352111 -0.0377065 -0.039031 -0.0371153 -0.0344464 -0.0300573 -0.0245884 -0.0188229 -0.013546 -0.00938366 -0.00667194 -0.0054124 -0.00533803 -0.00605286 -0.00717352 -0.00841458 -0.00960796 -0.0116084 -0.011738 -0.0118561 -0.0119601 -0.012048 -0.0121192 -0.0121744 -0.0122157 -0.0122466 -0.0122718 -0.0122968 -0.0123352 -0.0127412 -0.0127806 -0.0128477 -0.0129495 -0.0130932 -0.0132866 -0.0135382 -0.0138582 -0.0142586 -0.0147545 -0.0153659 -0.0161151 -0.0171291 -0.0182374 -0.0196852 -0.0216027 -0.0241502 -0.0274853 -0.0316857 -0.0366413 -0.0419688 -0.0470315 -0.0510998 -0.0535845 -0.0521987 -0.0498721 -0.0451006 -0.0385081 -0.0309477 -0.0234019 -0.0168211 -0.011917 -0.00899335 -0.00791122 -0.00821554 -0.0093507 -0.0108456 -0.012398 -0.0125966 -0.0127427 -0.0128745 -0.0129883 -0.0130816 -0.0131532 -0.0132041 -0.0132368 -0.0132561 -0.0132678 -0.013279 -0.013305 -0.0136807 -0.013709 -0.0137724 -0.0138796 -0.0140403 -0.0142648 -0.0145649 -0.0149547 -0.0154517 -0.0160782 -0.0168637 -0.0178434 -0.0190245 -0.0204126 -0.0222613 -0.024738 -0.0280475 -0.032385 -0.0378375 -0.0442503 -0.0511335 -0.057703 -0.063086 -0.0665572 -0.0662889 -0.0645064 -0.0598519 -0.0528201 -0.0441654 -0.0348677 -0.0260488 -0.0187701 -0.0137557 -0.0111854 -0.0107012 -0.0116336 -0.0133031 -0.0152232 -0.0136485 -0.0138157 -0.0139641 -0.0140888 -0.0141864 -0.0142552 -0.0142962 -0.0143131 -0.0143118 -0.0143001 -0.0142868 -0.0142889 -0.0146164 -0.0146214 -0.0146688 -0.0147695 -0.0149348 -0.0151778 -0.0155131 -0.0159586 -0.0165367 -0.0172759 -0.0182141 -0.0193975 -0.0206935 -0.0223151 -0.0244997 -0.027442 -0.031375 -0.0365113 -0.0429279 -0.0504191 -0.0584043 -0.065994 -0.0722299 -0.0763483 -0.0773498 -0.076113 -0.0719005 -0.0650561 -0.0561494 -0.0459864 -0.0356369 -0.0263346 -0.0191918 -0.0148389 -0.013216 -0.0136858 -0.0153988 -0.0176557 -0.0147742 -0.0149683 -0.015137 -0.0152738 -0.0153737 -0.0154346 -0.015458 -0.0154489 -0.0154153 -0.0153674 -0.0153163 -0.015281 -0.0155391 -0.0155065 -0.0155237 -0.0156034 -0.0157589 -0.0160052 -0.0163596 -0.0168431 -0.0174821 -0.0183099 -0.0193703 -0.0207163 -0.0220635 -0.0238581 -0.0262908 -0.02957 -0.0339381 -0.0396041 -0.0466197 -0.0547314 -0.0632982 -0.0713764 -0.0779791 -0.0823681 -0.0844286 -0.0835873 -0.0798828 -0.0735523 -0.0649945 -0.0547855 -0.043786 -0.0331772 -0.0242811 -0.0181583 -0.0151899 -0.0149594 -0.0165571 -0.0190837 -0.0159883 -0.016217 -0.0164108 -0.0165604 -0.0166592 -0.0167046 -0.016699 -0.01665 -0.0165688 -0.016469 -0.0163645 -0.016276 -0.0164405 -0.016354 -0.0163253 -0.0163684 -0.0164983 -0.0167314 -0.017087 -0.017589 -0.0182667 -0.0191567 -0.0203055 -0.0217668 -0.0230985 -0.0250021 -0.027589 -0.0310696 -0.0356788 -0.04