# vtk DataFile Version 2.0
Velocidades
ASCII

DATASET STRUCTURED_GRID
DIMENSIONS   50   50   20

POINTS   50000   double
0.00568455   0.00568455   0.025
0.0174023   0.00568455   0.025
0.0298294   0.00568455   0.025
0.0429888   0.00568455   0.025
0.0569012   0.00568455   0.025
0.0715849   0.00568455   0.025
0.0870549   0.00568455   0.025
0.103323   0.00568455   0.025
0.120395   0.00568455   0.025
0.138275   0.00568455   0.025
0.156961   0.00568455   0.025
0.176443   0.00568455   0.025
0.196707   0.00568455   0.025
0.217734   0.00568455   0.025
0.239496   0.00568455   0.025
0.261959   0.00568455   0.025
0.285082   0.00568455   0.025
0.308818   0.00568455   0.025
0.333113   0.00568455   0.025
0.357906   0.00568455   0.025
0.383132   0.00568455   0.025
0.408719   0.00568455   0.025
0.434592   0.00568455   0.025
0.460672   0.00568455   0.025
0.486877   0.00568455   0.025
0.513123   0.00568455   0.025
0.539328   0.00568455   0.025
0.565408   0.00568455   0.025
0.591281   0.00568455   0.025
0.616868   0.00568455   0.025
0.642094   0.00568455   0.025
0.666887   0.00568455   0.025
0.691182   0.00568455   0.025
0.714918   0.00568455   0.025
0.738041   0.00568455   0.025
0.760504   0.00568455   0.025
0.782266   0.00568455   0.025
0.803293   0.00568455   0.025
0.823557   0.00568455   0.025
0.843039   0.00568455   0.025
0.861725   0.00568455   0.025
0.879605   0.00568455   0.025
0.896677   0.00568455   0.025
0.912945   0.00568455   0.025
0.928415   0.00568455   0.025
0.943099   0.00568455   0.025
0.957011   0.00568455   0.025
0.970171   0.00568455   0.025
0.982598   0.00568455   0.025
0.994315   0.00568455   0.025
0.00568455   0.0174023   0.025
0.0174023   0.0174023   0.025
0.0298294   0.0174023   0.025
0.0429888   0.0174023   0.025
0.0569012   0.0174023   0.025
0.0715849   0.0174023   0.025
0.0870549   0.0174023   0.025
0.103323   0.0174023   0.025
0.120395   0.0174023   0.025
0.138275   0.0174023   0.025
0.156961   0.0174023   0.025
0.176443   0.0174023   0.025
0.196707   0.0174023   0.025
0.217734   0.0174023   0.025
0.239496   0.0174023   0.025
0.261959   0.0174023   0.025
0.285082   0.0174023   0.025
0.308818   0.0174023   0.025
0.333113   0.0174023   0.025
0.357906   0.0174023   0.025
0.383132   0.0174023   0.025
0.408719   0.0174023   0.025
0.434592   0.0174023   0.025
0.460672   0.0174023   0.025
0.486877   0.0174023   0.025
0.513123   0.0174023   0.025
0.539328   0.0174023   0.025
0.565408   0.0174023   0.025
0.591281   0.0174023   0.025
0.616868   0.0174023   0.025
0.642094   0.0174023   0.025
0.666887   0.0174023   0.025
0.691182   0.0174023   0.025
0.714918   0.0174023   0.025
0.738041   0.0174023   0.025
0.760504   0.0174023   0.025
0.782266   0.0174023   0.025
0.803293   0.0174023   0.025
0.823557   0.0174023   0.025
0.843039   0.0174023   0.025
0.861725   0.0174023   0.025
0.879605   0.0174023   0.025
0.896677   0.0174023   0.025
0.912945   0.0174023   0.025
0.928415   0.0174023   0.025
0.943099   0.0174023   0.025
0.957011   0.0174023   0.025
0.970171   0.0174023   0.025
0.982598   0.0174023   0.025
0.994315   0.0174023   0.025
0.00568455   0.0298294   0.025
0.0174023   0.0298294   0.025
0.0298294   0.0298294   0.025
0.0429888   0.0298294   0.025
0.0569012   0.0298294   0.025
0.0715849   0.0298294   0.025
0.0870549   0.0298294   0.025
0.103323   0.0298294   0.025
0.120395   0.0298294   0.025
0.138275   0.0298294   0.025
0.156961   0.0298294   0.025
0.176443   0.0298294   0.025
0.196707   0.0298294   0.025
0.217734   0.0298294   0.025
0.239496   0.0298294   0.025
0.261959   0.0298294   0.025
0.285082   0.0298294   0.025
0.308818   0.0298294   0.025
0.333113   0.0298294   0.025
0.357906   0.0298294   0.025
0.383132   0.0298294   0.025
0.408719   0.0298294   0.025
0.434592   0.0298294   0.025
0.460672   0.0298294   0.025
0.486877   0.0298294   0.025
0.513123   0.0298294   0.025
0.539328   0.0298294   0.025
0.565408   0.0298294   0.025
0.591281   0.0298294   0.025
0.616868   0.0298294   0.025
0.642094   0.0298294   0.025
0.666887   0.0298294   0.025
0.691182   0.0298294   0.025
0.714918   0.0298294   0.025
0.738041   0.0298294   0.025
0.760504   0.0298294   0.025
0.782266   0.0298294   0.025
0.803293   0.0298294   0.025
0.823557   0.0298294   0.025
0.843039   0.0298294   0.025
0.861725   0.0298294   0.025
0.879605   0.0298294   0.025
0.896677   0.0298294   0.025
0.912945   0.0298294   0.025
0.928415   0.0298294   0.025
0.943099   0.0298294   0.025
0.957011   0.0298294   0.025
0.970171   0.0298294   0.025
0.982598   0.0298294   0.025
0.994315   0.0298294   0.025
0.00568455   0.0429888   0.025
0.0174023   0.0429888   0.025
0.0298294   0.0429888   0.025
0.0429888   0.0429888   0.025
0.0569012   0.0429888   0.025
0.0715849   0.0429888   0.025
0.0870549   0.0429888   0.025
0.103323   0.0429888   0.025
0.120395   0.0429888   0.025
0.138275   0.0429888   0.025
0.156961   0.0429888   0.025
0.176443   0.0429888   0.025
0.196707   0.0429888   0.025
0.217734   0.0429888   0.025
0.239496   0.0429888   0.025
0.261959   0.0429888   0.025
0.285082   0.0429888   0.025
0.308818   0.0429888   0.025
0.333113   0.0429888   0.025
0.357906   0.0429888   0.025
0.383132   0.0429888   0.025
0.408719   0.0429888   0.025
0.434592   0.0429888   0.025
0.460672   0.0429888   0.025
0.486877   0.0429888   0.025
0.513123   0.0429888   0.025
0.539328   0.0429888   0.025
0.565408   0.0429888   0.025
0.591281   0.0429888   0.025
0.616868   0.0429888   0.025
0.642094   0.0429888   0.025
0.666887   0.0429888   0.025
0.691182   0.0429888   0.025
0.714918   0.0429888   0.025
0.738041   0.0429888   0.025
0.760504   0.0429888   0.025
0.782266   0.0429888   0.025
0.803293   0.0429888   0.025
0.823557   0.0429888   0.025
0.843039   0.0429888   0.025
0.861725   0.0429888   0.025
0.879605   0.0429888   0.025
0.896677   0.0429888   0.025
0.912945   0.0429888   0.025
0.928415   0.0429888   0.025
0.943099   0.0429888   0.025
0.957011   0.0429888   0.025
0.970171   0.0429888   0.025
0.982598   0.0429888   0.025
0.994315   0.0429888   0.025
0.00568455   0.0569012   0.025
0.0174023   0.0569012   0.025
0.0298294   0.0569012   0.025
0.0429888   0.0569012   0.025
0.0569012   0.0569012   0.025
0.0715849   0.0569012   0.025
0.0870549   0.0569012   0.025
0.103323   0.0569012   0.025
0.120395   0.0569012   0.025
0.138275   0.0569012   0.025
0.156961   0.0569012   0.025
0.176443   0.0569012   0.025
0.196707   0.0569012   0.025
0.217734   0.0569012   0.025
0.239496   0.0569012   0.025
0.261959   0.0569012   0.025
0.285082   0.0569012   0.025
0.308818   0.0569012   0.025
0.333113   0.0569012   0.025
0.357906   0.0569012   0.025
0.383132   0.0569012   0.025
0.408719   0.0569012   0.025
0.434592   0.0569012   0.025
0.460672   0.0569012   0.025
0.486877   0.0569012   0.025
0.513123   0.0569012   0.025
0.539328   0.0569012   0.025
0.565408   0.0569012   0.025
0.591281   0.0569012   0.025
0.616868   0.0569012   0.025
0.642094   0.0569012   0.025
0.666887   0.0569012   0.025
0.691182   0.0569012   0.025
0.714918   0.0569012   0.025
0.738041   0.0569012   0.025
0.760504   0.0569012   0.025
0.782266   0.0569012   0.025
0.803293   0.0569012   0.025
0.823557   0.0569012   0.025
0.843039   0.0569012   0.025
0.861725   0.0569012   0.025
0.879605   0.0569012   0.025
0.896677   0.0569012   0.025
0.912945   0.0569012   0.025
0.928415   0.0569012   0.025
0.943099   0.0569012   0.025
0.957011   0.0569012   0.025
0.970171   0.0569012   0.025
0.982598   0.0569012   0.025
0.994315   0.0569012   0.025
0.00568455   0.0715849   0.025
0.0174023   0.0715849   0.025
0.0298294   0.0715849   0.025
0.0429888   0.0715849   0.025
0.0569012   0.0715849   0.025
0.0715849   0.0715849   0.025
0.0870549   0.0715849   0.025
0.103323   0.0715849   0.025
0.120395   0.0715849   0.025
0.138275   0.0715849   0.025
0.156961   0.0715849   0.025
0.176443   0.0715849   0.025
0.196707   0.0715849   0.025
0.217734   0.0715849   0.025
0.239496   0.0715849   0.025
0.261959   0.0715849   0.025
0.285082   0.0715849   0.025
0.308818   0.0715849   0.025
0.333113   0.0715849   0.025
0.357906   0.0715849   0.025
0.383132   0.0715849   0.025
0.408719   0.0715849   0.025
0.434592   0.0715849   0.025
0.460672   0.0715849   0.025
0.486877   0.0715849   0.025
0.513123   0.0715849   0.025
0.539328   0.0715849   0.025
0.565408   0.0715849   0.025
0.591281   0.0715849   0.025
0.616868   0.0715849   0.025
0.642094   0.0715849   0.025
0.666887   0.0715849   0.025
0.691182   0.0715849   0.025
0.714918   0.0715849   0.025
0.738041   0.0715849   0.025
0.760504   0.0715849   0.025
0.782266   0.0715849   0.025
0.803293   0.0715849   0.025
0.823557   0.0715849   0.025
0.843039   0.0715849   0.025
0.861725   0.0715849   0.025
0.879605   0.0715849   0.025
0.896677   0.0715849   0.025
0.912945   0.0715849   0.025
0.928415   0.0715849   0.025
0.943099   0.0715849   0.025
0.957011   0.0715849   0.025
0.970171   0.0715849   0.025
0.982598   0.0715849   0.025
0.994315   0.0715849   0.025
0.00568455   0.0870549   0.025
0.0174023   0.0870549   0.025
0.0298294   0.0870549   0.025
0.0429888   0.0870549   0.025
0.0569012   0.0870549   0.025
0.0715849   0.0870549   0.025
0.0870549   0.0870549   0.025
0.103323   0.0870549   0.025
0.120395   0.0870549   0.025
0.138275   0.0870549   0.025
0.156961   0.0870549   0.025
0.176443   0.0870549   0.025
0.196707   0.0870549   0.025
0.217734   0.0870549   0.025
0.239496   0.0870549   0.025
0.261959   0.0870549   0.025
0.285082   0.0870549   0.025
0.308818   0.0870549   0.025
0.333113   0.0870549   0.025
0.357906   0.0870549   0.025
0.383132   0.0870549   0.025
0.408719   0.0870549   0.025
0.434592   0.0870549   0.025
0.460672   0.0870549   0.025
0.486877   0.0870549   0.025
0.513123   0.0870549   0.025
0.539328   0.0870549   0.025
0.565408   0.0870549   0.025
0.591281   0.0870549   0.025
0.616868   0.0870549   0.025
0.642094   0.0870549   0.025
0.666887   0.0870549   0.025
0.691182   0.0870549   0.025
0.714918   0.0870549   0.025
0.738041   0.0870549   0.025
0.760504   0.0870549   0.025
0.782266   0.0870549   0.025
[...]
POINT_DATA   50000
VECTORS Velocidades double

-7.52568e-05 -0.00165355 0
-0.000203721 -0.00324641 0
-0.00028011 -0.00414208 0
-0.000308829 -0.00464453 0
-0.000317102 -0.0048771 0
-0.000331557 -0.00490221 0
-0.000372398 -0.0047582 0
-0.000453775 -0.00447222 0
-0.000585207 -0.00406479 0
-0.000773114 -0.00355059 0
-0.00102286 -0.00293546 0
-0.00114723 -0.00220298 0
-0.00132482 -0.00125515 0
-0.00176121 -0.000544104 0
-0.00227181 4.7604e-05 0
-0.0028295 0.000546699 0
-0.00342501 0.000950479 0
-0.00404938 0.00124258 0
-0.00468966 0.00140108 0
-0.00532711 0.00140498 0
-0.00593665 0.00123999 0
-0.00648733 0.000903429 0
-0.00694513 0.000407754 0
-0.00726555 -0.000217108 0
-0.00740692 -0.0009127 0
-0.00734098 -0.00161175 0
-0.00705122 -0.00223634 0
-0.00654149 -0.00271324 0
-0.00583556 -0.00297963 0
-0.00497761 -0.00299172 0
-0.00402819 -0.00273193 0
-0.00305622 -0.0022124 0
-0.00212905 -0.00147422 0
-0.00130262 -0.000583192 0
-0.000613054 0.000375061 0
-0.000226686 0.00129334 0
1.0769e-05 0.00201429 0
0.000277635 0.00284883 0
0.000440457 0.00364105 0
0.000505228 0.00433238 0
0.000491474 0.00489702 0
0.000418816 0.00532308 0
0.000305356 0.00560443 0
0.000168142 0.0057363 0
2.421e-05 0.00571201 0
-0.000107987 0.00551902 0
-0.000206806 0.00513207 0
-0.000246484 0.00449725 0
-0.00020282 0.0034892 0
-7.87892e-05 0.0017747 0
-0.000251794 -0.00303988 0
-0.000663686 -0.00633273 0
-0.000877842 -0.00823316 0
-0.000935486 -0.00928587 0
-0.000939564 -0.00975379 0
-0.000971307 -0.00977941 0
-0.00108832 -0.0094512 0
-0.00133083 -0.00883098 0
-0.00172666 -0.00796452 0
-0.00229547 -0.00688358 0
-0.0030549 -0.00559927 0
-0.00338725 -0.00407418 0
-0.00394359 -0.00212836 0
-0.00535298 -0.000662141 0
-0.00694317 0.000550387 0
-0.00867821 0.00156991 0
-0.0105333 0.00239227 0
-0.0124783 0.00298256 0
-0.0144686 0.00329331 0
-0.0164398 0.00327841 0
-0.018308 0.00290547 0
-0.0199721 0.00216655 0
-0.0213229 0.00108621 0
-0.0222348 -0.000273427 0
-0.0225891 -0.00181371 0
-0.0223059 -0.00336539 0
-0.0213547 -0.004769 0
-0.0197607 -0.00586812 0
-0.0176018 -0.0065251 0
-0.0150091 -0.00664084 0
-0.0121563 -0.00617148 0
-0.00923862 -0.0051372 0
-0.006448 -0.00362161 0
-0.00394744 -0.00176345 0
-0.00184799 0.000252998 0
-0.000706725 0.0021932 0
2.46447e-05 0.00372998 0
0.000896533 0.00549768 0
0.00141146 0.00717729 0
0.00161723 0.00864383 0
0.00157489 0.00984384 0
0.00134435 0.0107532 0
0.000981646 0.0113592 0
0.000540245 0.0116504 0
7.37298e-05 0.0116103 0
-0.000360368 0.011208 0
-0.00069487 0.0103829 0
-0.00084547 0.00901098 0
-0.000713252 0.00682872 0
-0.000281785 0.00325033 0
-0.000181825 -0.00256814 0
-0.000578259 -0.0059452 0
-0.000945592 -0.00802944 0
-0.00120413 -0.00918269 0
-0.00141399 -0.0096603 0
-0.00166526 -0.00962951 0
-0.00203962 -0.00920292 0
-0.0026019 -0.00846041 0
-0.00340115 -0.00745987 0
-0.00447477 -0.00623969 0
-0.00585447 -0.00481161 0
-0.00647912 -0.003134 0
-0.00743907 -0.0010619 0
-0.00980778 0.000518711 0
-0.0124691 0.00181373 0
-0.0153786 0.002894 0
-0.0184904 0.00375656 0
-0.0217453 0.00436046 0
-0.0250595 0.00464858 0
-0.0283186 0.00456413 0
-0.0313776 0.00406506 0
-0.0340669 0.00313698 0
-0.0362047 0.00180353 0
-0.037625 0.00013123 0
-0.0381317 -0.0018048 0
-0.0375877 -0.00376952 0
-0.0359832 -0.0055865 0
-0.0333648 -0.00707322 0
-0.0298585 -0.00806147 0
-0.0256678 -0.00842309 0
-0.0210572 -0.0080922 0
-0.0163233 -0.00707826 0
-0.0117593 -0.00546779 0
-0.0076184 -0.00341697 0
-0.00408029 -0.00114213 0
-0.00213423 0.00107626 0
-0.000866609 0.00287992 0
0.000672302 0.0049163 0
0.00163327 0.00685053 0
0.00209872 0.00854221 0
0.00216303 0.00993289 0
0.00192113 0.0109963 0
0.00146556 0.0117164 0
0.000887553 0.0120766 0
0.000279498 0.012051 0
-0.000262356 0.0115946 0
-0.00063747 0.0106274 0
-0.000751128 0.00900804 0
-0.000558979 0.006496 0
-0.00019313 0.00273404 0
-0.000115184 -0.00222656 0
-0.000443493 -0.00547879 0
-0.000888851 -0.007631 0
-0.001358 -0.00884578 0
-0.00186105 -0.00931531 0
-0.00246128 -0.00920471 0
-0.00323685 -0.00864339 0
-0.00426153 -0.00772988 0
-0.00559806 -0.00653704 0
-0.00729771 -0.00511307 0
-0.00940184 -0.00347481 0
-0.0103829 -0.00158738 0
-0.0117804 0.000654046 0
-0.015134 0.00239844 0
-0.0188795 0.00382453 0
-0.0229702 0.00500223 0
-0.0273392 0.00592496 0
-0.0318935 0.00654168 0
-0.0365056 0.00678104 0
-0.0410079 0.00657098 0
-0.0451943 0.00585623 0
-0.0488295 0.00461422 0
-0.0516654 0.00286798 0
-0.0535309 0.000690719 0
-0.0541513 -0.00183752 0
-0.053329 -0.00442576 0
-0.0511028 -0.00686376 0
-0.0475377 -0.00893137 0
-0.0427973 -0.0104178 0
-0.0371409 -0.0111547 0
-0.0309032 -0.0110454 0
-0.0244607 -0.0100831 0
-0.01819 -0.00835643 0
-0.0124232 -0.00604341 0
-0.00740929 -0.00340126 0
-0.004626 -0.000764176 0
-0.00277711 0.00146893 0
-0.000475766 0.00391781 0
0.00104593 0.00623385 0
0.00190407 0.00826425 0
0.00222103 0.00994351 0
0.00212105 0.0112396 0
0.0017286 0.0121294 0
0.00116782 0.0125868 0
0.000561778 0.0125738 0
2.92752e-05 0.0120321 0
-0.000324709 0.0108737 0
-0.000432211 0.00897481 0
-0.000306379 0.00618649 0
-9.67962e-05 0.00240162 0
-8.29349e-05 -0.00198522 0
-0.000377152 -0.00498953 0
-0.000889671 -0.00704857 0
-0.00156598 -0.00821266 0
-0.00239982 -0.00860463 0
-0.00342784 -0.00836499 0
-0.00471061 -0.00762413 0
-0.00631595 -0.0064917 0
-0.00830882 -0.00505328 0
-0.010746 -0.00336813 0
-0.0136722 -0.00146333 0
-0.0150629 0.000678872 0
-0.0169339 0.00311842 0
-0.0213185 0.005069 0
-0.0261785 0.00667215 0
-0.0314677 0.0079825 0
-0.0370991 0.00898129 0
-0.0429447 0.0096018 0
-0.0488313 0.00975393 0
-0.0545373 0.00934676 0
-0.0597981 0.00830958 0
-0.0643186 0.00661145 0
-0.0677945 0.00427696 0
-0.0700655 0.0013929 0
-0.0707859 -0.00192827 0
-0.0697065 -0.00534675 0
-0.0669251 -0.00861079 0
-0.0625159 -0.0114531 0
-0.0566667 -0.0136099 0
-0.0496748 -0.0148631 0
-0.0419259 -0.0150763 0
-0.0338588 -0.0142201 0
-0.0259202 -0.0123814 0
-0.0185166 -0.00976049 0
-0.0119705 -0.00665835 0
-0.00831721 -0.00346559 0
-0.00583527 -0.000628456 0
-0.00264855 0.00237789 0
-0.000427456 0.00520073 0
0.000974471 0.00768194 0
0.0017016 0.00974838 0
0.00190067 0.0113583 0
0.00172088 0.0124777 0
0.00131074 0.0130687 0
0.000812428 0.0130832 0
0.000352627 0.0124588 0
2.80162e-05 0.0111198 0
-0.000115311 0.00898837 0
-0.000102689 0.00601608 0
-3.27977e-05 0.00224518 0
-7.73965e-05 -0.00177836 0
-0.000388097 -0.00444782 0
-0.00100358 -0.00626137 0
-0.0019111 -0.00723123 0
-0.00311022 -0.00743534 0
-0.00462344 -0.00698577 0
-0.00649327 -0.00600244 0
-0.00877411 -0.0045962 0
-0.0115238 -0.00285964 0
-0.0147962 -0.000861752 0
-0.0186325 0.0013568 0
-0.020478 0.00378941 0
-0.0228576 0.00644711 0
-0.0283284 0.00863846 0
-0.034344 0.0104581 0
-0.0408572 0.0119305 0
-0.0477615 0.013014 0
-0.0548943 0.0136193 0
-0.0620372 0.0136331 0
-0.0689175 0.012943 0
-0.0752177 0.0114625 0
-0.080592 0.00915375 0
-0.0846916 0.00604705 0
-0.0873557 0.00225141 0
-0.088191 -0.00206978 0
-0.0869262 -0.00651943 0
-0.0836994 -0.0108131 0
-0.0785813 -0.0146286 0
-0.0717663 -0.0176404 0
-0.0635711 -0.0195707 0
-0.0544147 -0.0202344 0
-0.0447838 -0.0195699 0
-0.0351874 -0.0176554 0
-0.0261058 -0.0147082 0
-0.0179427 -0.0110712 0
-0.0133745 -0.00719142 0
-0.010195 -0.00356998 0
-0.00597069 0.000137352 0
-0.00288355 0.00359031 0
-0.00076456 0.00663574 0
0.000544087 0.0091932 0
0.00120351 0.0112076 0
0.00137974 0.0126305 0
0.00123747 0.0134128 0
0.000930026 0.013501 0
0.000587106 0.0128396 0
0.000301497 0.0113786 0
0.000118039 0.00909101 0
3.17853e-05 0.00600012 0
4.69383e-06 0.00221017 0
-8.9644e-05 -0.00155066 0
-0.000462685 -0.00378375 0
-0.00123414 -0.00520533 0
-0.00241962 -0.00582824 0
-0.00402975 -0.00571168 0
-0.00608182 -0.00494707 0
-0.00860461 -0.00364011 0
-0.0116375 -0.00189537 0
-0.0152263 0.000194042 0
-0.0194155 0.00255252 0
-0.0242381 0.00512483 0
-0.0265758 0.00787617 0
-0.0294957 0.0107666 0
-0.0361095 0.0132267 0
-0.0433258 0.0152939 0
-0.0510932 0.0169489 0
-0.059285 0.0181161 0
-0.0677056 0.0186762 0
-0.0760949 0.0184889 0
-0.0841353 0.0174192 0
-0.091465 0.0153657 0
-0.097699 0.0122871 0
-0.102456 0.00822423 0
-0.105529 0.0033152 0
-0.106525 -0.00221913 0
-0.105205 -0.00789413 0
-0.101694 -0.0134225 0
-0.0960393 -0.018421 0
-0.0884249 -0.022493 0
-0.0791676 -0.0252918 0
-0.0687026 -0.0265717 0
-0.0575524 -0.0262265 0
-0.0462829 -0.0243128 0
-0.0354509 -0.0210549 0
-0.0255511 -0.0168307 0
-0.0200045 -0.0121415 0
-0.0160448 -0.00755221 0
-0.010595 -0.003006 0
-0.00644071 0.00119908 0
-0.00340353 0.00492783 0
-0.0013238 0.00809246 0
-3.46559e-05 0.01062 0
0.000640234 0.0124448 0
0.000877052 0.0135063 0
0.000838507 0.0137506 0
0.00066093 0.0131352 0
0.000444611 0.0116383 0
0.000250515 0.00927337 0
0.000106585 0.00610389 0
2.44807e-05 0.00225057 0
-0.000114075 -0.00125833 0
-0.000587012 -0.00291538 0
-0.00156851 -0.00378818 0
-0.00308826 -0.00390529 0
-0.00516392 -0.00332421 0
-0.00780982 -0.00212511 0
-0.0110441 -0.000400409 0
-0.0148921 0.00175582 0
-0.0193856 0.00425547 0
-0.0245567 0.00702015 0
-0.0304273 0.009981 0
-0.0332862 0.0130741 0
-0.0367731 0.016209 0
-0.0445822 0.0189605 0
-0.0530428 0.0212976 0
-0.0620945 0.0231456 0
-0.0715902 0.0243846 0
-0.081304 0.0248592 0
-0.0909401 0.0243992 0
-0.100145 0.0228473 0
-0.108523 0.02009 0
-0.115664 0.0160864 0
-0.121166 0.0108921 0
-0.124687 0.00467653 0
-0.125918 -0.00228664 0
-0.124736 -0.00937489 0
-0.121153 -0.0163496 0
-0.115176 -0.0227583 0
-0.106959 -0.0281254 0
-0.0968005 -0.0320249 0
-0.0851343 -0.0341364 0
-0.0725066 -0.0342919 0
-0.0595349 -0.0325086 0
-0.0468556 -0.0290009 0
-0.0350653 -0.0241686 0
-0.0284575 -0.018563 0
-0.0236132 -0.012821 0
-0.0167048 -0.00730886 0
-0.0112391 -0.00222991 0
-0.00704739 0.00231341 0
-0.00398253 0.00622275 0
-0.00187988 0.00940028 0
-0.000556434 0.0117578 0
0.000175227 0.0132225 0
0.000490699 0.013741 0
0.000540739 0.0132841 0
0.000444177 0.0118536 0
0.000288001 0.00948995 0
0.000134432 0.00627579 0
3.24252e-05 0.00233228 0
-0.000147396 -0.000864527 0
-0.000750338 -0.00175987 0
-0.00199035 -0.0019045 0
-0.00390007 -0.00134678 0
-0.00649713 -0.000150383 0
-0.00979066 0.00160968 0
-0.0137885 0.00385281 0
-0.0185028 0.00649799 0
-0.0239511 0.0094665 0
-0.0301524 0.0126811 0
-0.0371163 0.0160615 0
-0.0405161 0.0195159 0
-0.0445902 0.0229061 0
-0.053637 0.0259676 0
-0.0633778 0.0285889 0
-0.0737391 0.0306296 0
-0.0845533 0.0319184 0
-0.0955686 0.0322591 0
-0.106461 0.0314504 0
-0.116853 0.0293147 0
-0.126328 0.0257299 0
-0.13446 0.0206594 0
-0.140834 0.0141752 0
-0.144862 0.00647447 0
-0.146428 -0.00212858 0
-0.145632 -0.0108139 0
-0.142236 -0.0194569 0
-0.136193 -0.0275256 0
-0.127608 -0.0344587 0
-0.116742 -0.0397401 0
-0.10401 -0.042959 0
-0.0899681 -0.0438645 0
-0.0752744 -0.0424095 0
-0.0606447 -0.0387741 0
-0.0467866 -0.0333606 0
-0.039023 -0.0267588 0
-0.033167 -0.019684 0
-0.0245122 -0.0130967 0
-0.0174379 -0.00701978 0
-0.0118125 -0.00150977 0
-0.00751722 0.00331405 0
-0.00439589 0.00731658 0
-0.00225908 0.0103787 0
-0.000904428 0.0124106 0
-0.000136759 0.0133567 0
0.0002178 0.0131975 0
0.000305077 0.0119513 0
0.000242888 0.00967513 0
0.000125876 0.00646118 0
3.21253e-05 0.00242921 0
-0.000187452 -0.000336519 0
-0.000944139 -0.000237564 0
-0.00248289 0.000553786 0
-0.00483117 0.00196964 0
-0.00799962 0.00393837 0
-0.0119879 0.00638865 0
-0.016792 0.00925223 0
-0.0224105 0.012464 0
-0.0288475 0.0159588 0
-0.0361092 0.0196646 0
-0.0441936 0.0234926 0
-0.0481442 0.027326 0
-0.0528167 0.0309838 0
-0.063129 0.0343705 0
-0.0741724 0.0372823 0
-0.0858579 0.0395062 0
-0.0979981 0.0408144 0
-0.110321 0.0409681 0
-0.122485 0.039736 0
-0.134096 0.036923 0
-0.144732 0.0324021 0
-0.15396 0.0261431 0
-0.16136 0.0182334 0
-0.165956 0.00889011 0
-0.16797 -0.00154749 0
-0.167844 -0.0120129 0
-0.16493 -0.0225586 0
-0.159111 -0.0325591 0
-0.150435 -0.0413645 0
-0.139109 -0.0483605 0
-0.125506 -0.0530295 0
-0.110168 -0.0550137 0
-0.0937784 -0.0541714 0
-0.0771225 -0.0506149 0
-0.0610211 -0.0447188 0
-0.0520124 -0.0370911 0
-0.0449998 -0.0285233 0
-0.0342489 -0.0207788 0
-0.0252097 -0.0135726 0
-0.0178234 -0.00691193 0
-0.0120162 -0.000959515 0
-0.00764397 0.00409209 0
-0.00450816 0.00807943 0
-0.00238516 0.0108876 0
-0.00105213 0.0124529 0
-0.000303835 0.0127599 0
3.90124e-05 0.0118375 0
0.000127978 0.00975334 0
8.90262e-05 0.00660682 0
2.59106e-05 0.00252026 0
-0.000232502 0.000355234 0
-0.00116066 0.00172533 0
-0.00302857 0.00368964 0
-0.00585256 0.00616257 0
-0.00963042 0.0090666 0
-0.0143479 0.0123367 0
-0.0199865 0.0159204 0
-0.0265308 0.0197732 0
-0.0339717 0.0238482 0
-0.0423036 0.0280829 0
-0.0515148 0.0323841 0
-0.0560154 0.0366133 0
-0.0612875 0.0405535 0
-0.0728721 0.0442774 0
-0.0852204 0.0474793 0
-0.0982259 0.0498689 0
-0.111685 0.0511606 0
-0.12531 0.0510738 0
-0.138752 0.0493497 0
-0.151612 0.0457791 0
-0.163467 0.0402331 0
-0.173889 0.0326887 0
-0.182457 0.023245 0
-0.187668 0.01213 0
-0.190236 -0.000304675 0
-0.191072 -0.0127353 0
-0.188942 -0.0254241 0
-0.183666 -0.0376407 0
-0.175226 -0.0486507 0
-0.163756 -0.0577374 0
-0.149564 -0.0642641 0
-0.133148 -0.0677422 0
-0.115185 -0.0679004 0
-0.0965054 -0.0647412 0
-0.0780323 -0.0585682 0
-0.0677253 -0.0499717 0
-0.0594049 -0.0398032 0
-0.0461491 -0.0308586 0
-0.034732 -0.0223774 0
-0.0252115 -0.0143384 0
-0.0175738 -0.00698731 0
-0.0116884 -0.000603342 0
-0.00734315 0.00458723 0
-0.00428614 0.00843259 0
-0.0022588 0.0108531 0
-0.00101697 0.0118317 0
-0.000342222 0.0114031 0
-4.60558e-05 0.00964379 0
2.98719e-05 0.00666187 0
1.53618e-05 0.00258773 0
-0.000280801 0.00123647 0
-0.00139174 0.00419319 0
-0.00360773 0.00759348 0
-0.00692965 0.0113366 0
-0.011338 0.0153436 0
-0.0168007 0.0195614 0
-0.0232828 0.0239603 0
-0.0307536 0.0285226 0
-0.0391911 0.0332262 0
-0.0485796 0.0380233 0
-0.0588994 0.0428204 0
-0.0639376 0.0474624 0
-0.0697973 0.0517026 0
-0.0826336 0.0557723 0
-0.0962606 0.059257 0
-0.110554 0.0617883 0
-0.125297 0.0630246 0
-0.140195 0.062646 0
-0.154893 0.0603696 0
-0.168999 0.0559758 0
-0.182096 0.0493357 0
-0.193764 0.0404331 0
-0.203587 0.0293758 0
-0.209421 0.0163958 0
-0.212622 0.00185177 0
-0.214674 -0.0127298 0
-0.21361 -0.0277921 0
-0.209203 -0.0425004 0
-0.201368 -0.056049 0
-0.190152 -0.067624 0
-0.175772 -0.0764649 0
-0.158639 -0.0819336 0
-0.13938 -0.0835947 0
-0.118825 -0.0812914 0
-0.097966 -0.0751988 0
-0.0863897 -0.0658332 0
-0.0766281 -0.0540661 0
-0.060421 -0.0439282 0
-0.0461773 -0.0340051 0
-0.0341176 -0.0243087 0
-0.0242996 -0.015226 0
-0.0166083 -0.00715964 0
-0.0108152 -0.000422554 0
-0.00663498 0.00478135 0
-0.00376652 0.00834671 0
-0.00191994 0.0102487 0
-0.000831883 0.0105252 0
-0.00027256 0.00926131 0
-4.78211e-05 0.00657692 0
1.46802e-06 0.00261609 0
-0.000330362 0.00232748 0
-0.001628 0.00721618 0
-0.00419748 0.0123352 0
-0.00802137 0.0175716 0
-0.0130599 0.0228513 0
-0.0192609 0.0281416 0
-0.0265707 0.0334441 0
-0.0349432 0.0387772 0
-0.0443439 0.044151 0
-0.0547476 0.0495387 0
-0.066129 0.0548516 0
-0.0716791 0.0599227 0
-0.0780993 0.0644829 0
-0.0921308 0.0689017 0
-0.106972 0.0726545 0
-0.122482 0.0752974 0
-0.138433 0.0764361 0
-0.154525 0.0757159 0
-0.170408 0.0728336 0
-0.185694 0.0675617 0
-0.199978 0.0597733 0
-0.212852 0.0494596 0
-0.223917 0.0367367 0
-0.230327 0.0218415 0
-0.234186 0.00514256 0
-0.237619 -0.011766 0
-0.237839 -0.0293937 0
-0.234605 -0.0468269 0
-0.22777 -0.0632118 0
-0.217284 -0.0776554 0
-0.203244 -0.0892816 0
-0.185933 -0.0972959 0
-0.165865 -0.101071 0
-0.143804 -0.100241 0
-0.120744 -0.0947842 0
-0.108067 -0.0850646 0
-0.0967897 -0.0718994 0
-0.0772044 -0.060632 0
-0.0597001 -0.0490805 0
-0.0446953 -0.0374033 0
-0.03233 -0.0261971 0
-0.0225123 -0.0160311 0
-0.0150025 -0.00733362 0
-0.00948182 -0.000380779 0
-0.00560292 0.00468339 0
-0.00302474 0.00781901 0
-0.00143302 0.00906413 0
-0.000550921 0.00851333 0
-0.000143022 0.00630131 0
-1.54155e-05 0.00259066 0
-0.000378835 0.00364067 0
-0.00185846 0.0108241 0
-0.00477104 0.0179549 0
-0.00907965 0.0249116 0
-0.014723 0.0316322 0
-0.0216278 0.0381141 0
-0.029721 0.0444011 0
-0.0389408 0.0505582 0
-0.0492405 0.0566363 0
-0.0605865 0.0626367 0
-0.0729488 0.0684811 0
-0.0789703 0.073996 0
-0.0859049 0.078896 0
-0.101031 0.0836591 0
-0.116973 0.0876557 0
-0.133574 0.0903716 0
-0.150596 0.0913648 0
-0.167738 0.0902499 0
-0.184651 0.0867069 0
-0.200955 0.0805037 0
-0.216258 0.0715182 0
-0.230172 0.0597527 0
-0.242326 0.0453379 0
-0.249192 0.0285237 0
-0.253661 0.00970072 0
-0.258499 -0.00967834 0
-0.26012 -0.0299881 0
-0.258302 -0.0502946 0
-0.252846 -0.0697277 0
-0.24361 -0.0873479 0
-0.230549 -0.10219 0
-0.213776 -0.113315 0
-0.193626 -0.119892 0
-0.170708 -0.121307 0
-0.145928 -0.117269 0
-0.132519 -0.1079 0
-0.11977 -0.0938484 0
-0.0965085 -0.0815774 0
-0.0754107 -0.0682211 0
-0.0571057 -0.0542302 0
-0.0418328 -0.0404756 0
-0.0295488 -0.0277374 0
-0.0200221 -0.0165961 0
-0.0129104 -0.00742839 0
-0.00782266 -0.000436372 0
-0.00436357 0.00431389 0
-0.00216234 0.00685588 0
-0.000888392 0.00729328 0
-0.000258044 0.00577818 0
-3.5673e-05 0.00249552 0
-0.000423492 0.00517779 0
-0.00207048 0.0150196 0
-0.00529788 0.0244537 0
-0.01005 0.0333539 0
-0.0162448 0.0416775 0
-0.0237882 0.0494625 0
-0.0325886 0.0568065 0
-0.0425682 0.0638318 0
-0.0536687 0.0706402 0
-0.0658483 0.0772683 0
-0.0790728 0.0836542 0
-0.085509 0.0896227 0
-0.0928904 0.094878 0
-0.108956 0.0999684 0
-0.125826 0.104171 0
-0.143326 0.106908 0
-0.161208 0.107695 0
-0.179167 0.10612 0
-0.196854 0.101849 0
-0.213897 0.0946508 0
-0.229917 0.0844134 0
-0.244555 0.0711599 0
-0.257485 0.0550479 0
-0.26462 0.0363569 0
-0.269562 0.0155143 0
-0.275656 -0.00641036 0
-0.278652 -0.0294067 0
-0.278381 -0.0526072 0
-0.274617 -0.0751613 0
-0.267133 -0.096131 0
-0.25574 -0.114507 0
-0.24035 -0.129241 0
-0.221062 -0.139317 0
-0.198242 -0.143853 0
-0.172586 -0.142238 0
-0.159042 -0.134257 0
-0.145059 -0.120248 0
-0.118119 -0.107183 0
-0.0933174 -0.0919363 0
-0.0714799 -0.0753679 0
-0.0529869 -0.058662 0
-0.0378966 -0.0428551 0
-0.0260274 -0.0287295 0
-0.0170397 -0.0168052 0
-0.01051 -0.00737289 0
-0.00599108 -0.000544102 0
-0.0030517 0.00370058 0
-0.00130083 0.00547102 0
-0.000398797 0.00493767 0
-6.04723e-05 0.00231071 0
-0.00046131 0.00692706 0
-0.00225016 0.0197715 0
-0.00574469 0.0317846 0
-0.0108734 0.0428383 0
-0.0175363 0.0529163 0
-0.0256208 0.0621062 0
-0.0350179 0.0705704 0
-0.0456352 0.0784995 0
-0.0574021 0.0860552 0
-0.0702686 0.0933174 0
-0.0841949 0.100246 0
-0.0909718 0.106669 0
-0.0987086 0.112285 0
-0.115499 0.117668 0
-0.133059 0.122018 0
-0.151192 0.124704 0
-0.16964 0.125203 0
-0.188087 0.123079 0
-0.206185 0.117991 0
-0.223565 0.109712 0
-0.239872 0.0981533 0
-0.254782 0.0833734 0
-0.268031 0.0655752 0
-0.27519 0.0450872 0
-0.280387 0.0223871 0
-0.287406 -0.00204883 0
-0.291593 -0.0275987 0
-0.292852 -0.0535532 0
-0.290956 -0.079119 0
-0.285623 -0.103417 0
-0.276534 -0.125457 0
-0.263398 -0.144141 0
-0.246044 -0.158314 0
-0.224522 -0.166851 0
-0.199208 -0.168799 0
-0.186327 -0.163544 0
-0.171605 -0.150964 0
-0.141479 -0.137474 0
-0.113219 -0.120488 0
-0.0878329 -0.101273 0
-0.0659196 -0.0813255 0
-0.0477238 -0.0619884 0
-0.0331838 -0.0443129 0
-0.0220091 -0.0290256 0
-0.0137708 -0.0165557 0
-0.00797996 -0.0070926 0
-0.00414565 -0.000649274 0
-0.00181143 0.00288232 0
-0.00057429 0.00368941 0
-9.16583e-05 0.0020092 0
-0.000489162 0.00886093 0
-0.0023832 0.0250097 0
-0.00607735 0.0398456 0
-0.0114896 0.0532402 0
-0.0185069 0.0652079 0
-0.0270024 0.0758931 0
-0.0368522 0.0855315 0
-0.0479499 0.0943908 0
-0.0602128 0.102701 0
-0.0735809 0.110593 0
-0.0880069 0.118054 0
-0.0950327 0.124919 0
-0.103009 0.130882 0
-0.120251 0.136499 0
-0.138195 0.140915 0
-0.156624 0.143451 0
-0.175263 0.14355 0
-0.193786 0.140757 0
-0.211839 0.13473 0
-0.229067 0.125259 0
-0.245137 0.112293 0
-0.259777 0.0959449 0
-0.272794 0.0764834 0
-0.279705 0.054304 0
-0.284885 0.0299397 0
-0.292355 0.00316843 0
-0.297403 -0.0246602 0
-0.300006 -0.0530583 0
-0.299974 -0.0813273 0
-0.297001 -0.108705 0
-0.29068 -0.134288 0
-0.280547 -0.157011 0
-0.266166 -0.175659 0
-0.247245 -0.188928 0
-0.223762 -0.195558 0
-0.212425 -0.194516 0