# vtk DataFile Version 2.0
Velocidades
ASCII

DATASET STRUCTURED_GRID
DIMENSIONS   50   50   20

POINTS   50000   double
0.00568455   0.00568455   0.025
0.0174023   0.00568455   0.025
0.0298294   0.00568455   0.025
0.0429888   0.00568455   0.025
0.0569012   0.00568455   0.025
0.0715849   0.00568455   0.025
0.0870549   0.00568455   0.025
0.103323   0.00568455   0.025
0.120395   0.00568455   0.025
0.138275   0.00568455   0.025
0.156961   0.00568455   0.025
0.176443   0.00568455   0.025
0.196707   0.00568455   0.025
0.217734   0.00568455   0.025
0.239496   0.00568455   0.025
0.261959   0.00568455   0.025
0.285082   0.00568455   0.025
0.308818   0.00568455   0.025
0.333113   0.00568455   0.025
0.357906   0.00568455   0.025
0.383132   0.00568455   0.025
0.408719   0.00568455   0.025
0.434592   0.00568455   0.025
0.460672   0.00568455   0.025
0.486877   0.00568455   0.025
0.513123   0.00568455   0.025
0.539328   0.00568455   0.025
0.565408   0.00568455   0.025
0.591281   0.00568455   0.025
0.616868   0.00568455   0.025
0.642094   0.00568455   0.025
0.666887   0.00568455   0.025
0.691182   0.00568455   0.025
0.714918   0.00568455   0.025
0.738041   0.00568455   0.025
0.760504   0.00568455   0.025
0.782266   0.00568455   0.025
0.803293   0.00568455   0.025
0.823557   0.00568455   0.025
0.843039   0.00568455   0.025
0.861725   0.00568455   0.025
0.879605   0.00568455   0.025
0.896677   0.00568455   0.025
0.912945   0.00568455   0.025
0.928415   0.00568455   0.025
0.943099   0.00568455   0.025
0.957011   0.00568455   0.025
0.970171   0.00568455   0.025
0.982598   0.00568455   0.025
0.994315   0.00568455   0.025
0.00568455   0.0174023   0.025
0.0174023   0.0174023   0.025
0.0298294   0.0174023   0.025
0.0429888   0.0174023   0.025
0.0569012   0.0174023   0.025
0.0715849   0.0174023   0.025
0.0870549   0.0174023   0.025
0.103323   0.0174023   0.025
0.120395   0.0174023   0.025
0.138275   0.0174023   0.025
0.156961   0.0174023   0.025
0.176443   0.0174023   0.025
0.196707   0.0174023   0.025
0.217734   0.0174023   0.025
0.239496   0.0174023   0.025
0.261959   0.0174023   0.025
0.285082   0.0174023   0.025
0.308818   0.0174023   0.025
0.333113   0.0174023   0.025
0.357906   0.0174023   0.025
0.383132   0.0174023   0.025
0.408719   0.0174023   0.025
0.434592   0.0174023   0.025
0.460672   0.0174023   0.025
0.486877   0.0174023   0.025
0.513123   0.0174023   0.025
0.539328   0.0174023   0.025
0.565408   0.0174023   0.025
0.591281   0.0174023   0.025
0.616868   0.0174023   0.025
0.642094   0.0174023   0.025
0.666887   0.0174023   0.025
0.691182   0.0174023   0.025
0.714918   0.0174023   0.025
0.738041   0.0174023   0.025
0.760504   0.0174023   0.025
0.782266   0.0174023   0.025
0.803293   0.0174023   0.025
0.823557   0.0174023   0.025
0.843039   0.0174023   0.025
0.861725   0.0174023   0.025
0.879605   0.0174023   0.025
0.896677   0.0174023   0.025
0.912945   0.0174023   0.025
0.928415   0.0174023   0.025
0.943099   0.0174023   0.025
0.957011   0.0174023   0.025
0.970171   0.0174023   0.025
0.982598   0.0174023   0.025
0.994315   0.0174023   0.025
0.00568455   0.0298294   0.025
0.0174023   0.0298294   0.025
0.0298294   0.0298294   0.025
0.0429888   0.0298294   0.025
0.0569012   0.0298294   0.025
0.0715849   0.0298294   0.025
0.0870549   0.0298294   0.025
0.103323   0.0298294   0.025
0.120395   0.0298294   0.025
0.138275   0.0298294   0.025
0.156961   0.0298294   0.025
0.176443   0.0298294   0.025
0.196707   0.0298294   0.025
0.217734   0.0298294   0.025
0.239496   0.0298294   0.025
0.261959   0.0298294   0.025
0.285082   0.0298294   0.025
0.308818   0.0298294   0.025
0.333113   0.0298294   0.025
0.357906   0.0298294   0.025
0.383132   0.0298294   0.025
0.408719   0.0298294   0.025
0.434592   0.0298294   0.025
0.460672   0.0298294   0.025
0.486877   0.0298294   0.025
0.513123   0.0298294   0.025
0.539328   0.0298294   0.025
0.565408   0.0298294   0.025
0.591281   0.0298294   0.025
0.616868   0.0298294   0.025
0.642094   0.0298294   0.025
0.666887   0.0298294   0.025
0.691182   0.0298294   0.025
0.714918   0.0298294   0.025
0.738041   0.0298294   0.025
0.760504   0.0298294   0.025
0.782266   0.0298294   0.025
0.803293   0.0298294   0.025
0.823557   0.0298294   0.025
0.843039   0.0298294   0.025
0.861725   0.0298294   0.025
0.879605   0.0298294   0.025
0.896677   0.0298294   0.025
0.912945   0.0298294   0.025
0.928415   0.0298294   0.025
0.943099   0.0298294   0.025
0.957011   0.0298294   0.025
0.970171   0.0298294   0.025
0.982598   0.0298294   0.025
0.994315   0.0298294   0.025
0.00568455   0.0429888   0.025
0.0174023   0.0429888   0.025
0.0298294   0.0429888   0.025
0.0429888   0.0429888   0.025
0.0569012   0.0429888   0.025
0.0715849   0.0429888   0.025
0.0870549   0.0429888   0.025
0.103323   0.0429888   0.025
0.120395   0.0429888   0.025
0.138275   0.0429888   0.025
0.156961   0.0429888   0.025
0.176443   0.0429888   0.025
0.196707   0.0429888   0.025
0.217734   0.0429888   0.025
0.239496   0.0429888   0.025
0.261959   0.0429888   0.025
0.285082   0.0429888   0.025
0.308818   0.0429888   0.025
0.333113   0.0429888   0.025
0.357906   0.0429888   0.025
0.383132   0.0429888   0.025
0.408719   0.0429888   0.025
0.434592   0.0429888   0.025
0.460672   0.0429888   0.025
0.486877   0.0429888   0.025
0.513123   0.0429888   0.025
0.539328   0.0429888   0.025
0.565408   0.0429888   0.025
0.591281   0.0429888   0.025
0.616868   0.0429888   0.025
0.642094   0.0429888   0.025
0.666887   0.0429888   0.025
0.691182   0.0429888   0.025
0.714918   0.0429888   0.025
0.738041   0.0429888   0.025
0.760504   0.0429888   0.025
0.782266   0.0429888   0.025
0.803293   0.0429888   0.025
0.823557   0.0429888   0.025
0.843039   0.0429888   0.025
0.861725   0.0429888   0.025
0.879605   0.0429888   0.025
0.896677   0.0429888   0.025
0.912945   0.0429888   0.025
0.928415   0.0429888   0.025
0.943099   0.0429888   0.025
0.957011   0.0429888   0.025
0.970171   0.0429888   0.025
0.982598   0.0429888   0.025
0.994315   0.0429888   0.025
0.00568455   0.0569012   0.025
0.0174023   0.0569012   0.025
0.0298294   0.0569012   0.025
0.0429888   0.0569012   0.025
0.0569012   0.0569012   0.025
0.0715849   0.0569012   0.025
0.0870549   0.0569012   0.025
0.103323   0.0569012   0.025
0.120395   0.0569012   0.025
0.138275   0.0569012   0.025
0.156961   0.0569012   0.025
0.176443   0.0569012   0.025
0.196707   0.0569012   0.025
0.217734   0.0569012   0.025
0.239496   0.0569012   0.025
0.261959   0.0569012   0.025
0.285082   0.0569012   0.025
0.308818   0.0569012   0.025
0.333113   0.0569012   0.025
0.357906   0.0569012   0.025
0.383132   0.0569012   0.025
0.408719   0.0569012   0.025
0.434592   0.0569012   0.025
0.460672   0.0569012   0.025
0.486877   0.0569012   0.025
0.513123   0.0569012   0.025
0.539328   0.0569012   0.025
0.565408   0.0569012   0.025
0.591281   0.0569012   0.025
0.616868   0.0569012   0.025
0.642094   0.0569012   0.025
0.666887   0.0569012   0.025
0.691182   0.0569012   0.025
0.714918   0.0569012   0.025
0.738041   0.0569012   0.025
0.760504   0.0569012   0.025
0.782266   0.0569012   0.025
0.803293   0.0569012   0.025
0.823557   0.0569012   0.025
0.843039   0.0569012   0.025
0.861725   0.0569012   0.025
0.879605   0.0569012   0.025
0.896677   0.0569012   0.025
0.912945   0.0569012   0.025
0.928415   0.0569012   0.025
0.943099   0.0569012   0.025
0.957011   0.0569012   0.025
0.970171   0.0569012   0.025
0.982598   0.0569012   0.025
0.994315   0.0569012   0.025
0.00568455   0.0715849   0.025
0.0174023   0.0715849   0.025
0.0298294   0.0715849   0.025
0.0429888   0.0715849   0.025
0.0569012   0.0715849   0.025
0.0715849   0.0715849   0.025
0.0870549   0.0715849   0.025
0.103323   0.0715849   0.025
0.120395   0.0715849   0.025
0.138275   0.0715849   0.025
0.156961   0.0715849   0.025
0.176443   0.0715849   0.025
0.196707   0.0715849   0.025
0.217734   0.0715849   0.025
0.239496   0.0715849   0.025
0.261959   0.0715849   0.025
0.285082   0.0715849   0.025
0.308818   0.0715849   0.025
0.333113   0.0715849   0.025
0.357906   0.0715849   0.025
0.383132   0.0715849   0.025
0.408719   0.0715849   0.025
0.434592   0.0715849   0.025
0.460672   0.0715849   0.025
0.486877   0.0715849   0.025
0.513123   0.0715849   0.025
0.539328   0.0715849   0.025
0.565408   0.0715849   0.025
0.591281   0.0715849   0.025
0.616868   0.0715849   0.025
0.642094   0.0715849   0.025
0.666887   0.0715849   0.025
0.691182   0.0715849   0.025
0.714918   0.0715849   0.025
0.738041   0.0715849   0.025
0.760504   0.0715849   0.025
0.782266   0.0715849   0.025
0.803293   0.0715849   0.025
0.823557   0.0715849   0.025
0.843039   0.0715849   0.025
0.861725   0.0715849   0.025
0.879605   0.0715849   0.025
0.896677   0.0715849   0.025
0.912945   0.0715849   0.025
0.928415   0.0715849   0.025
0.943099   0.0715849   0.025
0.957011   0.0715849   0.025
0.970171   0.0715849   0.025
0.982598   0.0715849   0.025
0.994315   0.0715849   0.025
0.00568455   0.0870549   0.025
0.0174023   0.0870549   0.025
0.0298294   0.0870549   0.025
0.0429888   0.0870549   0.025
0.0569012   0.0870549   0.025
0.0715849   0.0870549   0.025
0.0870549   0.0870549   0.025
0.103323   0.0870549   0.025
0.120395   0.0870549   0.025
0.138275   0.0870549   0.025
0.156961   0.0870549   0.025
0.176443   0.0870549   0.025
0.196707   0.0870549   0.025
0.217734   0.0870549   0.025
0.239496   0.0870549   0.025
0.261959   0.0870549   0.025
0.285082   0.0870549   0.025
0.308818   0.0870549   0.025
0.333113   0.0870549   0.025
0.357906   0.0870549   0.025
0.383132   0.0870549   0.025
0.408719   0.0870549   0.025
0.434592   0.0870549   0.025
0.460672   0.0870549   0.025
0.486877   0.0870549   0.025
0.513123   0.0870549   0.025
0.539328   0.0870549   0.025
0.565408   0.0870549   0.025
0.591281   0.0870549   0.025
0.616868   0.0870549   0.025
0.642094   0.0870549   0.025
0.666887   0.0870549   0.025
0.691182   0.0870549   0.025
0.714918   0.0870549   0.025
0.738041   0.0870549   0.025
0.760504   0.0870549   0.025
0.782266   0.0870549   0.025
[...]
POINT_DATA   50000
VECTORS Velocidades double

-5.07692e-05 -0.00112363 0
-0.000138455 -0.0021882 0
-0.000194518 -0.00276906 0
-0.000224352 -0.00307906 0
-0.000247615 -0.00320711 0
-0.000282442 -0.00319967 0
-0.000341821 -0.00308559 0
-0.000434198 -0.00288462 0
-0.000564831 -0.00261029 0
-0.000737286 -0.0022702 0
-0.000955443 -0.00186351 0
-0.00106517 -0.00136978 0
-0.00121518 -0.00069838 0
-0.00157588 -0.000228307 0
-0.00199437 0.00013923 0
-0.00244794 0.000430186 0
-0.00292902 0.000647348 0
-0.00343062 0.000782352 0
-0.00394243 0.00082165 0
-0.00444925 0.000751347 0
-0.00493041 0.000561712 0
-0.0053602 0.000251164 0
-0.00571013 -0.00017091 0
-0.00595394 -0.000683051 0
-0.00605183 -0.00125115 0
-0.00597242 -0.00180594 0
-0.00571138 -0.0022896 0
-0.00527368 -0.00264509 0
-0.00467977 -0.00282338 0
-0.00396611 -0.00279047 0
-0.00318186 -0.00253331 0
-0.00238259 -0.00206295 0
-0.00162234 -0.00141405 0
-0.000945878 -0.000641608 0
-0.000381809 0.000182932 0
-6.68564e-05 0.000970569 0
0.000127733 0.00159234 0
0.000347955 0.00231494 0
0.000479807 0.00300702 0
0.000526716 0.00361587 0
0.000504841 0.00411642 0
0.000431239 0.0044963 0
0.00032203 0.004749 0
0.000192523 0.00487 0
5.79677e-05 0.00485373 0
-6.53034e-05 0.00469017 0
-0.000158429 0.00435885 0
-0.000199286 0.00381547 0
-0.000167363 0.00295572 0
-6.55227e-05 0.0015004 0
-0.000170035 -0.00206688 0
-0.000451534 -0.00426502 0
-0.000610446 -0.00549344 0
-0.000681602 -0.00613706 0
-0.00073832 -0.00638644 0
-0.000836157 -0.00634753 0
-0.00101234 -0.00608658 0
-0.00129089 -0.00564828 0
-0.0016871 -0.00506254 0
-0.00221171 -0.00434538 0
-0.0028769 -0.00349342 0
-0.00317131 -0.00246067 0
-0.00363933 -0.00107941 0
-0.00480382 -0.000106358 0
-0.00610418 0.000648858 0
-0.00750948 0.00124463 0
-0.00899976 0.00168799 0
-0.0105523 0.00196061 0
-0.0121326 0.00203239 0
-0.0136905 0.00187199 0
-0.0151584 0.00145664 0
-0.0164547 0.000780775 0
-0.0174892 -0.000137392 0
-0.0181898 -0.00125338 0
-0.0184378 -0.0025079 0
-0.0181424 -0.00374207 0
-0.0173057 -0.00483446 0
-0.0159496 -0.00566273 0
-0.0141391 -0.0061191 0
-0.0119821 -0.00612626 0
-0.00962068 -0.00565116 0
-0.00721419 -0.00471259 0
-0.00491874 -0.00338111 0
-0.00286635 -0.00177274 0
-0.00114573 -4.13147e-05 0
-0.000214463 0.00161821 0
0.000385952 0.00293736 0
0.00110641 0.00446528 0
0.00152394 0.00593166 0
0.00167363 0.00722298 0
0.00160628 0.00828654 0
0.00137408 0.00909683 0
0.00102694 0.00964011 0
0.000612736 0.00990582 0
0.000179231 0.00988006 0
-0.000222869 0.00953788 0
-0.000535242 0.00882994 0
-0.000685719 0.00765426 0
-0.000590398 0.00579149 0
-0.000235205 0.00275119 0
-0.000125091 -0.00174592 0
-0.000405525 -0.00398912 0
-0.000686688 -0.00532303 0
-0.000922174 -0.00601246 0
-0.00115749 -0.00624634 0
-0.0014551 -0.00614993 0
-0.00186875 -0.00580726 0
-0.00243869 -0.00527558 0
-0.0031938 -0.00459221 0
-0.00415629 -0.00377581 0
-0.00534795 -0.00282032 0
-0.00589101 -0.00167314 0
-0.00669412 -0.000194851 0
-0.00864663 0.000863138 0
-0.0108189 0.00167586 0
-0.0131725 0.00231173 0
-0.0156711 0.00277999 0
-0.0182701 0.00305794 0
-0.0209056 0.00310747 0
-0.0234888 0.00288804 0
-0.0259044 0.00236825 0
-0.0280155 0.00153655 0
-0.029673 0.000409628 0
-0.0307801 -0.000964642 0
-0.0311455 -0.00253556 0
-0.0306212 -0.0041056 0
-0.029233 -0.00553413 0
-0.027019 -0.00667705 0
-0.024083 -0.00740156 0
-0.0205928 -0.00760654 0
-0.0167665 -0.00724091 0
-0.0128488 -0.00631477 0
-0.00908085 -0.00490139 0
-0.00566956 -0.0031316 0
-0.00276001 -0.00118637 0
-0.00116611 0.000700331 0
-0.000123459 0.00223321 0
0.00114779 0.00398701 0
0.00192769 0.00567351 0
0.00227859 0.00716224 0
0.00227964 0.00839383 0
0.00201368 0.00933968 0
0.00156277 0.00998291 0
0.00100794 0.0103081 0
0.000430788 0.0102935 0
-8.4432e-05 0.00990247 0
-0.000450567 0.0090696 0
-0.000586021 0.00767834 0
-0.000452066 0.00552892 0
-0.00015871 0.00232311 0
-8.35544e-05 -0.001506 0
-0.000330782 -0.00364116 0
-0.000688499 -0.00499209 0
-0.00110018 -0.00569138 0
-0.00157737 -0.0058884 0
-0.00216486 -0.00570985 0
-0.00291452 -0.00525297 0
-0.00387303 -0.00458818 0
-0.00507871 -0.0037621 0
-0.00656326 -0.00279771 0
-0.00835488 -0.00168898 0
-0.00919284 -0.000384631 0
-0.0103552 0.00122435 0
-0.0131128 0.00240359 0
-0.0161661 0.0033088 0
-0.0194748 0.00401065 0
-0.0229868 0.00451743 0
-0.0266328 0.00479902 0
-0.0303161 0.00480553 0
-0.033907 0.00448305 0
-0.037242 0.00378814 0
-0.040131 0.00270114 0
-0.0423702 0.00123702 0
-0.0438518 -0.000550674 0
-0.044319 -0.00260042 0
-0.0435738 -0.00468032 0
-0.0416755 -0.00661781 0
-0.0386752 -0.00823709 0
-0.0347071 -0.00936983 0
-0.029986 -0.00988111 0
-0.0247911 -0.00969393 0
-0.0194363 -0.00880507 0
-0.0142351 -0.00729006 0
-0.00946217 -0.0052988 0
-0.00532062 -0.00304744 0
-0.00302999 -0.000816293 0
-0.00150402 0.00106305 0
0.000399794 0.00316526 0
0.00163836 0.00518256 0
0.002302 0.00696812 0
0.00249457 0.00845341 0
0.00232502 0.00960342 0
0.00190345 0.0103947 0
0.00133959 0.0108037 0
0.000741617 0.0107984 0
0.000213464 0.0103311 0
-0.000153298 0.0093298 0
-0.000298798 0.00769266 0
-0.000231761 0.00529686 0
-7.59762e-05 0.00205423 0
-6.56443e-05 -0.00132428 0
-0.000304142 -0.0032531 0
-0.000733874 -0.00449985 0
-0.00132317 -0.00512279 0
-0.00207175 -0.00522674 0
-0.00300619 -0.00492418 0
-0.0041668 -0.00431481 0
-0.00559679 -0.00347719 0
-0.00733651 -0.00246564 0
-0.00942179 -0.00130831 0
-0.0118828 -2.76221e-06 0
-0.0130535 0.00149327 0
-0.0146016 0.00325662 0
-0.0181997 0.00458891 0
-0.0221598 0.00562091 0
-0.0264425 0.00641534 0
-0.0309821 0.00697334 0
-0.0356838 0.00725296 0
-0.0404169 0.00718852 0
-0.0450098 0.00670924 0
-0.0492523 0.00575691 0
-0.0529043 0.00430266 0
-0.0557133 0.00236077 0
-0.0575582 -4.51837e-06 0
-0.0581316 -0.00270285 0
-0.0572031 -0.00546772 0
-0.054861 -0.00808919 0
-0.0511623 -0.0103516 0
-0.0462606 -0.0120412 0
-0.0404048 -0.0129802 0
-0.0339205 -0.0130577 0
-0.0271788 -0.0122512 0
-0.0205566 -0.0106359 0
-0.014394 -0.00838167 0
-0.00895709 -0.00574353 0
-0.00593273 -0.0030516 0
-0.00387443 -0.000681001 0
-0.00123022 0.00189527 0
0.000585484 0.00435338 0
0.00168989 0.00653426 0
0.00220758 0.00835925 0
0.00226817 0.00978382 0
0.00200371 0.0107748 0
0.00154515 0.0112986 0
0.00101738 0.0113149 0
0.000531548 0.0107725 0
0.000172932 0.0096094 0
-1.61861e-05 0.00776242 0
-5.39786e-05 0.00519281 0
-2.07873e-05 0.00193774 0
-6.5835e-05 -0.00115473 0
-0.000330299 -0.00280046 0
-0.000857761 -0.00382534 0
-0.0016436 -0.00426274 0
-0.0026905 -0.00418872 0
-0.00401497 -0.00369832 0
-0.00564511 -0.00288551 0
-0.00761539 -0.00183008 0
-0.00996192 -0.000590134 0
-0.0127189 0.000801886 0
-0.0159145 0.00234226 0
-0.0174507 0.00405909 0
-0.0194117 0.00599529 0
-0.0238965 0.00750788 0
-0.0288017 0.00869794 0
-0.0340892 0.00960985 0
-0.0396812 0.0102294 0
-0.0454581 0.0104971 0
-0.0512555 0.0103272 0
-0.0568614 0.00962887 0
-0.0620216 0.00832749 0
-0.0664512 0.00638486 0
-0.0698552 0.00381668 0
-0.072075 0.000703787 0
-0.0727814 -0.00282253 0
-0.0717457 -0.00644845 0
-0.0690581 -0.00993328 0
-0.0647711 -0.013015 0
-0.0590446 -0.0154254 0
-0.0521472 -0.0169342 0
-0.0444381 -0.0173874 0
-0.0363357 -0.0167356 0
-0.0282756 -0.0150477 0
-0.0206649 -0.0125106 0
-0.0138405 -0.00941781 0
-0.0100322 -0.00615102 0
-0.00737974 -0.00313675 0
-0.00385988 4.10839e-05 0
-0.00132287 0.0030504 0
0.00037082 0.00572673 0
0.00136041 0.00798185 0
0.00178967 0.00975905 0
0.00180593 0.011013 0
0.00155436 0.0117006 0
0.00116973 0.0117771 0
0.000766269 0.0111966 0
0.00042664 0.00991875 0
0.000192748 0.00792245 0
6.41271e-05 0.00522894 0
1.1779e-05 0.00192728 0
-7.80045e-05 -0.000958887 0
-0.000399606 -0.00223229 0
-0.00106157 -0.00291889 0
-0.00207766 -0.003053 0
-0.00345719 -0.00269903 0
-0.00521256 -0.00193919 0
-0.00736231 -0.000858669 0
-0.00993095 0.00046699 0
-0.0129467 0.00198049 0
-0.0164382 0.00364724 0
-0.0204278 0.00545655 0
-0.0223586 0.00741965 0
-0.0247593 0.00954473 0
-0.0301827 0.011262 0
-0.0360802 0.0126381 0
-0.0424141 0.0136895 0
-0.0490942 0.0143778 0
-0.0559783 0.0146194 0
-0.0628699 0.0143042 0
-0.0695201 0.0133187 0
-0.0756353 0.011571 0
-0.0808919 0.00901435 0
-0.0849591 0.00566838 0
-0.087589 0.00163491 0
-0.0884795 -0.00290924 0
-0.0874586 -0.00757359 0
-0.0845627 -0.0121091 0
-0.0798258 -0.016202 0
-0.0733989 -0.0195202 0
-0.065556 -0.0217707 0
-0.0566778 -0.0227456 0
-0.0472214 -0.0223573 0
-0.037679 -0.0206585 0
-0.0285292 -0.0178457 0
-0.0201896 -0.0142467 0
-0.015528 -0.0102952 0
-0.0122017 -0.00647797 0
-0.00763779 -0.00257173 0
-0.00420359 0.00110004 0
-0.00174584 0.00437739 0
-0.000119449 0.00716341 0
0.00082641 0.00938653 0
0.00124866 0.0109872 0
0.00130265 0.011913 0
0.00113144 0.0121186 0
0.000855353 0.0115687 0
0.000563927 0.0102461 0
0.000313141 0.00816327 0
0.000130553 0.00537481 0
2.91409e-05 0.00198363 0
-9.8392e-05 -0.000706097 0
-0.000502717 -0.00148966 0
-0.00133667 -0.00171179 0
-0.00262317 -0.00141799 0
-0.00437575 -0.000672156 0
-0.00660429 0.000450452 0
-0.00931983 0.00187334 0
-0.0125373 0.00352858 0
-0.0162758 0.00536377 0
-0.020556 0.00734499 0
-0.0253933 0.00945525 0
-0.0277436 0.0116883 0
-0.0306098 0.0140178 0
-0.0370258 0.0159633 0
-0.0439685 0.0175511 0
-0.0513979 0.018761 0
-0.0592124 0.0195222 0
-0.0672481 0.0197204 0
-0.0752806 0.0192171 0
-0.0830288 0.0178743 0
-0.0901659 0.0155823 0
-0.0963363 0.0122872 0
-0.101179 0.00801423 0
-0.104276 0.00288742 0
-0.105427 -0.00287368 0
-0.104592 -0.0087559 0
-0.101668 -0.0145419 0
-0.0966534 -0.0198601 0
-0.0896742 -0.024305 0
-0.0809949 -0.0275094 0
-0.0710048 -0.0291981 0
-0.0601919 -0.0292301 0
-0.049103 -0.0276269 0
-0.0382935 -0.0245817 0
-0.0282741 -0.0204483 0
-0.0226683 -0.0157103 0
-0.018567 -0.010924 0
-0.0127486 -0.00616677 0
-0.00820077 -0.00171966 0
-0.00476997 0.00227477 0
-0.00231661 0.00571049 0
-0.000689873 0.00849649 0
0.00027337 0.0105553 0
0.000738222 0.0118245 0
0.000858973 0.0122587 0
0.00076856 0.0118332 0
0.000572644 0.01055 0
0.000349528 0.00844393 0
0.000155889 0.0055853 0
3.62166e-05 0.00207746 0
-0.000124853 -0.000370277 0
-0.0006327 -0.000512657 0
-0.0016727 -0.000125914 0
-0.00326986 0.000730406 0
-0.00543748 0.00198763 0
-0.00818158 0.00357371 0
-0.011506 0.00542032 0
-0.0154165 0.00746943 0
-0.0199232 0.00967706 0
-0.0250381 0.012013 0
-0.0307695 0.0144558 0
-0.03356 0.0169823 0
-0.0369149 0.0195334 0
-0.0443769 0.0217315 0
-0.0524194 0.0235556 0
-0.0609983 0.0249414 0
-0.0700003 0.0257777 0
-0.0792432 0.0259143 0
-0.0884786 0.0251805 0
-0.0973995 0.0234125 0
-0.105653 0.0204833 0
-0.112857 0.0163324 0
-0.118627 0.0109911 0
-0.122265 0.00460233 0
-0.123773 -0.00257991 0
-0.123347 -0.00986295 0
-0.120618 -0.0171165 0
-0.115534 -0.0239022 0
-0.108183 -0.0297315 0
-0.0988028 -0.0341514 0
-0.0877774 -0.0368033 0
-0.0756148 -0.0374737 0
-0.0629121 -0.0361319 0
-0.0503052 -0.0329483 0
-0.0384094 -0.0282878 0
-0.0317511 -0.0226783 0
-0.0267503 -0.016752 0
-0.0194148 -0.0110309 0
-0.0134856 -0.00569254 0
-0.00882911 -0.00084748 0
-0.00532514 0.00338409 0
-0.00282906 0.00688295 0
-0.00117227 0.00954698 0
-0.000176949 0.0112995 0
0.000328123 0.0120925 0
0.000495962 0.0119089 0
0.000455582 0.0107639 0
0.000311757 0.00870542 0
0.000148818 0.00581203 0
3.59994e-05 0.00218597 0
-0.000156048 7.22098e-05 0
-0.000784304 0.000757219 0
-0.00205953 0.00191983 0
-0.00400365 0.00348632 0
-0.00662535 0.00538203 0
-0.00992411 0.00753726 0
-0.0138956 0.00989267 0
-0.0185365 0.0124026 0
-0.0238481 0.0150351 0
-0.0298346 0.0177669 0
-0.0364977 0.0205743 0
-0.0397439 0.0234196 0
-0.0436075 0.0262124 0
-0.0521643 0.02869 0
-0.0613584 0.030776 0
-0.0711405 0.0323546 0
-0.0813862 0.0332685 0
-0.0918975 0.0333267 0
-0.102407 0.0323242 0
-0.11259 0.0300705 0
-0.122071 0.0264216 0
-0.130453 0.0213104 0
-0.137324 0.014772 0
-0.141583 0.00696216 0
-0.143562 -0.00184234 0
-0.143805 -0.0107145 0
-0.141533 -0.0196724 0
-0.136627 -0.0281978 0
-0.129124 -0.0357114 0
-0.119223 -0.0416631 0
-0.107283 -0.0455943 0
-0.0938156 -0.0471959 0
-0.0794579 -0.046358 0
-0.0649236 -0.0432005 0
-0.0509409 -0.0380763 0
-0.0431167 -0.0315426 0
-0.0370697 -0.02431 0
-0.0278926 -0.0175307 0
-0.0202529 -0.0111795 0
-0.0140657 -0.00532361 0
-0.0092466 -0.000111507 0
-0.00566164 0.00429359 0
-0.00313491 0.00775341 0
-0.00147043 0.0101696 0
-0.000472854 0.0114865 0
3.82971e-05 0.0116893 0
0.000221235 0.0108012 0
0.000210009 0.00887891 0
0.000115971 0.00600704 0
3.04149e-05 0.00229028 0
-0.000190938 0.000643284 0
-0.000952917 0.00237562 0
-0.00248676 0.00450467 0
-0.00480751 0.00694343 0
-0.00791551 0.00961244 0
-0.0118009 0.0124462 0
-0.0164495 0.0153972 0
-0.0218489 0.0184358 0
-0.0279917 0.021546 0
-0.0348755 0.0247155 0
-0.0424967 0.0279215 0
-0.0462083 0.0311135 0
-0.050595 0.0341731 0
-0.0602863 0.0369612 0
-0.0706754 0.0393367 0
-0.0817069 0.0411264 0
-0.0932466 0.0421223 0
-0.105084 0.0420896 0
-0.116938 0.0407875 0
-0.12847 0.0379985 0
-0.139293 0.0335615 0
-0.148993 0.0274019 0
-0.157142 0.0195548 0
-0.162093 0.010181 0
-0.164655 -0.00043095 0
-0.165849 -0.0110878 0
-0.164316 -0.0220041 0
-0.159869 -0.0325661 0
-0.152485 -0.042101 0
-0.142306 -0.0499538 0
-0.129645 -0.0555501 0
-0.114996 -0.058461 0
-0.0990113 -0.058465 0
-0.0824689 -0.0555947 0
-0.0662086 -0.0501555 0
-0.057123 -0.0427071 0
-0.0498688 -0.0340291 0
-0.038459 -0.0261282 0
-0.0287129 -0.0186324 0
-0.0206342 -0.0115674 0
-0.0141904 -0.00513922 0
-0.00926147 0.000420201 0
-0.00566027 0.00491965 0
-0.00316589 0.00822828 0
-0.00155105 0.0102754 0
-0.000600564 0.0110437 0
-0.000121452 0.0105605 0
5.2909e-05 0.00888976 0
6.22996e-05 0.00612359 0
2.07854e-05 0.00237416 0
-0.000228496 0.00136287 0
-0.0011337 0.00439324 0
-0.00294267 0.00770135 0
-0.00566077 0.0111882 0
-0.00927704 0.0147725 0
-0.0137699 0.0183969 0
-0.0191139 0.0220304 0
-0.0252869 0.025665 0
-0.0322736 0.0293058 0
-0.040066 0.0329556 0
-0.0486571 0.0365959 0
-0.0528361 0.0401665 0
-0.0577529 0.0435241 0
-0.0686024 0.0466574 0
-0.0802132 0.0493525 0
-0.0925234 0.0513737 0
-0.10539 0.0524593 0
-0.118592 0.0523288 0
-0.131841 0.0507049 0
-0.144787 0.047343 0
-0.157035 0.0420646 0
-0.168162 0.0347858 0
-0.177727 0.0255386 0
-0.183412 0.0144821 0
-0.186656 0.00191059 0
-0.189068 -0.0107336 0
-0.188553 -0.0238689 0
-0.184866 -0.0367736 0
-0.17792 -0.0486871 0
-0.167786 -0.0588485 0
-0.154706 -0.0665576 0
-0.139119 -0.0712435 0
-0.121661 -0.0725385 0
-0.103138 -0.0703426 0
-0.0844849 -0.0648637 0
-0.0740988 -0.0566185 0
-0.0654785 -0.0464276 0
-0.0513865 -0.0373878 0
-0.0390802 -0.0285986 0
-0.0286992 -0.0200777 0
-0.0202786 -0.0121363 0
-0.0137136 -0.0051092 0
-0.00880241 0.000737059 0
-0.00529264 0.00522503 0
-0.00291767 0.00826032 0
-0.0014204 0.00981768 0
-0.000567078 0.00992657 0
-0.000153865 0.00865837 0
-8.91221e-06 0.00611562 0
7.98345e-06 0.00242309 0
-0.00026752 0.00224781 0
-0.00132093 0.00685263 0
-0.00341318 0.0115707 0
-0.0065379 0.0162928 0
-0.0106708 0.0209398 0
-0.0157769 0.0254683 0
-0.0218185 0.0298707 0
-0.0287634 0.0341672 0
-0.0365889 0.0383902 0
-0.0452826 0.0425632 0
-0.0548356 0.0466757 0
-0.059475 0.0506608 0
-0.064918 0.0543535 0
-0.0769249 0.0578703 0
-0.089757 0.0609168 0
-0.103345 0.0631912 0
-0.117537 0.0643762 0
-0.132105 0.0641451 0
-0.146753 0.0621835 0
-0.161124 0.05822 0
-0.174818 0.0520581 0
-0.187406 0.0436045 0
-0.198445 0.0328871 0
-0.204855 0.0200621 0
-0.208837 0.00543042 0
-0.212675 -0.00940585 0
-0.213418 -0.0250047 0
-0.210787 -0.0405395 0
-0.204638 -0.055178 0
-0.194955 -0.0680631 0
-0.181885 -0.0783695 0
-0.165771 -0.0853711 0
-0.147176 -0.088522 0
-0.126885 -0.0875394 0
-0.105876 -0.0824708 0
-0.0942609 -0.0737216 0
-0.0841494 -0.0620971 0
-0.0669025 -0.0519595 0
-0.0515576 -0.041708 0
-0.0384368 -0.0314328 0
-0.0276549 -0.0216154 0
-0.0191271 -0.012736 0
-0.012637 -0.00516378 0
-0.00789784 0.000859095 0
-0.00459795 0.00520331 0
-0.00243168 0.00782984 0
-0.00111787 0.00876812 0
-0.000409323 0.00809801 0
-9.64956e-05 0.00593577 0
-7.60515e-06 0.0024233 0
-0.00030652 0.00331025 0
-0.00150758 0.00978385 0
-0.00388094 0.016155 0
-0.00740745 0.0223066 0
-0.0120485 0.0281665 0
-0.0177547 0.0337123 0
-0.0244758 0.0389679 0
-0.0321694 0.0439898 0
-0.0408063 0.0488452 0
-0.0503702 0.0535839 0
-0.0608519 0.0582078 0
-0.065933 0.0626465 0
-0.0718838 0.0667165 0
-0.0850127 0.0706555 0
-0.0990253 0.0740835 0
-0.113843 0.0766306 0
-0.129307 0.0779229 0
-0.145179 0.0775869 0
-0.161156 0.0752715 0
-0.176876 0.0706783 0
-0.191934 0.0635947 0
-0.205902 0.0539199 0
-0.218343 0.0416823 0
-0.225402 0.027042 0
-0.230113 0.0103167 0
-0.235469 -0.00690411 0
-0.237626 -0.025162 0
-0.236307 -0.0435559 0
-0.23132 -0.0612089 0
-0.222562 -0.077192 0
-0.210059 -0.0905716 0
-0.194015 -0.100468 0
-0.174855 -0.106137 0
-0.153264 -0.107069 0
-0.130188 -0.103078 0
-0.117588 -0.0943723 0
-0.105945 -0.0816467 0
-0.0851292 -0.0705184 0
-0.0663136 -0.058627 0
-0.0500323 -0.0462654 0
-0.0364935 -0.0341573 0
-0.0256476 -0.0229736 0
-0.017275 -0.0132206 0
-0.0110588 -0.00522961 0
-0.00664102 0.000819124 0
-0.00366247 0.00486402 0
-0.00178779 0.0069312 0
-0.000719168 0.00710945 0
-0.000202097 0.00553145 0
-2.62107e-05 0.00236023 0
-0.000343662 0.00455542 0
-0.00168504 0.0131991 0
-0.00432499 0.0214705 0
-0.00823157 0.029247 0
-0.0133519 0.0364691 0
-0.0196226 0.0431431 0
-0.0269808 0.049333 0
-0.0353746 0.0551408 0
-0.0447681 0.0606762 0
-0.0551422 0.0660214 0
-0.0664873 0.0711956 0
-0.0719777 0.0761277 0
-0.0783996 0.080619 0
-0.0925683 0.0850146 0
-0.107667 0.0888471 0
-0.123605 0.0916775 0
-0.140213 0.0930749 0
-0.157241 0.0926189 0
-0.174377 0.0899216 0
-0.19125 0.0846598 0
-0.207455 0.0766082 0
-0.22257 0.0656666 0
-0.236183 0.0518752 0
-0.243737 0.0354138 0
-0.249079 0.0166344 0
-0.255877 -0.00312415 0
-0.259473 -0.0241478 0
-0.259632 -0.0455254 0
-0.256133 -0.0663706 0
-0.248793 -0.0857223 0
-0.237505 -0.102574 0
-0.222294 -0.115919 0
-0.203387 -0.124816 0
-0.181276 -0.128498 0
-0.156763 -0.126486 0
-0.143652 -0.118694 0
-0.130594 -0.105576 0
-0.105998 -0.0936386 0
-0.0834373 -0.079972 0
-0.0636594 -0.0652149 0
-0.0469921 -0.0503891 0
-0.0334592 -0.0364035 0
-0.0228682 -0.0239453 0
-0.0148897 -0.0134709 0
-0.00912598 -0.00523686 0
-0.00516296 0.000657748 0
-0.00260545 0.00422869 0
-0.0010973 0.00557213 0
-0.000330756 0.00483882 0
-4.87978e-05 0.00221603 0
-0.000376777 0.00597932 0
-0.00184327 0.0170872 0
-0.00472093 0.0274994 0
-0.00896647 0.0370904 0
-0.0145142 0.0458188 0
-0.021288 0.0537269 0
-0.0292135 0.0609278 0
-0.0382294 0.0675776 0
-0.0482936 0.0738365 0
-0.0593837 0.0798254 0
-0.0714895 0.0855849 0
-0.0773407 0.0910469 0
-0.0841741 0.0959999 0
-0.0992437 0.100875 0
-0.115268 0.10512 0
-0.13214 0.108226 0
-0.149674 0.109706 0
-0.167608 0.109091 0
-0.185612 0.105958 0
-0.20331 0.0999638 0
-0.220295 0.0908786 0
-0.236163 0.0786164 0
-0.250544 0.063248 0
-0.258363 0.0449957 0
-0.264146 0.0242662 0
-0.272111 0.0018948 0
-0.277004 -0.0218762 0
-0.278667 -0.0462152 0
-0.276877 -0.0702644 0
-0.271391 -0.0930843 0
-0.261975 -0.113652 0
-0.248458 -0.130881 0
-0.230817 -0.143669 0
-0.209268 -0.150998 0
-0.184346 -0.152057 0
-0.171431 -0.146387 0
-0.157311 -0.134049 0
-0.129129 -0.121597 0
-0.102851 -0.106178 0
-0.0794164 -0.088845 0
-0.0593299 -0.0709395 0
-0.042759 -0.0536557 0
-0.0295956 -0.0379209 0
-0.0195353 -0.0243712 0
-0.0121593 -0.0133802 0
-0.00700467 -0.00511106 0
-0.0036139 0.000427525 0
-0.00156577 0.00333348 0
-0.000490898 0.00377525 0
-7.70647e-05 0.00196659 0
-0.00040345 0.00756645 0
-0.00197111 0.021408 0
-0.00504189 0.0341826 0
-0.00956416 0.0457636 0
-0.0154624 0.056132 0
-0.0226501 0.0653726 0
-0.031043 0.0736549 0
-0.0405712 0.081197 0
-0.0511861 0.0882169 0
-0.0628606 0.0948798 0
-0.0755822 0.101252 0
-0.0817284 0.107271 0
-0.0888888 0.112715 0
-0.104656 0.118073 0
-0.121371 0.122713 0
-0.138908 0.12606 0
-0.157058 0.127565 0
-0.175538 0.126716 0
-0.194005 0.123057 0
-0.21207 0.116232 0
-0.229334 0.10602 0
-0.245423 0.0923686 0
-0.260019 0.0754038 0
-0.267821 0.0554155 0
-0.27377 0.0328818 0
-0.282438 0.00794293 0
-0.288316 -0.0184113 0
-0.291339 -0.0455153 0
-0.291313 -0.0725779 0
-0.287972 -0.098741 0