# vtk DataFile Version 2.0
Velocidades
ASCII

DATASET STRUCTURED_GRID
DIMENSIONS   50   50   20

POINTS   50000   double
0.00568455   0.00568455   0.025
0.0174023   0.00568455   0.025
0.0298294   0.00568455   0.025
0.0429888   0.00568455   0.025
0.0569012   0.00568455   0.025
0.0715849   0.00568455   0.025
0.0870549   0.00568455   0.025
0.103323   0.00568455   0.025
0.120395   0.00568455   0.025
0.138275   0.00568455   0.025
0.156961   0.00568455   0.025
0.176443   0.00568455   0.025
0.196707   0.00568455   0.025
0.217734   0.00568455   0.025
0.239496   0.00568455   0.025
0.261959   0.00568455   0.025
0.285082   0.00568455   0.025
0.308818   0.00568455   0.025
0.333113   0.00568455   0.025
0.357906   0.00568455   0.025
0.383132   0.00568455   0.025
0.408719   0.00568455   0.025
0.434592   0.00568455   0.025
0.460672   0.00568455   0.025
0.486877   0.00568455   0.025
0.513123   0.00568455   0.025
0.539328   0.00568455   0.025
0.565408   0.00568455   0.025
0.591281   0.00568455   0.025
0.616868   0.00568455   0.025
0.642094   0.00568455   0.025
0.666887   0.00568455   0.025
0.691182   0.00568455   0.025
0.714918   0.00568455   0.025
0.738041   0.00568455   0.025
0.760504   0.00568455   0.025
0.782266   0.00568455   0.025
0.803293   0.00568455   0.025
0.823557   0.00568455   0.025
0.843039   0.00568455   0.025
0.861725   0.00568455   0.025
0.879605   0.00568455   0.025
0.896677   0.00568455   0.025
0.912945   0.00568455   0.025
0.928415   0.00568455   0.025
0.943099   0.00568455   0.025
0.957011   0.00568455   0.025
0.970171   0.00568455   0.025
0.982598   0.00568455   0.025
0.994315   0.00568455   0.025
0.00568455   0.0174023   0.025
0.0174023   0.0174023   0.025
0.0298294   0.0174023   0.025
0.0429888   0.0174023   0.025
0.0569012   0.0174023   0.025
0.0715849   0.0174023   0.025
0.0870549   0.0174023   0.025
0.103323   0.0174023   0.025
0.120395   0.0174023   0.025
0.138275   0.0174023   0.025
0.156961   0.0174023   0.025
0.176443   0.0174023   0.025
0.196707   0.0174023   0.025
0.217734   0.0174023   0.025
0.239496   0.0174023   0.025
0.261959   0.0174023   0.025
0.285082   0.0174023   0.025
0.308818   0.0174023   0.025
0.333113   0.0174023   0.025
0.357906   0.0174023   0.025
0.383132   0.0174023   0.025
0.408719   0.0174023   0.025
0.434592   0.0174023   0.025
0.460672   0.0174023   0.025
0.486877   0.0174023   0.025
0.513123   0.0174023   0.025
0.539328   0.0174023   0.025
0.565408   0.0174023   0.025
0.591281   0.0174023   0.025
0.616868   0.0174023   0.025
0.642094   0.0174023   0.025
0.666887   0.0174023   0.025
0.691182   0.0174023   0.025
0.714918   0.0174023   0.025
0.738041   0.0174023   0.025
0.760504   0.0174023   0.025
0.782266   0.0174023   0.025
0.803293   0.0174023   0.025
0.823557   0.0174023   0.025
0.843039   0.0174023   0.025
0.861725   0.0174023   0.025
0.879605   0.0174023   0.025
0.896677   0.0174023   0.025
0.912945   0.0174023   0.025
0.928415   0.0174023   0.025
0.943099   0.0174023   0.025
0.957011   0.0174023   0.025
0.970171   0.0174023   0.025
0.982598   0.0174023   0.025
0.994315   0.0174023   0.025
0.00568455   0.0298294   0.025
0.0174023   0.0298294   0.025
0.0298294   0.0298294   0.025
0.0429888   0.0298294   0.025
0.0569012   0.0298294   0.025
0.0715849   0.0298294   0.025
0.0870549   0.0298294   0.025
0.103323   0.0298294   0.025
0.120395   0.0298294   0.025
0.138275   0.0298294   0.025
0.156961   0.0298294   0.025
0.176443   0.0298294   0.025
0.196707   0.0298294   0.025
0.217734   0.0298294   0.025
0.239496   0.0298294   0.025
0.261959   0.0298294   0.025
0.285082   0.0298294   0.025
0.308818   0.0298294   0.025
0.333113   0.0298294   0.025
0.357906   0.0298294   0.025
0.383132   0.0298294   0.025
0.408719   0.0298294   0.025
0.434592   0.0298294   0.025
0.460672   0.0298294   0.025
0.486877   0.0298294   0.025
0.513123   0.0298294   0.025
0.539328   0.0298294   0.025
0.565408   0.0298294   0.025
0.591281   0.0298294   0.025
0.616868   0.0298294   0.025
0.642094   0.0298294   0.025
0.666887   0.0298294   0.025
0.691182   0.0298294   0.025
0.714918   0.0298294   0.025
0.738041   0.0298294   0.025
0.760504   0.0298294   0.025
0.782266   0.0298294   0.025
0.803293   0.0298294   0.025
0.823557   0.0298294   0.025
0.843039   0.0298294   0.025
0.861725   0.0298294   0.025
0.879605   0.0298294   0.025
0.896677   0.0298294   0.025
0.912945   0.0298294   0.025
0.928415   0.0298294   0.025
0.943099   0.0298294   0.025
0.957011   0.0298294   0.025
0.970171   0.0298294   0.025
0.982598   0.0298294   0.025
0.994315   0.0298294   0.025
0.00568455   0.0429888   0.025
0.0174023   0.0429888   0.025
0.0298294   0.0429888   0.025
0.0429888   0.0429888   0.025
0.0569012   0.0429888   0.025
0.0715849   0.0429888   0.025
0.0870549   0.0429888   0.025
0.103323   0.0429888   0.025
0.120395   0.0429888   0.025
0.138275   0.0429888   0.025
0.156961   0.0429888   0.025
0.176443   0.0429888   0.025
0.196707   0.0429888   0.025
0.217734   0.0429888   0.025
0.239496   0.0429888   0.025
0.261959   0.0429888   0.025
0.285082   0.0429888   0.025
0.308818   0.0429888   0.025
0.333113   0.0429888   0.025
0.357906   0.0429888   0.025
0.383132   0.0429888   0.025
0.408719   0.0429888   0.025
0.434592   0.0429888   0.025
0.460672   0.0429888   0.025
0.486877   0.0429888   0.025
0.513123   0.0429888   0.025
0.539328   0.0429888   0.025
0.565408   0.0429888   0.025
0.591281   0.0429888   0.025
0.616868   0.0429888   0.025
0.642094   0.0429888   0.025
0.666887   0.0429888   0.025
0.691182   0.0429888   0.025
0.714918   0.0429888   0.025
0.738041   0.0429888   0.025
0.760504   0.0429888   0.025
0.782266   0.0429888   0.025
0.803293   0.0429888   0.025
0.823557   0.0429888   0.025
0.843039   0.0429888   0.025
0.861725   0.0429888   0.025
0.879605   0.0429888   0.025
0.896677   0.0429888   0.025
0.912945   0.0429888   0.025
0.928415   0.0429888   0.025
0.943099   0.0429888   0.025
0.957011   0.0429888   0.025
0.970171   0.0429888   0.025
0.982598   0.0429888   0.025
0.994315   0.0429888   0.025
0.00568455   0.0569012   0.025
0.0174023   0.0569012   0.025
0.0298294   0.0569012   0.025
0.0429888   0.0569012   0.025
0.0569012   0.0569012   0.025
0.0715849   0.0569012   0.025
0.0870549   0.0569012   0.025
0.103323   0.0569012   0.025
0.120395   0.0569012   0.025
0.138275   0.0569012   0.025
0.156961   0.0569012   0.025
0.176443   0.0569012   0.025
0.196707   0.0569012   0.025
0.217734   0.0569012   0.025
0.239496   0.0569012   0.025
0.261959   0.0569012   0.025
0.285082   0.0569012   0.025
0.308818   0.0569012   0.025
0.333113   0.0569012   0.025
0.357906   0.0569012   0.025
0.383132   0.0569012   0.025
0.408719   0.0569012   0.025
0.434592   0.0569012   0.025
0.460672   0.0569012   0.025
0.486877   0.0569012   0.025
0.513123   0.0569012   0.025
0.539328   0.0569012   0.025
0.565408   0.0569012   0.025
0.591281   0.0569012   0.025
0.616868   0.0569012   0.025
0.642094   0.0569012   0.025
0.666887   0.0569012   0.025
0.691182   0.0569012   0.025
0.714918   0.0569012   0.025
0.738041   0.0569012   0.025
0.760504   0.0569012   0.025
0.782266   0.0569012   0.025
0.803293   0.0569012   0.025
0.823557   0.0569012   0.025
0.843039   0.0569012   0.025
0.861725   0.0569012   0.025
0.879605   0.0569012   0.025
0.896677   0.0569012   0.025
0.912945   0.0569012   0.025
0.928415   0.0569012   0.025
0.943099   0.0569012   0.025
0.957011   0.0569012   0.025
0.970171   0.0569012   0.025
0.982598   0.0569012   0.025
0.994315   0.0569012   0.025
0.00568455   0.0715849   0.025
0.0174023   0.0715849   0.025
0.0298294   0.0715849   0.025
0.0429888   0.0715849   0.025
0.0569012   0.0715849   0.025
0.0715849   0.0715849   0.025
0.0870549   0.0715849   0.025
0.103323   0.0715849   0.025
0.120395   0.0715849   0.025
0.138275   0.0715849   0.025
0.156961   0.0715849   0.025
0.176443   0.0715849   0.025
0.196707   0.0715849   0.025
0.217734   0.0715849   0.025
0.239496   0.0715849   0.025
0.261959   0.0715849   0.025
0.285082   0.0715849   0.025
0.308818   0.0715849   0.025
0.333113   0.0715849   0.025
0.357906   0.0715849   0.025
0.383132   0.0715849   0.025
0.408719   0.0715849   0.025
0.434592   0.0715849   0.025
0.460672   0.0715849   0.025
0.486877   0.0715849   0.025
0.513123   0.0715849   0.025
0.539328   0.0715849   0.025
0.565408   0.0715849   0.025
0.591281   0.0715849   0.025
0.616868   0.0715849   0.025
0.642094   0.0715849   0.025
0.666887   0.0715849   0.025
0.691182   0.0715849   0.025
0.714918   0.0715849   0.025
0.738041   0.0715849   0.025
0.760504   0.0715849   0.025
0.782266   0.0715849   0.025
0.803293   0.0715849   0.025
0.823557   0.0715849   0.025
0.843039   0.0715849   0.025
0.861725   0.0715849   0.025
0.879605   0.0715849   0.025
0.896677   0.0715849   0.025
0.912945   0.0715849   0.025
0.928415   0.0715849   0.025
0.943099   0.0715849   0.025
0.957011   0.0715849   0.025
0.970171   0.0715849   0.025
0.982598   0.0715849   0.025
0.994315   0.0715849   0.025
0.00568455   0.0870549   0.025
0.0174023   0.0870549   0.025
0.0298294   0.0870549   0.025
0.0429888   0.0870549   0.025
0.0569012   0.0870549   0.025
0.0715849   0.0870549   0.025
0.0870549   0.0870549   0.025
0.103323   0.0870549   0.025
0.120395   0.0870549   0.025
0.138275   0.0870549   0.025
0.156961   0.0870549   0.025
0.176443   0.0870549   0.025
0.196707   0.0870549   0.025
0.217734   0.0870549   0.025
0.239496   0.0870549   0.025
0.261959   0.0870549   0.025
0.285082   0.0870549   0.025
0.308818   0.0870549   0.025
0.333113   0.0870549   0.025
0.357906   0.0870549   0.025
0.383132   0.0870549   0.025
0.408719   0.0870549   0.025
0.434592   0.0870549   0.025
0.460672   0.0870549   0.025
0.486877   0.0870549   0.025
0.513123   0.0870549   0.025
0.539328   0.0870549   0.025
0.565408   0.0870549   0.025
0.591281   0.0870549   0.025
0.616868   0.0870549   0.025
0.642094   0.0870549   0.025
0.666887   0.0870549   0.025
0.691182   0.0870549   0.025
0.714918   0.0870549   0.025
0.738041   0.0870549   0.025
0.760504   0.0870549   0.025
0.782266   0.0870549   0.025
[...]
POINT_DATA   50000
VECTORS Velocidades double

-7.68462e-05 -0.0016889 0
-0.000207915 -0.00331728 0
-0.00028549 -0.00423416 0
-0.000313928 -0.00474938 0
-0.000320998 -0.00498844 0
-0.00033395 -0.0050148 0
-0.000373528 -0.00486742 0
-0.000454311 -0.004574 0
-0.000586135 -0.00415566 0
-0.000775614 -0.00362768 0
-0.00102818 -0.00299652 0
-0.00115398 -0.00224614 0
-0.00133384 -0.00127791 0
-0.00177605 -0.000549529 0
-0.00229359 5.79511e-05 0
-0.002859 0.00057131 0
-0.0034629 0.000987429 0
-0.00409619 0.00128936 0
-0.00474577 0.0014546 0
-0.00539267 0.00146171 0
-0.0060115 0.00129611 0
-0.006571 0.00095517 0
-0.00703678 0.000451643 0
-0.00736297 -0.000183845 0
-0.00750774 -0.000890942 0
-0.00744307 -0.00160259 0
-0.00715144 -0.00223934 0
-0.00663658 -0.00272672 0
-0.00592246 -0.00300089 0
-0.00505384 -0.00301734 0
-0.00409209 -0.00275816 0
-0.00310716 -0.00223561 0
-0.0021674 -0.00149126 0
-0.00132959 -0.000591734 0
-0.000630468 0.000376283 0
-0.000238629 0.00130423 0
2.11529e-06 0.00203258 0
0.000272552 0.00287547 0
0.000437776 0.00367513 0
0.000503979 0.00437264 0
0.000490936 0.00494213 0
0.000418453 0.00537179 0
0.000304777 0.00565551 0
0.00016708 0.00578854 0
2.25226e-05 0.00576413 0
-0.000110298 0.00556962 0
-0.000209555 0.00517942 0
-0.000249247 0.0045391 0
-0.000204934 0.00352198 0
-7.95873e-05 0.00179156 0
-0.000257107 -0.00310492 0
-0.000677297 -0.00647148 0
-0.000894557 -0.0084172 0
-0.000950647 -0.00949705 0
-0.000950615 -0.00997853 0
-0.000977553 -0.0100065 0
-0.00109058 -0.00967085 0
-0.00133114 -0.00903477 0
-0.00172799 -0.00814532 0
-0.00230141 -0.00703561 0
-0.00306934 -0.00571808 0
-0.00340555 -0.00415611 0
-0.0039692 -0.00216881 0
-0.00539757 -0.000667191 0
-0.00700974 0.00057746 0
-0.00876943 0.00162599 0
-0.0106515 0.00247338 0
-0.0126253 0.00308353 0
-0.0146454 0.00340777 0
-0.0166466 0.00339903 0
-0.0185437 0.00302439 0
-0.0202345 0.00227593 0
-0.0216083 0.00117883 0
-0.0225357 -0.000203308 0
-0.0228979 -0.00176885 0
-0.0226159 -0.00334785 0
-0.0216566 -0.00477796 0
-0.0200453 -0.00590014 0
-0.0178607 -0.00657451 0
-0.0152359 -0.00670037 0
-0.0123466 -0.00623309 0
-0.00939082 -0.00519301 0
-0.00656313 -0.00366471 0
-0.00402886 -0.00178864 0
-0.00190075 0.00024862 0
-0.000743497 0.0022096 0
-2.14258e-06 0.00376268 0
0.000881264 0.00554824 0
0.00140372 0.0072437 0
0.00161398 0.00872333 0
0.00157385 0.00993366 0
0.00134379 0.0108507 0
0.00098027 0.0114618 0
0.000537161 0.0117557 0
6.84487e-05 0.0117155 0
-0.000367867 0.0113101 0
-0.000704017 0.0104781 0
-0.000854904 0.00909438 0
-0.000720642 0.00689254 0
-0.000284613 0.00328105 0
-0.000185422 -0.00262349 0
-0.000589039 -0.00607715 0
-0.000961325 -0.00821199 0
-0.00122058 -0.00939595 0
-0.00142809 -0.00988861 0
-0.00167599 -0.00985988 0
-0.00204802 -0.00942432 0
-0.00261085 -0.00866352 0
-0.00341499 -0.00763704 0
-0.00449887 -0.00638496 0
-0.00589478 -0.00492064 0
-0.00652704 -0.00320345 0
-0.00749974 -0.00108812 0
-0.00990052 0.000529797 0
-0.0125988 0.00185856 0
-0.0155498 0.00296916 0
-0.0187069 0.00385769 0
-0.0220098 0.00448189 0
-0.0253732 0.00478334 0
-0.0286811 0.0047042 0
-0.0317864 0.00420182 0
-0.0345171 0.00326179 0
-0.0366892 0.00190846 0
-0.0381321 0.000209836 0
-0.038649 -0.00175719 0
-0.0381036 -0.00375488 0
-0.0364832 -0.00560404 0
-0.0338352 -0.0071192 0
-0.0302871 -0.00812953 0
-0.0260449 -0.00850487 0
-0.0213765 -0.0081783 0
-0.0165823 -0.00715923 0
-0.0119593 -0.0055352 0
-0.00776401 -0.00346426 0
-0.00417881 -0.00116537 0
-0.00220621 0.00107758 0
-0.000921602 0.00290161 0
0.000637517 0.00495901 0
0.00161233 0.00691161 0
0.00208677 0.0086184 0
0.0021563 0.0100211 0
0.0019167 0.0110935 0
0.00146125 0.0118199 0
0.000881896 0.0121834 0
0.00027179 0.012158 0
-0.000272006 0.0116982 0
-0.000648048 0.0107232 0
-0.00076074 0.00909008 0
-0.00056532 0.00655574 0
-0.000195194 0.00275943 0
-0.000117106 -0.00227556 0
-0.000450264 -0.00560364 0
-0.000900691 -0.00780991 0
-0.00137296 -0.00905867 0
-0.00187732 -0.00954479 0
-0.00247856 -0.00943589 0
-0.00325679 -0.0088636 0
-0.0042878 -0.00792856 0
-0.00563605 -0.00670577 0
-0.00735416 -0.00524556 0
-0.00948423 -0.00356681 0
-0.0104778 -0.00163612 0
-0.011894 0.000650835 0
-0.0152931 0.0024353 0
-0.0190907 0.00389766 0
-0.0232396 0.00510769 0
-0.0276715 0.00605767 0
-0.0322919 0.00669508 0
-0.0369711 0.0069471 0
-0.0415386 0.00674053 0
-0.0457856 0.00601941 0
-0.0494734 0.00476117 0
-0.0523511 0.00298962 0
-0.0542434 0.000779546 0
-0.0548744 -0.00178773 0
-0.0540459 -0.00441719 0
-0.0517954 -0.00689552 0
-0.0481889 -0.00899917 0
-0.0433922 -0.0105142 0
-0.0376676 -0.01127 0
-0.0313538 -0.0111682 0
-0.0248318 -0.0102019 0
-0.0184826 -0.00846078 0
-0.0126425 -0.00612481 0
-0.00756395 -0.00345422 0
-0.00474397 -0.000787146 0
-0.00287097 0.0014726 0
-0.000539881 0.00394719 0
0.00100324 0.00628529 0
0.00187635 0.00833384 0
0.00220312 0.0100276 0
0.00210886 0.0113349 0
0.00171903 0.0122326 0
0.0011588 0.0126945 0
0.000552271 0.0126821 0
1.92721e-05 0.0121366 0
-0.00033428 0.0109691 0
-0.000439828 0.0090543 0
-0.000310707 0.00624176 0
-9.80164e-05 0.00242322 0
-8.39374e-05 -0.00203065 0
-0.000381441 -0.00510838 0
-0.000898948 -0.00722217 0
-0.00158072 -0.00842165 0
-0.00242038 -0.00883072 0
-0.0034555 -0.00859174 0
-0.00474823 -0.00783728 0
-0.00636822 -0.00667938 0
-0.00838215 -0.00520616 0
-0.0108483 -0.00347951 0
-0.0138119 -0.00152906 0
-0.0152209 0.000660768 0
-0.0171173 0.00314837 0
-0.0215614 0.00514245 0
-0.0264886 0.00678514 0
-0.0318521 0.00813032 0
-0.0375632 0.00915774 0
-0.0434915 0.00979892 0
-0.0494605 0.00996214 0
-0.0552452 0.0095552 0
-0.0605773 0.00850673 0
-0.0651578 0.00678584 0
-0.068679 0.00441808 0
-0.0709789 0.00149203 0
-0.0717087 -0.00187826 0
-0.070617 -0.00534833 0
-0.0678028 -0.00866284 0
-0.0633418 -0.0115505 0
-0.057424 -0.0137441 0
-0.0503501 -0.0150224 0
-0.04251 -0.0152475 0
-0.0343471 -0.0143891 0
-0.0263131 -0.0125354 0
-0.0188191 -0.00988845 0
-0.0121918 -0.00675272 0
-0.00849232 -0.00352313 0
-0.00597912 -0.000650972 0
-0.00275221 0.00238709 0
-0.000500782 0.00523673 0
0.000923667 0.00774012 0
0.00166684 0.00982461 0
0.00187666 0.0114487 0
0.0017035 0.0125782 0
0.00129713 0.0131752 0
0.000800922 0.0131911 0
0.000342692 0.0125627 0
1.99438e-05 0.0112135 0
-0.000120875 0.00906478 0
-0.000105442 0.00606757 0
-3.3479e-05 0.00226448 0
-7.80829e-05 -0.0018216 0
-0.000391674 -0.00456119 0
-0.00101293 -0.00642773 0
-0.00192884 -0.00743192 0
-0.00313903 -0.00765176 0
-0.00466664 -0.00720053 0
-0.00655536 -0.00620005 0
-0.00886104 -0.00476363 0
-0.011643 -0.00298671 0
-0.0149565 -0.000941356 0
-0.0188433 0.00132858 0
-0.0207138 0.00381355 0
-0.0231256 0.00652184 0
-0.0286704 0.00876057 0
-0.0347681 0.0106234 0
-0.041371 0.0121333 0
-0.0483702 0.0132465 0
-0.0555999 0.0138716 0
-0.0628376 0.0138935 0
-0.0698066 0.0131986 0
-0.0761849 0.0116996 0
-0.0816227 0.00935912 0
-0.0857676 0.00620869 0
-0.0884608 0.00235953 0
-0.0893033 -0.00202259 0
-0.0880197 -0.00653575 0
-0.0847527 -0.0108914 0
-0.0795743 -0.0147631 0
-0.0726813 -0.0178209 0
-0.0643937 -0.019784 0
-0.0551344 -0.0204649 0
-0.0453947 -0.0198011 0
-0.0356885 -0.0178715 0
-0.0265012 -0.0148955 0
-0.0182414 -0.0112194 0
-0.0136181 -0.00729484 0
-0.0104002 -0.00362813 0
-0.00612433 0.000117963 0
-0.00299648 0.00360334 0
-0.000845771 0.00667592 0
0.000486805 0.00925593 0
0.00116354 0.0112883 0
0.00135176 0.0127246 0
0.00121755 0.0135151 0
0.000915569 0.0136059 0
0.000576645 0.0129409 0
0.000294348 0.0114694 0
0.000113831 0.00916419 0
2.9984e-05 0.00604869 0
4.30408e-06 0.00222809 0
-9.04238e-05 -0.00159188 0
-0.000467023 -0.00389069 0
-0.00124627 -0.00536125 0
-0.00244413 -0.00601489 0
-0.00407155 -0.00591049 0
-0.00614634 -0.00514019 0
-0.00869811 -0.00381132 0
-0.0117674 -0.00203084 0
-0.015401 0.000105149 0
-0.0196446 0.00251753 0
-0.0245316 0.00514727 0
-0.0269013 0.00795577 0
-0.0298606 0.0108991 0
-0.0365627 0.0134106 0
-0.0438756 0.0155248 0
-0.0517467 0.0172197 0
-0.0600464 0.0184167 0
-0.0685752 0.0189943 0
-0.0770683 0.0188103 0
-0.0852033 0.0177283 0
-0.0926138 0.0156468 0
-0.098911 0.0125251 0
-0.103711 0.00840586 0
-0.106811 0.00342996 0
-0.107812 -0.00217843 0
-0.106467 -0.00792968 0
-0.10291 -0.0135326 0
-0.0971899 -0.0185988 0
-0.0894917 -0.0227271 0
-0.0801353 -0.0255674 0
-0.0695594 -0.0268712 0
-0.0582906 -0.0265308 0
-0.0468997 -0.0246032 0
-0.0359487 -0.0213145 0
-0.0259379 -0.0170458 0
-0.0203282 -0.0123032 0
-0.016323 -0.00765689 0
-0.0108089 -0.00306426 0
-0.00660197 0.00117956 0
-0.00352217 0.00494142 0
-0.00140903 0.00813421 0
-9.46026e-05 0.0106849 0
0.000598796 0.0125271 0
0.000848847 0.0136 0
0.000819683 0.0138492 0
0.000648823 0.0132314 0
0.0004374 0.0117249 0
0.000246833 0.0093431 0
0.000105215 0.00615004 0
2.42225e-05 0.00226761 0
-0.000115229 -0.00129674 0
-0.000593251 -0.00301321 0
-0.00158577 -0.00392861 0
-0.00312311 -0.00407036 0
-0.00522333 -0.00349558 0
-0.00790122 -0.00228494 0
-0.0111755 -0.000532241 0
-0.0150722 0.00166619 0
-0.0196238 0.00421914 0
-0.0248633 0.00704441 0
-0.0308123 0.0100688 0
-0.0337103 0.0132236 0
-0.0372437 0.0164133 0
-0.0451548 0.01922 0
-0.0537252 0.0216074 0
-0.0628926 0.0234966 0
-0.0725065 0.0247642 0
-0.0823361 0.025252 0
-0.0920807 0.0247881 0
-0.101382 0.0232142 0
-0.10984 0.0204169 0
-0.117041 0.0163568 0
-0.12258 0.0110919 0
-0.126126 0.00479503 0
-0.127359 -0.00225613 0
-0.126148 -0.00943346 0
-0.122516 -0.0164954 0
-0.116472 -0.0229838 0
-0.108169 -0.0284184 0
-0.0979086 -0.0323692 0
-0.0861275 -0.0345128 0
-0.0733752 -0.0346791 0
-0.0602736 -0.0328848 0
-0.0474644 -0.0293455 0
-0.0355502 -0.0244642 0
-0.0288723 -0.0187964 0
-0.0239753 -0.0129847 0
-0.0169888 -0.00741841 0
-0.0114567 -0.00229385 0
-0.00720977 0.00228962 0
-0.00410054 0.00623406 0
-0.00196341 0.00944109 0
-0.000613995 0.0118217 0
0.000136753 0.0133023 0
0.000465975 0.0138291 0
0.000525747 0.0133725 0
0.000435902 0.0119344 0
0.000284127 0.00955566 0
0.000133115 0.00631962 0
3.21994e-05 0.00234862 0
-0.000149121 -0.000898571 0
-0.000759329 -0.00184423 0
-0.00201461 -0.00202237 0
-0.00394821 -0.00148063 0
-0.0065781 -0.000282465 0
-0.00991365 0.00149673 0
-0.013963 0.00377518 0
-0.0187386 0.00646977 0
-0.0242585 0.00949866 0
-0.0305418 0.0127805 0
-0.037598 0.0162303 0
-0.0410438 0.0197504 0
-0.0451707 0.023197 0
-0.054332 0.0263167 0
-0.0641938 0.0289904 0
-0.0746802 0.0310721 0
-0.0856191 0.0323859 0
-0.0967537 0.0327332 0
-0.107755 0.0319108 0
-0.11824 0.0297409 0
-0.12779 0.0261021 0
-0.135975 0.0209601 0
-0.142381 0.0143902 0
-0.14643 0.00659361 0
-0.147996 -0.00211131 0
-0.147169 -0.010898 0
-0.143724 -0.0196409 0
-0.137614 -0.0278013 0
-0.128945 -0.0348134 0
-0.11798 -0.040157 0
-0.105135 -0.0434177 0
-0.0909662 -0.0443419 0
-0.0761381 -0.0428812 0
-0.0613708 -0.0392158 0
-0.0473778 -0.0337503 0
-0.0395384 -0.0270785 0
-0.0336228 -0.0199212 0
-0.0248744 -0.0132725 0
-0.0177184 -0.00714249 0
-0.0120237 -0.00158403 0
-0.00767188 0.0032835 0
-0.00450595 0.00732369 0
-0.00233499 0.0104161 0
-0.000954895 0.0124702 0
-0.000168748 0.0134296 0
0.000198835 0.0132747 0
0.000294917 0.0120243 0
0.000238288 0.00973579 0
0.00012436 0.00650234 0
3.18726e-05 0.00244482 0
-0.000189886 -0.000363968 0
-0.000956483 -0.000302536 0
-0.00251549 0.000467521 0
-0.00489474 0.00187865 0
-0.00810495 0.0038593 0
-0.0121457 0.00633785 0
-0.0170129 0.00924508 0
-0.0227052 0.012514 0
-0.0292267 0.0160763 0
-0.0365832 0.0198558 0
-0.0447724 0.0237583 0
-0.0487752 0.0276607 0
-0.0535063 0.0313755 0
-0.0639434 0.0348223 0
-0.0751162 0.037787 0
-0.0869323 0.0400492 0
-0.0991996 0.0413763 0
-0.111641 0.0415269 0
-0.123909 0.0402687 0
-0.135607 0.0374069 0
-0.146309 0.0328164 0
-0.155581 0.0264702 0
-0.163004 0.0184598 0
-0.167616 0.00900668 0
-0.169627 -0.00154563 0
-0.16947 -0.0121238 0
-0.16651 -0.022781 0
-0.160629 -0.0328846 0
-0.151876 -0.0417806 0
-0.140457 -0.0488503 0
-0.126747 -0.0535724 0
-0.111287 -0.0555857 0
-0.0947638 -0.0547457 0
-0.0779671 -0.0511638 0
-0.0617232 -0.0452157 0
-0.0526352 -0.0375123 0
-0.0455563 -0.0288502 0
-0.0346953 -0.0210382 0
-0.0255576 -0.0137709 0
-0.0180869 -0.00705181 0
-0.0122101 -0.00104513 0
-0.00778264 0.00405431 0
-0.00460407 0.00808121 0
-0.00244893 0.0109195 0
-0.00109243 0.0125049 0
-0.000327586 0.0128221 0
2.63862e-05 0.0119001 0
0.000122302 0.00980747 0
8.7162e-05 0.00664463 0
2.55985e-05 0.00253499 0
-0.000235725 0.000337141 0
-0.00117671 0.0016869 0
-0.00307027 0.00364563 0
-0.0059327 0.00612777 0
-0.00976147 0.00905579 0
-0.0145418 0.0123645 0
-0.0202548 0.0160008 0
-0.0268846 0.0199186 0
-0.0344215 0.0240679 0
-0.0428596 0.028382 0
-0.0521861 0.0327619 0
-0.0567443 0.0370624 0
-0.0620793 0.0410593 0
-0.073796 0.0448436 0
-0.0862784 0.0480961 0
-0.0994159 0.0505182 0
-0.112999 0.0518195 0
-0.126737 0.051717 0
-0.140273 0.0499515 0
-0.153208 0.0463156 0
-0.165118 0.0406833 0
-0.175572 0.033036 0
-0.184153 0.0234774 0
-0.189372 0.0122402 0
-0.191935 -0.000319749 0
-0.19274 -0.0128731 0
-0.190568 -0.0256834 0
-0.185237 -0.038013 0
-0.17673 -0.049124 0
-0.16518 -0.058296 0
-0.150894 -0.0648882 0
-0.134367 -0.0684079 0
-0.116278 -0.0685799 0
-0.0974613 -0.0654042 0
-0.0788434 -0.0591835 0
-0.068457 -0.0505095 0
-0.0600649 -0.0402381 0
-0.0466818 -0.0312213 0
-0.0351491 -0.02267 0
-0.0255289 -0.0145607 0
-0.0178086 -0.00714261 0
-0.011857 -0.000698399 0
-0.00746017 0.00454312 0
-0.00436413 0.00842869 0
-0.00230815 0.010878 0
-0.00104607 0.0118741 0
-0.000357692 0.0114522 0
-5.30179e-05 0.00968954 0
2.75777e-05 0.00669537 0
1.49748e-05 0.0026013 0
-0.000284835 0.00123088 0
-0.00141156 0.00418935 0
-0.00365863 0.00760349 0
-0.00702639 0.0113724 0
-0.0114944 0.0154171 0
-0.0170299 0.0196848 0
-0.0235965 0.0241454 0
-0.0311629 0.0287803 0
-0.0397064 0.0335643 0
-0.04921 0.0384454 0
-0.0596531 0.0433241 0
-0.0647529 0.0480381 0
-0.0706784 0.0523337 0
-0.0836502 0.0564615 0
-0.0974116 0.0599913 0
-0.111834 0.0625459 0
-0.126693 0.0637787 0
-0.141691 0.0633684 0
-0.156471 0.0610331 0
-0.170635 0.0565558 0
-0.18377 0.0498123 0
-0.195454 0.0407914 0
-0.205277 0.0296064 0
-0.211111 0.0164944 0
-0.214302 0.00181791 0
-0.216323 -0.0128945 0
-0.21522 -0.0280853 0
-0.210767 -0.0429136 0
-0.202879 -0.0565715 0
-0.1916 -0.0682421 0
-0.177145 -0.0771609 0
-0.159921 -0.0826855 0
-0.140554 -0.0843753 0
-0.119873 -0.0820691 0
-0.0988744 -0.075939 0
-0.0872237 -0.0665007 0
-0.0773872 -0.0546279 0
-0.0610371 -0.0444147 0
-0.0466621 -0.0344113 0
-0.0344885 -0.024631 0
-0.0245756 -0.0154664 0
-0.0168075 -0.00732524 0
-0.0109542 -0.000523607 0
-0.00672799 0.00473272 0
-0.00382556 0.00833763 0
-0.00195484 0.0102663 0
-0.000850487 0.0105572 0
-0.000280955 0.00929646 0
-5.05973e-05 0.00660498 0
9.97431e-07 0.00262818 0
-0.000335167 0.0023377 0
-0.0016514 0.00725533 0
-0.00425699 0.0124113 0
-0.00813347 0.0176925 0
-0.0132396 0.023025 0
-0.0195217 0.0283769 0
-0.0269247 0.0337501 0
-0.035401 0.0391625 0
-0.0449149 0.0446217 0
-0.05544 0.0500964 0
-0.0669493 0.0554921 0
-0.0725634 0.0606342 0
-0.0790503 0.0652468 0
-0.0932162 0.0697184 0
-0.108187 0.0735071 0
-0.123816 0.0761599 0
-0.13987 0.0772784 0
-0.156047 0.0765074 0
-0.17199 0.0735461 0
-0.187314 0.0681715 0
-0.201614 0.0602622 0
-0.214484 0.0498158 0
-0.225532 0.0369546 0
-0.231929 0.0219205 0
-0.235774 0.00508618 0
-0.239172 -0.0119585 0
-0.239356 -0.0297175 0
-0.236085 -0.0472733 0
-0.229212 -0.0637719 0
-0.218685 -0.0783182 0
-0.204595 -0.0900332 0
-0.187221 -0.098118 0
-0.167072 -0.10194 0
-0.144908 -0.101126 0
-0.121724 -0.0956487 0
-0.108986 -0.0858696 0
-0.0976342 -0.0726053 0
-0.0778948 -0.061261 0
-0.0602477 -0.0496183 0
-0.045118 -0.0378423 0
-0.0326471 -0.0265381 0
-0.022743 -0.016281 0
-0.0151645 -0.00750337 0
-0.0095908 -0.000483795 0
-0.00567243 0.00463269 0
-0.00306601 0.00780614 0
-0.00145511 0.00907516 0
-0.000560927 0.00853533 0
-0.000146344 0.00632258 0
-1.59813e-05 0.0026009 0
-0.000384303 0.00366996 0
-0.0018849 0.0109144 0
-0.00483784 0.0181087 0
-0.00920462 0.0251314 0
-0.014922 0.0319209 0
-0.0219144 0.0384761 0
-0.0301071 0.0448421 0
-0.0394361 0.0510839 0
-0.0498533 0.0572507 0
-0.0613235 0.0633394 0
-0.0738145 0.0692655 0
-0.079901 0.0748482 0
-0.086901 0.0797958 0
-0.102155 0.0846028 0
-0.118216 0.0886218 0
-0.134922 0.0913299 0
-0.152029 0.0922823 0
-0.169232 0.0910944 0
-0.186181 0.0874504 0
-0.202497 0.081124 0
-0.217789 0.0720002 0
-0.231674 0.0600889 0
-0.243787 0.0455274 0
-0.250628 0.0285711 0
-0.255074 0.0096145 0
-0.25987 -0.00990172 0
-0.261455 -0.0303396 0
-0.259608 -0.0507655 0
-0.254131 -0.0703107 0
-0.244878 -0.0880358 0
-0.231798 -0.102974 0
-0.214996 -0.114182 0
-0.194801 -0.120824 0
-0.171816 -0.122278 0
-0.14694 -0.118246 0
-0.133489 -0.108841 0
-0.120673 -0.0947094 0
-0.0972562 -0.0823611 0
-0.0760122 -0.0689038 0
-0.0575764 -0.0548002 0
-0.0421904 -0.0409316 0
-0.0298117 -0.0280851 0
-0.0202083 -0.0168467 0
-0.0130367 -0.00759619 0
-0.00790374 -0.000537091 0
-0.00441201 0.00426408 0
-0.00218843 0.00684127 0
-0.000900287 0.00729913 0
-0.000262022 0.00579105 0
-3.63559e-05 0.00250343 0
-0.000429446 0.005229 0
-0.00209912 0.015168 0
-0.00536992 0.0246953 0
-0.0101841 0.0336842 0
-0.0164571 0.0420935 0
-0.0240923 0.0499631 0
-0.0329956 0.0573933 0
-0.0430869 0.0645073 0
-0.0543058 0.0714056 0
-0.0666086 0.0781209 0
-0.0799586 0.084585 0
-0.0864587 0.0906156 0
-0.093902 0.0959112 0
-0.110084 0.101033 0
-0.127058 0.105239 0
-0.144642 0.107946 0
-0.162585 0.108668 0
-0.180578 0.106995 0
-0.198272 0.1026 0
-0.215295 0.0952569 0
-0.231274 0.0848643 0
-0.245853 0.0714532 0
-0.258716 0.0551888 0
-0.265811 0.0363561 0
-0.270719 0.0153864 0
-0.27676 -0.00667035 0
-0.279718 -0.0297846 0
-0.279424 -0.0530941 0
-0.275653 -0.0757516 0
-0.268175 -0.0968215 0
-0.256794 -0.115295 0
-0.241414 -0.130121 0
-0.222124 -0.140278 0
-0.199281 -0.144878 0
-0.173572 -0.143298 0
-0.160014 -0.135316 0
-0.14598 -0.121261 0
-0.118898 -0.108121 0
-0.0939584 -0.0927687 0
-0.0719918 -0.0760782 0
-0.0533825 -0.0592448 0
-0.0381916 -0.0433135 0
-0.0262389 -0.0290734 0
-0.0171846 -0.0170487 0
-0.010604 -0.00753283 0
-0.00604772 -0.000638109 0
-0.00308248 0.00365498 0
-0.00131499 0.00545715 0
-0.000403589 0.00494016 0
-6.13067e-05 0.00231571 0
-0.000467512 0.00700233 0
-0.00227991 0.0199835 0
-0.0058193 0.0321214 0
-0.0110118 0.0432877 0
-0.0177546 0.0534681 0
-0.0259322 0.0627535 0
-0.0354325 0.0713098 0
-0.0461604 0.0793295 0
-0.0580431 0.0869742 0
-0.0710278 0.0943198 0
-0.0850725 0.10132 0
-0.0919104 0.107797 0
-0.0997033 0.113443 0
-0.116594 0.118839 0
-0.134237 0.123172 0
-0.152429 0.125802 0
-0.170909 0.126207 0
-0.189359 0.123958 0
-0.20743 0.118719 0
-0.224757 0.110274 0
-0.240989 0.0985442 0
-0.25581 0.0835972 0
-0.268964 0.0656439 0
-0.276068 0.0450185 0
-0.28122 0.0222015 0
-0.288172 -0.0023535 0
-0.292315 -0.0280036 0
-0.293555 -0.0540491 0
-0.291663 -0.079702 0
-0.286356 -0.104088 0
-0.277306 -0.126218 0
-0.264217 -0.144996 0
-0.246906 -0.159262 0
-0.225411 -0.167884 0
-0.200098 -0.1699 0
-0.187233 -0.164686 0
-0.172485 -0.152106 0
-0.142251 -0.13855 0
-0.113876 -0.121463 0
-0.0883729 -0.102125 0
-0.0663467 -0.0820422 0
-0.0480486 -0.0625678 0
-0.0334204 -0.0447613 0
-0.0221735 -0.0293559 0
-0.0138787 -0.0167846 0
-0.00804579 -0.00723882 0
-0.00418184 -0.000731994 0
-0.0018283 0.00284451 0
-0.00058008 0.00367909 0
-9.26853e-05 0.00201051 0
-0.000495327 0.00896139 0
-0.00241277 0.025288 0
-0.00615142 0.0402815 0
-0.0116268 0.053813 0
-0.0187229 0.0658997 0
-0.0273095 0.0766902 0
-0.0372596 0.086425 0
-0.0484635 0.095375 0
-0.0608358 0.103771 0
-0.0743136 0.11174 0
-0.0888468 0.119263 0
-0.095929 0.12617 0
-0.103954 0.13215 0
-0.121276 0.137759 0
-0.139277 0.14213 0
-0.157738 0.14458 0
-0.176377 0.144555 0
-0.194869 0.141608 0
-0.212861 0.135403 0
-0.230001 0.125745 0
-0.245965 0.112593 0
-0.260486 0.0960712 0
-0.273382 0.0764556 0
-0.280226 0.0541469 0
-0.285351 0.0296792 0
-0.292742 0.00281017 0
-0.29774 -0.0250945 0
-0.300324 -0.053559 0
-0.300303 -0.0818915 0
-0.297369 -0.109337 0
-0.291109 -0.134995 0
-0.281051 -0.157805 0
-0.266752 -0.176549 0
-0.247906 -0.189918 0
-0.22448 -0.196644 0
-0.21319 -0.195684 0