# vtk DataFile Version 2.0
Velocidades
ASCII

DATASET STRUCTURED_GRID
DIMENSIONS   50   50   20

POINTS   50000   double
0.00568455   0.00568455   0.025
0.0174023   0.00568455   0.025
0.0298294   0.00568455   0.025
0.0429888   0.00568455   0.025
0.0569012   0.00568455   0.025
0.0715849   0.00568455   0.025
0.0870549   0.00568455   0.025
0.103323   0.00568455   0.025
0.120395   0.00568455   0.025
0.138275   0.00568455   0.025
0.156961   0.00568455   0.025
0.176443   0.00568455   0.025
0.196707   0.00568455   0.025
0.217734   0.00568455   0.025
0.239496   0.00568455   0.025
0.261959   0.00568455   0.025
0.285082   0.00568455   0.025
0.308818   0.00568455   0.025
0.333113   0.00568455   0.025
0.357906   0.00568455   0.025
0.383132   0.00568455   0.025
0.408719   0.00568455   0.025
0.434592   0.00568455   0.025
0.460672   0.00568455   0.025
0.486877   0.00568455   0.025
0.513123   0.00568455   0.025
0.539328   0.00568455   0.025
0.565408   0.00568455   0.025
0.591281   0.00568455   0.025
0.616868   0.00568455   0.025
0.642094   0.00568455   0.025
0.666887   0.00568455   0.025
0.691182   0.00568455   0.025
0.714918   0.00568455   0.025
0.738041   0.00568455   0.025
0.760504   0.00568455   0.025
0.782266   0.00568455   0.025
0.803293   0.00568455   0.025
0.823557   0.00568455   0.025
0.843039   0.00568455   0.025
0.861725   0.00568455   0.025
0.879605   0.00568455   0.025
0.896677   0.00568455   0.025
0.912945   0.00568455   0.025
0.928415   0.00568455   0.025
0.943099   0.00568455   0.025
0.957011   0.00568455   0.025
0.970171   0.00568455   0.025
0.982598   0.00568455   0.025
0.994315   0.00568455   0.025
0.00568455   0.0174023   0.025
0.0174023   0.0174023   0.025
0.0298294   0.0174023   0.025
0.0429888   0.0174023   0.025
0.0569012   0.0174023   0.025
0.0715849   0.0174023   0.025
0.0870549   0.0174023   0.025
0.103323   0.0174023   0.025
0.120395   0.0174023   0.025
0.138275   0.0174023   0.025
0.156961   0.0174023   0.025
0.176443   0.0174023   0.025
0.196707   0.0174023   0.025
0.217734   0.0174023   0.025
0.239496   0.0174023   0.025
0.261959   0.0174023   0.025
0.285082   0.0174023   0.025
0.308818   0.0174023   0.025
0.333113   0.0174023   0.025
0.357906   0.0174023   0.025
0.383132   0.0174023   0.025
0.408719   0.0174023   0.025
0.434592   0.0174023   0.025
0.460672   0.0174023   0.025
0.486877   0.0174023   0.025
0.513123   0.0174023   0.025
0.539328   0.0174023   0.025
0.565408   0.0174023   0.025
0.591281   0.0174023   0.025
0.616868   0.0174023   0.025
0.642094   0.0174023   0.025
0.666887   0.0174023   0.025
0.691182   0.0174023   0.025
0.714918   0.0174023   0.025
0.738041   0.0174023   0.025
0.760504   0.0174023   0.025
0.782266   0.0174023   0.025
0.803293   0.0174023   0.025
0.823557   0.0174023   0.025
0.843039   0.0174023   0.025
0.861725   0.0174023   0.025
0.879605   0.0174023   0.025
0.896677   0.0174023   0.025
0.912945   0.0174023   0.025
0.928415   0.0174023   0.025
0.943099   0.0174023   0.025
0.957011   0.0174023   0.025
0.970171   0.0174023   0.025
0.982598   0.0174023   0.025
0.994315   0.0174023   0.025
0.00568455   0.0298294   0.025
0.0174023   0.0298294   0.025
0.0298294   0.0298294   0.025
0.0429888   0.0298294   0.025
0.0569012   0.0298294   0.025
0.0715849   0.0298294   0.025
0.0870549   0.0298294   0.025
0.103323   0.0298294   0.025
0.120395   0.0298294   0.025
0.138275   0.0298294   0.025
0.156961   0.0298294   0.025
0.176443   0.0298294   0.025
0.196707   0.0298294   0.025
0.217734   0.0298294   0.025
0.239496   0.0298294   0.025
0.261959   0.0298294   0.025
0.285082   0.0298294   0.025
0.308818   0.0298294   0.025
0.333113   0.0298294   0.025
0.357906   0.0298294   0.025
0.383132   0.0298294   0.025
0.408719   0.0298294   0.025
0.434592   0.0298294   0.025
0.460672   0.0298294   0.025
0.486877   0.0298294   0.025
0.513123   0.0298294   0.025
0.539328   0.0298294   0.025
0.565408   0.0298294   0.025
0.591281   0.0298294   0.025
0.616868   0.0298294   0.025
0.642094   0.0298294   0.025
0.666887   0.0298294   0.025
0.691182   0.0298294   0.025
0.714918   0.0298294   0.025
0.738041   0.0298294   0.025
0.760504   0.0298294   0.025
0.782266   0.0298294   0.025
0.803293   0.0298294   0.025
0.823557   0.0298294   0.025
0.843039   0.0298294   0.025
0.861725   0.0298294   0.025
0.879605   0.0298294   0.025
0.896677   0.0298294   0.025
0.912945   0.0298294   0.025
0.928415   0.0298294   0.025
0.943099   0.0298294   0.025
0.957011   0.0298294   0.025
0.970171   0.0298294   0.025
0.982598   0.0298294   0.025
0.994315   0.0298294   0.025
0.00568455   0.0429888   0.025
0.0174023   0.0429888   0.025
0.0298294   0.0429888   0.025
0.0429888   0.0429888   0.025
0.0569012   0.0429888   0.025
0.0715849   0.0429888   0.025
0.0870549   0.0429888   0.025
0.103323   0.0429888   0.025
0.120395   0.0429888   0.025
0.138275   0.0429888   0.025
0.156961   0.0429888   0.025
0.176443   0.0429888   0.025
0.196707   0.0429888   0.025
0.217734   0.0429888   0.025
0.239496   0.0429888   0.025
0.261959   0.0429888   0.025
0.285082   0.0429888   0.025
0.308818   0.0429888   0.025
0.333113   0.0429888   0.025
0.357906   0.0429888   0.025
0.383132   0.0429888   0.025
0.408719   0.0429888   0.025
0.434592   0.0429888   0.025
0.460672   0.0429888   0.025
0.486877   0.0429888   0.025
0.513123   0.0429888   0.025
0.539328   0.0429888   0.025
0.565408   0.0429888   0.025
0.591281   0.0429888   0.025
0.616868   0.0429888   0.025
0.642094   0.0429888   0.025
0.666887   0.0429888   0.025
0.691182   0.0429888   0.025
0.714918   0.0429888   0.025
0.738041   0.0429888   0.025
0.760504   0.0429888   0.025
0.782266   0.0429888   0.025
0.803293   0.0429888   0.025
0.823557   0.0429888   0.025
0.843039   0.0429888   0.025
0.861725   0.0429888   0.025
0.879605   0.0429888   0.025
0.896677   0.0429888   0.025
0.912945   0.0429888   0.025
0.928415   0.0429888   0.025
0.943099   0.0429888   0.025
0.957011   0.0429888   0.025
0.970171   0.0429888   0.025
0.982598   0.0429888   0.025
0.994315   0.0429888   0.025
0.00568455   0.0569012   0.025
0.0174023   0.0569012   0.025
0.0298294   0.0569012   0.025
0.0429888   0.0569012   0.025
0.0569012   0.0569012   0.025
0.0715849   0.0569012   0.025
0.0870549   0.0569012   0.025
0.103323   0.0569012   0.025
0.120395   0.0569012   0.025
0.138275   0.0569012   0.025
0.156961   0.0569012   0.025
0.176443   0.0569012   0.025
0.196707   0.0569012   0.025
0.217734   0.0569012   0.025
0.239496   0.0569012   0.025
0.261959   0.0569012   0.025
0.285082   0.0569012   0.025
0.308818   0.0569012   0.025
0.333113   0.0569012   0.025
0.357906   0.0569012   0.025
0.383132   0.0569012   0.025
0.408719   0.0569012   0.025
0.434592   0.0569012   0.025
0.460672   0.0569012   0.025
0.486877   0.0569012   0.025
0.513123   0.0569012   0.025
0.539328   0.0569012   0.025
0.565408   0.0569012   0.025
0.591281   0.0569012   0.025
0.616868   0.0569012   0.025
0.642094   0.0569012   0.025
0.666887   0.0569012   0.025
0.691182   0.0569012   0.025
0.714918   0.0569012   0.025
0.738041   0.0569012   0.025
0.760504   0.0569012   0.025
0.782266   0.0569012   0.025
0.803293   0.0569012   0.025
0.823557   0.0569012   0.025
0.843039   0.0569012   0.025
0.861725   0.0569012   0.025
0.879605   0.0569012   0.025
0.896677   0.0569012   0.025
0.912945   0.0569012   0.025
0.928415   0.0569012   0.025
0.943099   0.0569012   0.025
0.957011   0.0569012   0.025
0.970171   0.0569012   0.025
0.982598   0.0569012   0.025
0.994315   0.0569012   0.025
0.00568455   0.0715849   0.025
0.0174023   0.0715849   0.025
0.0298294   0.0715849   0.025
0.0429888   0.0715849   0.025
0.0569012   0.0715849   0.025
0.0715849   0.0715849   0.025
0.0870549   0.0715849   0.025
0.103323   0.0715849   0.025
0.120395   0.0715849   0.025
0.138275   0.0715849   0.025
0.156961   0.0715849   0.025
0.176443   0.0715849   0.025
0.196707   0.0715849   0.025
0.217734   0.0715849   0.025
0.239496   0.0715849   0.025
0.261959   0.0715849   0.025
0.285082   0.0715849   0.025
0.308818   0.0715849   0.025
0.333113   0.0715849   0.025
0.357906   0.0715849   0.025
0.383132   0.0715849   0.025
0.408719   0.0715849   0.025
0.434592   0.0715849   0.025
0.460672   0.0715849   0.025
0.486877   0.0715849   0.025
0.513123   0.0715849   0.025
0.539328   0.0715849   0.025
0.565408   0.0715849   0.025
0.591281   0.0715849   0.025
0.616868   0.0715849   0.025
0.642094   0.0715849   0.025
0.666887   0.0715849   0.025
0.691182   0.0715849   0.025
0.714918   0.0715849   0.025
0.738041   0.0715849   0.025
0.760504   0.0715849   0.025
0.782266   0.0715849   0.025
0.803293   0.0715849   0.025
0.823557   0.0715849   0.025
0.843039   0.0715849   0.025
0.861725   0.0715849   0.025
0.879605   0.0715849   0.025
0.896677   0.0715849   0.025
0.912945   0.0715849   0.025
0.928415   0.0715849   0.025
0.943099   0.0715849   0.025
0.957011   0.0715849   0.025
0.970171   0.0715849   0.025
0.982598   0.0715849   0.025
0.994315   0.0715849   0.025
0.00568455   0.0870549   0.025
0.0174023   0.0870549   0.025
0.0298294   0.0870549   0.025
0.0429888   0.0870549   0.025
0.0569012   0.0870549   0.025
0.0715849   0.0870549   0.025
0.0870549   0.0870549   0.025
0.103323   0.0870549   0.025
0.120395   0.0870549   0.025
0.138275   0.0870549   0.025
0.156961   0.0870549   0.025
0.176443   0.0870549   0.025
0.196707   0.0870549   0.025
0.217734   0.0870549   0.025
0.239496   0.0870549   0.025
0.261959   0.0870549   0.025
0.285082   0.0870549   0.025
0.308818   0.0870549   0.025
0.333113   0.0870549   0.025
0.357906   0.0870549   0.025
0.383132   0.0870549   0.025
0.408719   0.0870549   0.025
0.434592   0.0870549   0.025
0.460672   0.0870549   0.025
0.486877   0.0870549   0.025
0.513123   0.0870549   0.025
0.539328   0.0870549   0.025
0.565408   0.0870549   0.025
0.591281   0.0870549   0.025
0.616868   0.0870549   0.025
0.642094   0.0870549   0.025
0.666887   0.0870549   0.025
0.691182   0.0870549   0.025
0.714918   0.0870549   0.025
0.738041   0.0870549   0.025
0.760504   0.0870549   0.025
0.782266   0.0870549   0.025
[...]
POINT_DATA   50000
VECTORS Velocidades double

-7.68519e-05 -0.00168903 0
-0.00020793 -0.00331755 0
-0.000285509 -0.00423451 0
-0.000313945 -0.00474977 0
-0.000321011 -0.00498885 0
-0.000333958 -0.00501521 0
-0.000373532 -0.00486781 0
-0.000454316 -0.00457436 0
-0.000586145 -0.00415596 0
-0.000775634 -0.00362792 0
-0.00102822 -0.00299669 0
-0.00115403 -0.00224622 0
-0.00133389 -0.0012779 0
-0.00177614 -0.000549447 0
-0.00229372 5.81001e-05 0
-0.00285916 0.000571518 0
-0.0034631 0.000987686 0
-0.00409644 0.00128965 0
-0.00474606 0.00145491 0
-0.005393 0.00146202 0
-0.00601188 0.00129641 0
-0.00657143 0.000955437 0
-0.00703725 0.000451859 0
-0.00736347 -0.000183694 0
-0.00750826 -0.000890859 0
-0.00744359 -0.00160258 0
-0.00715195 -0.0022394 0
-0.00663707 -0.00272684 0
-0.00592291 -0.00300106 0
-0.00505424 -0.00301754 0
-0.00409243 -0.00275838 0
-0.00310743 -0.00223581 0
-0.0021676 -0.00149144 0
-0.00132974 -0.000591874 0
-0.000630565 0.00037619 0
-0.000238696 0.00130418 0
2.06583e-06 0.00203257 0
0.000272523 0.0028755 0
0.000437761 0.00367521 0
0.000503973 0.00437274 0
0.000490935 0.00494227 0
0.000418455 0.00537194 0
0.000304779 0.00565568 0
0.00016708 0.00578872 0
2.252e-05 0.00576431 0
-0.000110303 0.00556979 0
-0.000209562 0.00517959 0
-0.000249256 0.00453924 0
-0.000204941 0.00352209 0
-7.95899e-05 0.00179162 0
-0.000257126 -0.00310517 0
-0.000677346 -0.006472 0
-0.000894615 -0.0084179 0
-0.000950698 -0.00949784 0
-0.00095065 -0.00997936 0
-0.000977572 -0.0100073 0
-0.00109059 -0.00967163 0
-0.00133115 -0.00903548 0
-0.00172801 -0.00814592 0
-0.00230146 -0.00703607 0
-0.00306945 -0.00571839 0
-0.00340568 -0.00415626 0
-0.00396937 -0.00216877 0
-0.00539783 -0.000666997 0
-0.00701012 0.00057779 0
-0.00876993 0.00162644 0
-0.0106521 0.00247393 0
-0.0126261 0.00308415 0
-0.0146463 0.00340843 0
-0.0166477 0.0033997 0
-0.0185449 0.00302503 0
-0.0202358 0.00227649 0
-0.0216097 0.00117929 0
-0.0225373 -0.000202986 0
-0.0228995 -0.00176868 0
-0.0226175 -0.00334783 0
-0.0216582 -0.00477809 0
-0.0200468 -0.00590041 0
-0.0178621 -0.00657489 0
-0.015237 -0.00670082 0
-0.0123476 -0.00623357 0
-0.00939163 -0.00519347 0
-0.00656376 -0.00366511 0
-0.00402931 -0.00178896 0
-0.00190104 0.000248396 0
-0.000743706 0.00220948 0
-2.2959e-06 0.00376264 0
0.000881176 0.00554829 0
0.00140368 0.00724383 0
0.00161397 0.00872353 0
0.00157385 0.00993392 0
0.00134379 0.010851 0
0.000980277 0.0114621 0
0.000537162 0.011756 0
6.84409e-05 0.0117159 0
-0.000367885 0.0113105 0
-0.000704043 0.0104784 0
-0.000854934 0.00909468 0
-0.000720666 0.00689277 0
-0.000284623 0.00328116 0
-0.000185434 -0.0026237 0
-0.000589077 -0.00607766 0
-0.000961379 -0.00821268 0
-0.00122063 -0.00939675 0
-0.00142814 -0.00988945 0
-0.00167603 -0.00986071 0
-0.00204807 -0.0094251 0
-0.00261091 -0.0086642 0
-0.00341508 -0.0076376 0
-0.00449903 -0.00638538 0
-0.00589503 -0.00492089 0
-0.00652734 -0.00320353 0
-0.0075001 -0.00108801 0
-0.00990105 0.000530071 0
-0.0125995 0.00185898 0
-0.0155507 0.0029697 0
-0.018708 0.00385833 0
-0.0220111 0.00448261 0
-0.0253748 0.00478411 0
-0.028683 0.00470497 0
-0.0317885 0.00420254 0
-0.0345194 0.00326243 0
-0.0366917 0.00190898 0
-0.0381346 0.000210201 0
-0.0386516 -0.001757 0
-0.0381062 -0.00375488 0
-0.0364857 -0.00560422 0
-0.0338376 -0.00711954 0
-0.0302893 -0.00813 0
-0.0260469 -0.00850543 0
-0.0213782 -0.0081789 0
-0.0165837 -0.00715982 0
-0.0119604 -0.00553573 0
-0.0077648 -0.0034647 0
-0.00417935 -0.0011657 0
-0.00220661 0.00107737 0
-0.000921909 0.00290151 0
0.000637323 0.00495902 0
0.00161222 0.00691171 0
0.00208671 0.00861858 0
0.00215627 0.0100213 0
0.00191669 0.0110938 0
0.00146124 0.0118202 0
0.000881891 0.0121838 0
0.000271776 0.0121584 0
-0.000272028 0.0116986 0
-0.000648077 0.0107236 0
-0.000760769 0.00909037 0
-0.00056534 0.00655595 0
-0.0001952 0.00275952 0
-0.000117113 -0.00227574 0
-0.000450288 -0.00560412 0
-0.000900734 -0.00781058 0
-0.00137302 -0.00905947 0
-0.00187739 -0.00954563 0
-0.00247864 -0.00943672 0
-0.0032569 -0.00886436 0
-0.00428795 -0.00792921 0
-0.00563627 -0.00670628 0
-0.00735449 -0.0052459 0
-0.0094847 -0.00356697 0
-0.0104783 -0.00163609 0
-0.0118947 0.000651066 0
-0.015294 0.0024357 0
-0.0190918 0.00389822 0
-0.023241 0.00510838 0
-0.0276732 0.00605848 0
-0.032294 0.00669596 0
-0.0369735 0.00694802 0
-0.0415413 0.00674144 0
-0.0457886 0.00602027 0
-0.0494767 0.00476192 0
-0.0523546 0.00299022 0
-0.054247 0.000779964 0
-0.054878 -0.00178753 0
-0.0540495 -0.00441721 0
-0.0517989 -0.00689576 0
-0.0481922 -0.00899961 0
-0.0433952 -0.0105148 0
-0.0376703 -0.0112707 0
-0.0313561 -0.011169 0
-0.0248338 -0.0102027 0
-0.0184841 -0.0084615 0
-0.0126437 -0.00612543 0
-0.00756478 -0.0034547 0
-0.00474461 -0.00078748 0
-0.00287148 0.0014724 0
-0.000540231 0.00394712 0
0.00100301 0.00628534 0
0.00187621 0.00833398 0
0.00220303 0.0100279 0
0.00210881 0.0113352 0
0.001719 0.0122329 0
0.00115878 0.0126948 0
0.00055225 0.0126825 0
1.92481e-05 0.012137 0
-0.000334305 0.0109694 0
-0.000439849 0.00905459 0
-0.00031072 0.00624196 0
-9.80201e-05 0.0024233 0
-8.3941e-05 -0.00203083 0
-0.000381457 -0.00510883 0
-0.000898985 -0.00722282 0
-0.00158078 -0.00842242 0
-0.00242048 -0.00883154 0
-0.00345565 -0.00859253 0
-0.00474843 -0.007838 0
-0.00636851 -0.00667997 0
-0.00838256 -0.00520658 0
-0.0108488 -0.00347974 0
-0.0138127 -0.00152909 0
-0.0152218 0.000660956 0
-0.0171183 0.00314877 0
-0.0215627 0.00514304 0
-0.0264902 0.0067859 0
-0.0318541 0.00813122 0
-0.0375656 0.00915875 0
-0.0434943 0.00980001 0
-0.0494636 0.00996326 0
-0.0552488 0.00955629 0
-0.0605812 0.00850775 0
-0.065162 0.00678672 0
-0.0686834 0.00441878 0
-0.0709835 0.0014925 0
-0.0717133 -0.00187805 0
-0.0706216 -0.0053484 0
-0.0678072 -0.00866318 0
-0.0633459 -0.0115511 0
-0.0574278 -0.0137449 0
-0.0503535 -0.0150234 0
-0.042513 -0.0152485 0
-0.0343496 -0.0143902 0
-0.0263151 -0.0125364 0
-0.0188207 -0.0098893 0
-0.012193 -0.00675342 0
-0.00849325 -0.00352364 0
-0.00597989 -0.000651314 0
-0.00275276 0.00238691 0
-0.00050117 0.00523668 0
0.000923403 0.0077402 0
0.00166667 0.00982478 0
0.00187655 0.0114489 0
0.00170343 0.0125785 0
0.00129708 0.0131756 0
0.000800888 0.0131915 0
0.000342664 0.0125631 0
1.99223e-05 0.0112138 0
-0.00012089 0.00906507 0
-0.000105449 0.00606777 0
-3.34809e-05 0.00226455 0
-7.80859e-05 -0.00182176 0
-0.00039169 -0.00456162 0
-0.00101298 -0.00642835 0
-0.00192892 -0.00743265 0
-0.00313918 -0.00765252 0
-0.00466687 -0.00720125 0
-0.00655569 -0.00620067 0
-0.00886151 -0.00476411 0
-0.0116437 -0.00298699 0
-0.0149574 -0.000941417 0
-0.0188444 0.00132876 0
-0.020715 0.00381395 0
-0.023127 0.00652247 0
-0.0286721 0.0087614 0
-0.0347703 0.0106245 0
-0.0413736 0.0121345 0
-0.0483733 0.0132478 0
-0.0556034 0.0138729 0
-0.0628416 0.0138948 0
-0.0698111 0.0131999 0
-0.0761897 0.0117008 0
-0.0816278 0.00936016 0
-0.085773 0.00620949 0
-0.0884662 0.00236004 0
-0.0893088 -0.00202239 0
-0.0880251 -0.00653588 0
-0.0847579 -0.0108919 0
-0.0795792 -0.0147639 0
-0.0726858 -0.0178219 0
-0.0643978 -0.0197852 0
-0.055138 -0.0204662 0
-0.0453978 -0.0198025 0
-0.035691 -0.0178728 0
-0.0265032 -0.0148966 0
-0.0182429 -0.0112204 0
-0.0136194 -0.00729559 0
-0.0104013 -0.00362866 0
-0.00612513 0.000117629 0
-0.00299707 0.00360317 0
-0.000846191 0.0066759 0
0.000486516 0.00925603 0
0.00116335 0.0112885 0
0.00135163 0.0127249 0
0.00121747 0.0135154 0
0.000915515 0.0136063 0
0.00057661 0.0129412 0
0.000294326 0.0114697 0
0.000113819 0.00916446 0
2.99792e-05 0.00604887 0
4.3031e-06 0.00222816 0
-9.04279e-05 -0.00159204 0
-0.000467046 -0.00389109 0
-0.00124633 -0.00536181 0
-0.00244426 -0.00601554 0
-0.00407177 -0.00591116 0
-0.00614668 -0.0051408 0
-0.0086986 -0.0038118 0
-0.0117681 -0.00203114 0
-0.0154019 0.000105069 0
-0.0196458 0.0025177 0
-0.0245331 0.0051477 0
-0.026903 0.00795645 0
-0.0298625 0.0109001 0
-0.036565 0.0134117 0
-0.0438784 0.0155261 0
-0.05175 0.0172212 0
-0.0600503 0.0184183 0
-0.0685796 0.018996 0
-0.0770731 0.0188119 0
-0.0852085 0.0177299 0
-0.0926195 0.0156482 0
-0.098917 0.0125263 0
-0.103717 0.00840675 0
-0.106817 0.00343051 0
-0.107818 -0.00217827 0
-0.106473 -0.00792991 0
-0.102916 -0.0135332 0
-0.0971956 -0.0185997 0
-0.0894969 -0.0227284 0
-0.0801401 -0.0255689 0
-0.0695637 -0.0268728 0
-0.0582943 -0.0265325 0
-0.0469027 -0.0246048 0
-0.0359512 -0.021316 0
-0.0259398 -0.0170471 0
-0.0203298 -0.0123042 0
-0.0163244 -0.00765765 0
-0.01081 -0.00306479 0
-0.0066028 0.00117922 0
-0.00352278 0.00494126 0
-0.00140946 0.0081342 0
-9.49016e-05 0.010685 0
0.000598596 0.0125273 0
0.000848717 0.0136003 0
0.000819601 0.0138495 0
0.000648774 0.0132318 0
0.000437373 0.0117252 0
0.00024682 0.00934336 0
0.00010521 0.00615022 0
2.42218e-05 0.00226767 0
-0.000115235 -0.00129688 0
-0.000593284 -0.00301357 0
-0.00158586 -0.0039291 0
-0.00312329 -0.0040709 0
-0.00522364 -0.0034961 0
-0.0079017 -0.00228538 0
-0.0111762 -0.000532519 0
-0.0150731 0.00166612 0
-0.019625 0.00421933 0
-0.0248648 0.00704488 0
-0.0308143 0.0100695 0
-0.0337125 0.0132246 0
-0.0372461 0.0164146 0
-0.0451577 0.0192215 0
-0.0537286 0.0216091 0
-0.0628966 0.0234985 0
-0.072511 0.0247661 0
-0.0823412 0.0252541 0
-0.0920863 0.0247901 0
-0.101388 0.023216 0
-0.109846 0.0204185 0
-0.117047 0.0163581 0
-0.122587 0.0110929 0
-0.126133 0.00479558 0
-0.127366 -0.00225601 0
-0.126155 -0.0094338 0
-0.122523 -0.0164962 0
-0.116478 -0.022985 0
-0.108175 -0.02842 0
-0.0979139 -0.0323711 0
-0.0861323 -0.0345148 0
-0.0733794 -0.0346811 0
-0.0602772 -0.0328868 0
-0.0474675 -0.0293474 0
-0.0355526 -0.0244658 0
-0.0288744 -0.0187978 0
-0.0239772 -0.0129858 0
-0.0169902 -0.00741921 0
-0.0114578 -0.00229441 0
-0.0072106 0.00228926 0
-0.00410114 0.00623389 0
-0.00196383 0.00944108 0
-0.000614282 0.0118218 0
0.000136564 0.0133026 0
0.000465856 0.0138294 0
0.000525677 0.0133728 0
0.000435865 0.0119347 0
0.00028411 0.0095559 0
0.00013311 0.00631978 0
3.21985e-05 0.00234868 0
-0.000149131 -0.000898691 0
-0.000759377 -0.00184451 0
-0.00201474 -0.00202274 0
-0.00394846 -0.00148101 0
-0.00657851 -0.000282789 0
-0.00991428 0.00149654 0
-0.0139639 0.00377518 0
-0.0187398 0.00647002 0
-0.02426 0.0094992 0
-0.0305438 0.0127814 0
-0.0376004 0.0162314 0
-0.0410464 0.0197519 0
-0.0451736 0.0231986 0
-0.0543355 0.0263186 0
-0.0641978 0.0289926 0
-0.0746848 0.0310744 0
-0.0856243 0.0323883 0
-0.0967594 0.0327356 0
-0.107762 0.0319131 0
-0.118247 0.029743 0
-0.127797 0.0261039 0
-0.135982 0.0209616 0
-0.142388 0.0143913 0
-0.146437 0.00659416 0
-0.148003 -0.00211127 0
-0.147176 -0.0108985 0
-0.143731 -0.0196419 0
-0.137621 -0.0278028 0
-0.128952 -0.0348152 0
-0.117986 -0.0401591 0
-0.10514 -0.0434201 0
-0.0909709 -0.0443444 0
-0.0761423 -0.0428837 0
-0.0613744 -0.0392181 0
-0.0473807 -0.0337524 0
-0.039541 -0.0270803 0
-0.0336251 -0.0199226 0
-0.0248762 -0.0132736 0
-0.0177198 -0.00714335 0
-0.0120248 -0.00158464 0
-0.00767266 0.00328312 0
-0.0045065 0.00732351 0
-0.00233538 0.0104161 0
-0.000955148 0.0124703 0
-0.000168909 0.0134298 0
0.00019874 0.013275 0
0.000294867 0.0120246 0
0.000238265 0.00973601 0
0.000124352 0.00650249 0
3.18713e-05 0.00244489 0
-0.000189898 -0.000364053 0
-0.000956547 -0.000302716 0
-0.00251566 0.000467315 0
-0.00489506 0.00187849 0
-0.00810548 0.00385925 0
-0.0121465 0.00633797 0
-0.017014 0.00924543 0
-0.0227067 0.0125146 0
-0.0292286 0.0160773 0
-0.0365856 0.019857 0
-0.0447752 0.0237599 0
-0.0487784 0.0276626 0
-0.0535097 0.0313777 0
-0.0639474 0.0348248 0
-0.0751208 0.0377897 0
-0.0869375 0.0400519 0
-0.0992054 0.0413791 0
-0.111647 0.0415297 0
-0.123916 0.0402713 0
-0.135614 0.0374092 0
-0.146316 0.0328183 0
-0.155589 0.0264718 0
-0.163012 0.0184609 0
-0.167624 0.00900719 0
-0.169635 -0.00154568 0
-0.169478 -0.0121244 0
-0.166517 -0.0227821 0
-0.160636 -0.0328862 0
-0.151883 -0.0417826 0
-0.140463 -0.0488527 0
-0.126753 -0.0535751 0
-0.111292 -0.0555886 0
-0.0947685 -0.0547486 0
-0.0779711 -0.0511667 0
-0.0617266 -0.0452183 0
-0.0526382 -0.0375146 0
-0.0455591 -0.0288521 0
-0.0346975 -0.0210398 0
-0.0255593 -0.0137721 0
-0.0180882 -0.00705274 0
-0.0122111 -0.00104578 0
-0.00778333 0.0040539 0
-0.00460455 0.00808101 0
-0.00244925 0.0109195 0
-0.00109263 0.012505 0
-0.000327708 0.0128222 0
2.63206e-05 0.0119003 0
0.000122272 0.00980766 0
8.7152e-05 0.00664476 0
2.55968e-05 0.00253504 0
-0.000235741 0.000337104 0
-0.00117679 0.00168685 0
-0.00307048 0.00364564 0
-0.0059331 0.00612789 0
-0.00976213 0.00905607 0
-0.0145428 0.012365 0
-0.0202561 0.0160016 0
-0.0268863 0.0199197 0
-0.0344237 0.0240694 0
-0.0428623 0.0283838 0
-0.0521894 0.0327641 0
-0.0567479 0.0370649 0
-0.0620832 0.0410621 0
-0.0738005 0.0448466 0
-0.0862835 0.0480993 0
-0.0994216 0.0505215 0
-0.113005 0.0518227 0
-0.126744 0.0517201 0
-0.140281 0.0499545 0
-0.153216 0.0463181 0
-0.165125 0.0406854 0
-0.17558 0.0330376 0
-0.184161 0.0234785 0
-0.18938 0.0122407 0
-0.191942 -0.000319886 0
-0.192748 -0.0128738 0
-0.190575 -0.0256847 0
-0.185245 -0.0380148 0
-0.176737 -0.0491263 0
-0.165186 -0.0582987 0
-0.1509 -0.0648913 0
-0.134372 -0.0684112 0
-0.116283 -0.0685833 0
-0.0974658 -0.0654075 0
-0.0788472 -0.0591867 0
-0.0684604 -0.0505124 0
-0.060068 -0.0402404 0
-0.0466843 -0.0312233 0
-0.0351511 -0.0226717 0
-0.0255304 -0.014562 0
-0.0178097 -0.0071436 0
-0.0118578 -0.000699086 0
-0.00746075 0.0045427 0
-0.00436453 0.00842848 0
-0.0023084 0.010878 0
-0.00104622 0.0118742 0
-0.000357773 0.0114523 0
-5.30555e-05 0.00968968 0
2.75649e-05 0.00669549 0
1.49725e-05 0.00260135 0
-0.000284856 0.0012309 0
-0.00141166 0.00418948 0
-0.00365889 0.00760377 0
-0.00702686 0.0113728 0
-0.0114952 0.0154178 0
-0.017031 0.0196858 0
-0.023598 0.0241467 0
-0.0311649 0.0287819 0
-0.0397089 0.0335663 0
-0.0492131 0.0384478 0
-0.0596567 0.0433269 0
-0.0647568 0.0480412 0
-0.0706826 0.052337 0
-0.0836551 0.056465 0
-0.097417 0.059995 0
-0.11184 0.0625496 0
-0.1267 0.0637823 0
-0.141698 0.0633719 0
-0.156478 0.0610362 0
-0.170643 0.0565585 0
-0.183777 0.0498144 0
-0.195462 0.040793 0
-0.205284 0.0296074 0
-0.211118 0.0164948 0
-0.21431 0.00181767 0
-0.21633 -0.0128953 0
-0.215227 -0.0280868 0
-0.210774 -0.0429156 0
-0.202885 -0.056574 0
-0.191607 -0.0682451 0
-0.177151 -0.0771643 0
-0.159926 -0.0826891 0
-0.140559 -0.0843791 0
-0.119878 -0.082073 0
-0.0988785 -0.0759428 0
-0.0872276 -0.0665041 0
-0.0773907 -0.0546308 0
-0.0610399 -0.0444173 0
-0.0466644 -0.0344135 0
-0.0344903 -0.0246328 0
-0.0245769 -0.0154678 0
-0.0168085 -0.00732626 0
-0.0109549 -0.000524302 0
-0.00672845 0.0047323 0
-0.00382586 0.00833742 0
-0.00195502 0.0102663 0
-0.000850585 0.0105573 0
-0.000281001 0.00929655 0
-5.06128e-05 0.00660507 0
9.94695e-07 0.00262822 0
-0.000335191 0.00233781 0
-0.00165151 0.00725567 0
-0.00425728 0.0124119 0
-0.00813402 0.0176934 0
-0.0132405 0.0230262 0
-0.019523 0.0283784 0
-0.0269264 0.033752 0
-0.0354032 0.0391648 0
-0.0449177 0.0446243 0
-0.0554433 0.0500995 0
-0.0669532 0.0554955 0
-0.0725676 0.0606379 0
-0.0790547 0.0652507 0
-0.0932213 0.0697225 0
-0.108193 0.0735113 0
-0.123822 0.0761641 0
-0.139877 0.0772824 0
-0.156053 0.0765111 0
-0.171997 0.0735494 0
-0.187321 0.0681742 0
-0.201621 0.0602644 0
-0.214491 0.0498173 0
-0.225538 0.0369555 0
-0.231936 0.0219207 0
-0.23578 0.0050858 0
-0.239178 -0.0119596 0
-0.239362 -0.0297191 0
-0.236091 -0.0472755 0
-0.229218 -0.0637745 0
-0.218691 -0.0783213 0
-0.204601 -0.0900367 0
-0.187227 -0.0981219 0
-0.167077 -0.101944 0
-0.144913 -0.10113 0
-0.121729 -0.0956529 0
-0.10899 -0.0858736 0
-0.097638 -0.0726089 0
-0.0778979 -0.0612642 0
-0.0602502 -0.0496211 0
-0.04512 -0.0378446 0
-0.0326486 -0.0265399 0
-0.0227441 -0.0162824 0
-0.0151653 -0.00750439 0
-0.00959133 -0.000484478 0
-0.00567277 0.00463228 0
-0.00306622 0.00780593 0
-0.00145522 0.0090751 0
-0.00056098 0.00853535 0
-0.000146363 0.00632263 0
-1.59845e-05 0.00260093 0
-0.000384329 0.00367016 0
-0.00188503 0.0109149 0
-0.00483816 0.0181097 0
-0.00920521 0.0251328 0
-0.0149229 0.0319227 0
-0.0219158 0.0384782 0
-0.0301089 0.0448446 0
-0.0394385 0.0510868 0
-0.0498562 0.057254 0
-0.0613269 0.0633431 0
-0.0738186 0.0692696 0
-0.0799053 0.0748525 0
-0.0869056 0.0798003 0
-0.10216 0.0846074 0
-0.118222 0.0886264 0
-0.134928 0.0913344 0
-0.152035 0.0922866 0
-0.169239 0.0910983 0
-0.186188 0.0874537 0
-0.202503 0.0811267 0
-0.217796 0.0720023 0
-0.23168 0.0600903 0
-0.243793 0.045528 0
-0.250634 0.0285711 0
-0.255079 0.00961395 0
-0.259876 -0.00990288 0
-0.26146 -0.0303413 0
-0.259613 -0.0507677 0
-0.254136 -0.0703135 0
-0.244883 -0.088039 0
-0.231802 -0.102977 0
-0.215001 -0.114186 0
-0.194806 -0.120829 0
-0.17182 -0.122283 0
-0.146944 -0.11825 0
-0.133493 -0.108845 0
-0.120677 -0.0947136 0
-0.0972595 -0.082365 0
-0.0760149 -0.0689072 0
-0.0575785 -0.0548031 0
-0.042192 -0.040934 0
-0.0298129 -0.028087 0
-0.0202092 -0.0168481 0
-0.0130373 -0.00759717 0
-0.00790414 -0.000537741 0
-0.00441225 0.00426369 0
-0.00218856 0.00684107 0
-0.000900349 0.00729907 0
-0.000262043 0.00579105 0
-3.63597e-05 0.00250345 0
-0.000429474 0.0052293 0
-0.00209926 0.0151689 0
-0.00537026 0.0246967 0
-0.0101847 0.0336861 0
-0.0164581 0.0420958 0
-0.0240938 0.0499659 0
-0.0329975 0.0573965 0
-0.0430893 0.0645109 0
-0.0543087 0.0714096 0
-0.066612 0.0781252 0
-0.0799626 0.0845897 0
-0.086463 0.0906205 0
-0.0939066 0.0959163 0
-0.110089 0.101038 0
-0.127063 0.105244 0
-0.144648 0.107951 0
-0.162591 0.108673 0
-0.180584 0.106999 0
-0.198278 0.102603 0
-0.2153 0.0952594 0
-0.231279 0.0848661 0
-0.245858 0.0714543 0
-0.258721 0.0551891 0
-0.265815 0.0363558 0
-0.270723 0.0153856 0
-0.276764 -0.0066717 0
-0.279721 -0.0297864 0
-0.279428 -0.0530963 0
-0.275657 -0.0757543 0
-0.268179 -0.0968246 0
-0.256797 -0.115298 0
-0.241418 -0.130125 0
-0.222128 -0.140283 0
-0.199285 -0.144882 0
-0.173576 -0.143303 0
-0.160018 -0.135321 0
-0.145983 -0.121266 0
-0.118901 -0.108126 0
-0.0939611 -0.0927728 0
-0.071994 -0.0760817 0
-0.0533842 -0.0592477 0
-0.0381929 -0.0433159 0
-0.0262399 -0.0290752 0
-0.0171853 -0.01705 0
-0.0106044 -0.00753375 0
-0.006048 -0.000638703 0
-0.00308263 0.00365463 0
-0.00131507 0.00545699 0
-0.000403613 0.00494011 0
-6.13112e-05 0.00231571 0
-0.00046754 0.00700274 0
-0.00228005 0.0199846 0
-0.00581965 0.0321233 0
-0.0110125 0.0432902 0
-0.0177556 0.0534711 0
-0.0259336 0.0627569 0
-0.0354344 0.0713137 0
-0.0461628 0.0793338 0
-0.058046 0.0869788 0
-0.0710313 0.0943248 0
-0.0850764 0.101326 0
-0.0919146 0.107803 0
-0.0997077 0.113449 0
-0.116599 0.118845 0
-0.134242 0.123177 0
-0.152435 0.125807 0
-0.170914 0.126212 0
-0.189364 0.123962 0
-0.207434 0.118722 0
-0.224762 0.110276 0
-0.240993 0.0985455 0
-0.255814 0.0835978 0
-0.268967 0.0656438 0
-0.276071 0.0450179 0
-0.281223 0.0222004 0
-0.288174 -0.00235508 0
-0.292317 -0.0280056 0
-0.293556 -0.0540514 0
-0.291665 -0.0797046 0
-0.286357 -0.104091 0
-0.277309 -0.126222 0
-0.26422 -0.145 0
-0.246908 -0.159266 0
-0.225414 -0.167888 0
-0.200101 -0.169905 0
-0.187237 -0.164691 0
-0.172488 -0.152111 0
-0.142254 -0.138555 0
-0.113879 -0.121468 0
-0.0883752 -0.102129 0
-0.0663486 -0.0820456 0
-0.04805 -0.0625706 0
-0.0334214 -0.0447636 0
-0.0221742 -0.0293576 0
-0.0138792 -0.0167858 0
-0.0080461 -0.00723965 0
-0.00418201 -0.00073251 0
-0.00182839 0.00284423 0
-0.000580108 0.00367898 0
-9.26905e-05 0.0020105 0
-0.000495355 0.00896192 0
-0.0024129 0.0252894 0
-0.00615175 0.0402838 0
-0.0116274 0.053816 0
-0.0187239 0.0659033 0
-0.0273109 0.0766943 0
-0.0372614 0.0864296 0
-0.0484658 0.09538 0
-0.0608386 0.103776 0
-0.0743168 0.111745 0
-0.0888504 0.119269 0
-0.0959329 0.126176 0
-0.103958 0.132156 0
-0.12128 0.137765 0
-0.139282 0.142136 0
-0.157742 0.144585 0
-0.176381 0.14456 0
-0.194873 0.141611 0
-0.212865 0.135406 0
-0.230004 0.125747 0
-0.245967 0.112594 0
-0.260488 0.0960712 0
-0.273383 0.076455 0
-0.280226 0.0541458 0
-0.285351 0.0296777 0
-0.292742 0.00280833 0
-0.297739 -0.0250966 0
-0.300324 -0.0535613 0
-0.300302 -0.0818939 0
-0.297369 -0.109339 0
-0.291109 -0.134998 0
-0.281052 -0.157809 0
-0.266753 -0.176553 0
-0.247908 -0.189922 0
-0.224482 -0.196649 0
-0.213192 -0.195689 0
-0.198508 -0.186333 0