# vtk DataFile Version 2.0
Presion
ASCII

DATASET STRUCTURED_GRID
DIMENSIONS   50   50   20

POINTS   50000   double
0.00568455   0.00568455   0.025
0.0174023   0.00568455   0.025
0.0298294   0.00568455   0.025
0.0429888   0.00568455   0.025
0.0569012   0.00568455   0.025
0.0715849   0.00568455   0.025
0.0870549   0.00568455   0.025
0.103323   0.00568455   0.025
0.120395   0.00568455   0.025
0.138275   0.00568455   0.025
0.156961   0.00568455   0.025
0.176443   0.00568455   0.025
0.196707   0.00568455   0.025
0.217734   0.00568455   0.025
0.239496   0.00568455   0.025
0.261959   0.00568455   0.025
0.285082   0.00568455   0.025
0.308818   0.00568455   0.025
0.333113   0.00568455   0.025
0.357906   0.00568455   0.025
0.383132   0.00568455   0.025
0.408719   0.00568455   0.025
0.434592   0.00568455   0.025
0.460672   0.00568455   0.025
0.486877   0.00568455   0.025
0.513123   0.00568455   0.025
0.539328   0.00568455   0.025
0.565408   0.00568455   0.025
0.591281   0.00568455   0.025
0.616868   0.00568455   0.025
0.642094   0.00568455   0.025
0.666887   0.00568455   0.025
0.691182   0.00568455   0.025
0.714918   0.00568455   0.025
0.738041   0.00568455   0.025
0.760504   0.00568455   0.025
0.782266   0.00568455   0.025
0.803293   0.00568455   0.025
0.823557   0.00568455   0.025
0.843039   0.00568455   0.025
0.861725   0.00568455   0.025
0.879605   0.00568455   0.025
0.896677   0.00568455   0.025
0.912945   0.00568455   0.025
0.928415   0.00568455   0.025
0.943099   0.00568455   0.025
0.957011   0.00568455   0.025
0.970171   0.00568455   0.025
0.982598   0.00568455   0.025
0.994315   0.00568455   0.025
0.00568455   0.0174023   0.025
0.0174023   0.0174023   0.025
0.0298294   0.0174023   0.025
0.0429888   0.0174023   0.025
0.0569012   0.0174023   0.025
0.0715849   0.0174023   0.025
0.0870549   0.0174023   0.025
0.103323   0.0174023   0.025
0.120395   0.0174023   0.025
0.138275   0.0174023   0.025
0.156961   0.0174023   0.025
0.176443   0.0174023   0.025
0.196707   0.0174023   0.025
0.217734   0.0174023   0.025
0.239496   0.0174023   0.025
0.261959   0.0174023   0.025
0.285082   0.0174023   0.025
0.308818   0.0174023   0.025
0.333113   0.0174023   0.025
0.357906   0.0174023   0.025
0.383132   0.0174023   0.025
0.408719   0.0174023   0.025
0.434592   0.0174023   0.025
0.460672   0.0174023   0.025
0.486877   0.0174023   0.025
0.513123   0.0174023   0.025
0.539328   0.0174023   0.025
0.565408   0.0174023   0.025
0.591281   0.0174023   0.025
0.616868   0.0174023   0.025
0.642094   0.0174023   0.025
0.666887   0.0174023   0.025
0.691182   0.0174023   0.025
0.714918   0.0174023   0.025
0.738041   0.0174023   0.025
0.760504   0.0174023   0.025
0.782266   0.0174023   0.025
0.803293   0.0174023   0.025
0.823557   0.0174023   0.025
0.843039   0.0174023   0.025
0.861725   0.0174023   0.025
0.879605   0.0174023   0.025
0.896677   0.0174023   0.025
0.912945   0.0174023   0.025
0.928415   0.0174023   0.025
0.943099   0.0174023   0.025
0.957011   0.0174023   0.025
0.970171   0.0174023   0.025
0.982598   0.0174023   0.025
0.994315   0.0174023   0.025
0.00568455   0.0298294   0.025
0.0174023   0.0298294   0.025
0.0298294   0.0298294   0.025
0.0429888   0.0298294   0.025
0.0569012   0.0298294   0.025
0.0715849   0.0298294   0.025
0.0870549   0.0298294   0.025
0.103323   0.0298294   0.025
0.120395   0.0298294   0.025
0.138275   0.0298294   0.025
0.156961   0.0298294   0.025
0.176443   0.0298294   0.025
0.196707   0.0298294   0.025
0.217734   0.0298294   0.025
0.239496   0.0298294   0.025
0.261959   0.0298294   0.025
0.285082   0.0298294   0.025
0.308818   0.0298294   0.025
0.333113   0.0298294   0.025
0.357906   0.0298294   0.025
0.383132   0.0298294   0.025
0.408719   0.0298294   0.025
0.434592   0.0298294   0.025
0.460672   0.0298294   0.025
0.486877   0.0298294   0.025
0.513123   0.0298294   0.025
0.539328   0.0298294   0.025
0.565408   0.0298294   0.025
0.591281   0.0298294   0.025
0.616868   0.0298294   0.025
0.642094   0.0298294   0.025
0.666887   0.0298294   0.025
0.691182   0.0298294   0.025
0.714918   0.0298294   0.025
0.738041   0.0298294   0.025
0.760504   0.0298294   0.025
0.782266   0.0298294   0.025
0.803293   0.0298294   0.025
0.823557   0.0298294   0.025
0.843039   0.0298294   0.025
0.861725   0.0298294   0.025
0.879605   0.0298294   0.025
0.896677   0.0298294   0.025
0.912945   0.0298294   0.025
0.928415   0.0298294   0.025
0.943099   0.0298294   0.025
0.957011   0.0298294   0.025
0.970171   0.0298294   0.025
0.982598   0.0298294   0.025
0.994315   0.0298294   0.025
0.00568455   0.0429888   0.025
0.0174023   0.0429888   0.025
0.0298294   0.0429888   0.025
0.0429888   0.0429888   0.025
0.0569012   0.0429888   0.025
0.0715849   0.0429888   0.025
0.0870549   0.0429888   0.025
0.103323   0.0429888   0.025
0.120395   0.0429888   0.025
0.138275   0.0429888   0.025
0.156961   0.0429888   0.025
0.176443   0.0429888   0.025
0.196707   0.0429888   0.025
0.217734   0.0429888   0.025
0.239496   0.0429888   0.025
0.261959   0.0429888   0.025
0.285082   0.0429888   0.025
0.308818   0.0429888   0.025
0.333113   0.0429888   0.025
0.357906   0.0429888   0.025
0.383132   0.0429888   0.025
0.408719   0.0429888   0.025
0.434592   0.0429888   0.025
0.460672   0.0429888   0.025
0.486877   0.0429888   0.025
0.513123   0.0429888   0.025
0.539328   0.0429888   0.025
0.565408   0.0429888   0.025
0.591281   0.0429888   0.025
0.616868   0.0429888   0.025
0.642094   0.0429888   0.025
0.666887   0.0429888   0.025
0.691182   0.0429888   0.025
0.714918   0.0429888   0.025
0.738041   0.0429888   0.025
0.760504   0.0429888   0.025
0.782266   0.0429888   0.025
0.803293   0.0429888   0.025
0.823557   0.0429888   0.025
0.843039   0.0429888   0.025
0.861725   0.0429888   0.025
0.879605   0.0429888   0.025
0.896677   0.0429888   0.025
0.912945   0.0429888   0.025
0.928415   0.0429888   0.025
0.943099   0.0429888   0.025
0.957011   0.0429888   0.025
0.970171   0.0429888   0.025
0.982598   0.0429888   0.025
0.994315   0.0429888   0.025
0.00568455   0.0569012   0.025
0.0174023   0.0569012   0.025
0.0298294   0.0569012   0.025
0.0429888   0.0569012   0.025
0.0569012   0.0569012   0.025
0.0715849   0.0569012   0.025
0.0870549   0.0569012   0.025
0.103323   0.0569012   0.025
0.120395   0.0569012   0.025
0.138275   0.0569012   0.025
0.156961   0.0569012   0.025
0.176443   0.0569012   0.025
0.196707   0.0569012   0.025
0.217734   0.0569012   0.025
0.239496   0.0569012   0.025
0.261959   0.0569012   0.025
0.285082   0.0569012   0.025
0.308818   0.0569012   0.025
0.333113   0.0569012   0.025
0.357906   0.0569012   0.025
0.383132   0.0569012   0.025
0.408719   0.0569012   0.025
0.434592   0.0569012   0.025
0.460672   0.0569012   0.025
0.486877   0.0569012   0.025
0.513123   0.0569012   0.025
0.539328   0.0569012   0.025
0.565408   0.0569012   0.025
0.591281   0.0569012   0.025
0.616868   0.0569012   0.025
0.642094   0.0569012   0.025
0.666887   0.0569012   0.025
0.691182   0.0569012   0.025
0.714918   0.0569012   0.025
0.738041   0.0569012   0.025
0.760504   0.0569012   0.025
0.782266   0.0569012   0.025
0.803293   0.0569012   0.025
0.823557   0.0569012   0.025
0.843039   0.0569012   0.025
0.861725   0.0569012   0.025
0.879605   0.0569012   0.025
0.896677   0.0569012   0.025
0.912945   0.0569012   0.025
0.928415   0.0569012   0.025
0.943099   0.0569012   0.025
0.957011   0.0569012   0.025
0.970171   0.0569012   0.025
0.982598   0.0569012   0.025
0.994315   0.0569012   0.025
0.00568455   0.0715849   0.025
0.0174023   0.0715849   0.025
0.0298294   0.0715849   0.025
0.0429888   0.0715849   0.025
0.0569012   0.0715849   0.025
0.0715849   0.0715849   0.025
0.0870549   0.0715849   0.025
0.103323   0.0715849   0.025
0.120395   0.0715849   0.025
0.138275   0.0715849   0.025
0.156961   0.0715849   0.025
0.176443   0.0715849   0.025
0.196707   0.0715849   0.025
0.217734   0.0715849   0.025
0.239496   0.0715849   0.025
0.261959   0.0715849   0.025
0.285082   0.0715849   0.025
0.308818   0.0715849   0.025
0.333113   0.0715849   0.025
0.357906   0.0715849   0.025
0.383132   0.0715849   0.025
0.408719   0.0715849   0.025
0.434592   0.0715849   0.025
0.460672   0.0715849   0.025
0.486877   0.0715849   0.025
0.513123   0.0715849   0.025
0.539328   0.0715849   0.025
0.565408   0.0715849   0.025
0.591281   0.0715849   0.025
0.616868   0.0715849   0.025
0.642094   0.0715849   0.025
0.666887   0.0715849   0.025
0.691182   0.0715849   0.025
0.714918   0.0715849   0.025
0.738041   0.0715849   0.025
0.760504   0.0715849   0.025
0.782266   0.0715849   0.025
0.803293   0.0715849   0.025
0.823557   0.0715849   0.025
0.843039   0.0715849   0.025
0.861725   0.0715849   0.025
0.879605   0.0715849   0.025
0.896677   0.0715849   0.025
0.912945   0.0715849   0.025
0.928415   0.0715849   0.025
0.943099   0.0715849   0.025
0.957011   0.0715849   0.025
0.970171   0.0715849   0.025
0.982598   0.0715849   0.025
0.994315   0.0715849   0.025
0.00568455   0.0870549   0.025
0.0174023   0.0870549   0.025
0.0298294   0.0870549   0.025
0.0429888   0.0870549   0.025
0.0569012   0.0870549   0.025
0.0715849   0.0870549   0.025
0.0870549   0.0870549   0.025
0.103323   0.0870549   0.025
0.120395   0.0870549   0.025
0.138275   0.0870549   0.025
0.156961   0.0870549   0.025
0.176443   0.0870549   0.025
0.196707   0.0870549   0.025
0.217734   0.0870549   0.025
0.239496   0.0870549   0.025
0.261959   0.0870549   0.025
0.285082   0.0870549   0.025
0.308818   0.0870549   0.025
0.333113   0.0870549   0.025
0.357906   0.0870549   0.025
0.383132   0.0870549   0.025
0.408719   0.0870549   0.025
0.434592   0.0870549   0.025
0.460672   0.0870549   0.025
0.486877   0.0870549   0.025
0.513123   0.0870549   0.025
0.539328   0.0870549   0.025
0.565408   0.0870549   0.025
0.591281   0.0870549   0.025
0.616868   0.0870549   0.025
0.642094   0.0870549   0.025
0.666887   0.0870549   0.025
0.691182   0.0870549   0.025
0.714918   0.0870549   0.025
0.738041   0.0870549   0.025
0.760504   0.0870549   0.025
0.782266   0.0870549   0.025
[...]
POINT_DATA   50000
SCALARS Presion double
LOOKUP_TABLE   Presion

0 0 0 0 0 0 0 0 0 0 0 0 0 0 0 0 0 0 0 0 0 0 0 0 0 0 0 0 0 0 0 0 0 0 0 0 0 0 0 0 0 0 0 0 0 0 0 0 0 0 0.00156266 0.00170052 0.00186662 0.00198632 0.00204629 0.00204789 0.00199566 0.00189452 0.00174903 0.00156306 0.0013395 0.00107956 0.000645436 0.000385905 0.000155685 -4.36836e-05 -0.000207802 -0.000329113 -0.000398638 -0.000408226 -0.000352858 -0.000232582 -5.34832e-05 0.000172525 0.000412351 0.000649474 0.000852629 0.000996068 0.00105922 0.0010288 0.000900334 0.00067891 0.000378832 2.25164e-05 -0.000361351 -0.000739177 -0.000981239 -0.00133317 -0.00166119 -0.0019481 -0.00218353 -0.00236182 -0.00248002 -0.00253673 -0.00253119 -0.00246297 -0.00233218 -0.00214229 -0.00191321 -0.00173497 0.00205344 0.00204222 0.00208819 0.00213498 0.00215486 0.00213655 0.00207674 0.0019758 0.00183578 0.00165962 0.00145119 0.00121396 0.000720459 0.000486189 0.000269067 7.5543e-05 -8.7777e-05 -0.000212692 -0.000290273 -0.000312619 -0.000274859 -0.000176923 -2.4531e-05 0.000169332 0.000382603 0.000589726 0.000764953 0.00088394 0.000927283 0.000882525 0.000745675 0.000521815 0.000224648 -0.000124978 -0.000501638 -0.000876164 -0.00104873 -0.00139797 -0.0017156 -0.00199029 -0.0022148 -0.00238538 -0.00250068 -0.00256115 -0.00256882 -0.00252789 -0.00244661 -0.00234188 -0.00224889 -0.00223523 0.00238743 0.00233938 0.00232454 0.00231847 0.00230112 0.00225986 0.00218811 0.00208332 0.00194554 0.00177672 0.00158086 0.00136075 0.000799382 0.000586449 0.000381079 0.000191691 2.63472e-05 -0.000106101 -0.000196501 -0.000236779 -0.000221681 -0.000150432 -2.79379e-05 0.000131701 0.000322787 0.000505624 0.000660024 0.000762562 0.000793969 0.000741426 0.000600343 0.000375108 7.85998e-05 -0.000269588 -0.000646194 -0.00102345 -0.00112233 -0.00147388 -0.0017866 -0.00205369 -0.00227122 -0.00243773 -0.00255376 -0.00262164 -0.00264563 -0.00263265 -0.00259374 -0.00254618 -0.00251519 -0.00253091 0.00266601 0.00260836 0.0025633 0.00252268 0.00247565 0.0024128 0.00232761 0.00221645 0.00207819 0.00191387 0.00172714 0.00151891 0.00088436 0.000687009 0.000489529 0.000300498 0.000128578 -1.69185e-05 -0.000126427 -0.000191268 -0.000205194 -0.000166014 -7.70874e-05 4.70553e-05 0.000217872 0.000382238 0.000523161 0.000617824 0.000646173 0.000593873 0.000454619 0.00023126 -6.45642e-05 -0.000414362 -0.000796111 -0.00118146 -0.00120619 -0.00156413 -0.00187639 -0.00214003 -0.00235434 -0.00252017 -0.00263987 -0.00271719 -0.00275757 -0.00276845 -0.0027598 -0.00274417 -0.0027354 -0.00274433 0.00293531 0.00286941 0.00280538 0.00274108 0.00267124 0.00258979 0.00249148 0.0023727 0.0022317 0.00206883 0.00188711 0.00168502 0.000974662 0.00078569 0.000589812 0.000394899 0.000209532 4.325e-05 -9.38215e-05 -0.000191945 -0.00024319 -0.000243109 -0.000192534 -0.000105352 4.54993e-05 0.00019654 0.000331291 0.000427317 0.00046293 0.00042113 0.000292667 7.77685e-05 -0.000213889 -0.000565071 -0.000954414 -0.00135154 -0.00130501 -0.0016722 -0.00198716 -0.00225072 -0.00246513 -0.00263331 -0.00275896 -0.00284666 -0.00290199 -0.00293155 -0.00294284 -0.00294373 -0.00294105 -0.00293835 0.00321357 0.00313438 0.00305341 0.00297021 0.00288199 0.00278473 0.00267431 0.0025473 0.0024016 0.0022369 0.00205534 0.00185273 0.00106624 0.000876852 0.000673777 0.000463876 0.00025524 5.74643e-05 -0.000118592 -0.000261642 -0.00036132 -0.000409962 -0.000404706 -0.000357525 -0.000226269 -8.51827e-05 5.0206e-05 0.000157565 0.000212754 0.0001949 9.03794e-05 -0.000104641 -0.000383612 -0.000731182 -0.00112654 -0.00153635 -0.00142483 -0.00180198 -0.00212099 -0.00238671 -0.00260397 -0.0027772 -0.00291082 -0.00300955 -0.00307846 -0.00312279 -0.00314775 -0.00315805 -0.00315715 -0.0031465 0.00350441 0.00340615 0.00330668 0.00320574 0.00310131 0.00299013 0.00286844 0.0027327 0.00258025 0.00240992 0.00222278 0.00201176 0.00115072 0.000950192 0.000728352 0.000491036 0.000245667 1.86313e-06 -0.000228546 -0.000432178 -0.000595417 -0.000706344 -0.000757117 -0.000756421 -0.000641957 -0.000510686 -0.00036905 -0.000239721 -0.000150114 -0.000126278 -0.000187936 -0.00034489 -0.000595489 -0.000927535 -0.00132128 -0.00174006 -0.00157414 -0.00195824 -0.00227992 -0.00254851 -0.00277075 -0.00295159 -0.00309538 -0.00320633 -0.00328858 -0.00334604 -0.00338226 -0.00340017 -0.00340188 -0.00338857 0.00380216 0.00367972 0.00355915 0.00343996 0.00331998 0.00319574 0.00306304 0.00291762 0.00275584 0.00257529 0.00237562 0.00214674 0.00121407 0.000989307 0.000733988 0.000452979 0.000153023 -0.00015614 -0.000461372 -0.000746588 -0.000994064 -0.00118654 -0.00130985 -0.00136793 -0.00126244 -0.00114587 -0.000994658 -0.000832443 -0.000690701 -0.000602062 -0.000594398 -0.000685964 -0.000882543 -0.00117721 -0.00155264 -0.00196922 -0.00176553 -0.00214745 -0.00246648 -0.00273661 -0.00296516 -0.00315625 -0.00331302 -0.00343846 -0.00353547 -0.00360677 -0.00365477 -0.00368153 -0.00368874 -0.00367782 0.00409355 0.00394277 0.00379856 0.00366002 0.0035243 0.00338702 0.0032428 0.00308599 0.00291135 0.00271477 0.00249401 0.00223589 0.00123505 0.000970135 0.000663016 0.000317593 -6.00034e-05 -0.000459693 -0.000866607 -0.0012613 -0.00162102 -0.00192207 -0.00214267 -0.00228032 -0.00216919 -0.00207923 -0.00191893 -0.00171355 -0.00149926 -0.00131665 -0.00120403 -0.00119119 -0.00129476 -0.00151627 -0.00184325 -0.00223487 -0.00201856 -0.00237967 -0.00268497 -0.00295235 -0.00318748 -0.00339152 -0.00356489 -0.00370841 -0.00382337 -0.00391126 -0.00397369 -0.00401225 -0.0040286 -0.00402452 0.00435784 0.0041756 0.00400573 0.00384676 0.00369476 0.0035438 0.00338667 0.00321568 0.00302339 0.00280337 0.00255097 0.00224989 0.00118368 0.000859481 0.000478152 4.25454e-05 -0.000441737 -0.000963997 -0.00150714 -0.00204763 -0.00255679 -0.00300329 -0.00335655 -0.00360561 -0.00346806 -0.0034255 -0.00326236 -0.00300585 -0.00269698 -0.00238544 -0.00212227 -0.0019522 -0.00190695 -0.00200096 -0.00223044 -0.00255699 -0.0023645 -0.0026719 -0.00294407 -0.00320008 -0.00344011 -0.0036594 -0.00385357 -0.00402 -0.00415765 -0.00426658 -0.00434758 -0.00440195 -0.0044314 -0.00443804 0.00456652 0.00435083 0.00415405 0.00397389 0.0038049 0.00363908 0.00346678 0.00327759 0.00306126 0.00280847 0.00251157 0.00215109 0.00102017 0.000613963 0.00013152 -0.000425592 -0.00105225 -0.00173683 -0.00245947 -0.00319175 -0.00389802 -0.00453821 -0.00507172 -0.00547658 -0.00529065 -0.00532619 -0.00517424 -0.00486332 -0.00443875 -0.00395963 -0.00349143 -0.00309711 -0.00282821 -0.0027176 -0.00277566 -0.00297299 -0.00285349 -0.00305396 -0.00326161 -0.00349063 -0.00373015 -0.00396538 -0.00418437 -0.00437921 -0.00454547 -0.00468115 -0.004786 -0.00486091 -0.00490763 -0.00492855 0.00468311 0.0044333 0.00420926 0.0040076 0.0038209 0.00363854 0.00344781 0.00323503 0.00298654 0.00268952 0.00233267 0.00189339 0.000694533 0.000179866 -0.000435273 -0.00115097 -0.00196258 -0.00285723 -0.00381162 -0.00479158 -0.00575333 -0.00664671 -0.00741991 -0.00803668 -0.00778989 -0.00794346 -0.00782587 -0.00746489 -0.00690845 -0.00622407 -0.00549195 -0.0047955 -0.00421038 -0.00379396 -0.00357772 -0.00355178 -0.00356415 -0.0035771 -0.00367161 -0.00384675 -0.00407323 -0.00432109 -0.00456709 -0.00479549 -0.00499671 -0.00516568 -0.0053005 -0.00540135 -0.00546984 -0.00550858 0.00466366 0.00438056 0.00412996 0.00390702 0.00370186 0.00350074 0.00328735 0.00304417 0.00275357 0.00239865 0.00196384 0.00142331 0.000147603 -0.0005055 -0.00128933 -0.00220608 -0.00325156 -0.00441121 -0.00565756 -0.00694948 -0.00823363 -0.00944822 -0.0105289 -0.0114211 -0.0111257 -0.0114431 -0.0113918 -0.0109953 -0.0103012 -0.00938254 -0.00833226 -0.0072541 -0.00625029 -0.00540809 -0.00478776 -0.00441379 -0.00461319 -0.00432443 -0.00423313 -0.00430964 -0.00449814 -0.00474745 -0.00501827 -0.00528331 -0.00552526 -0.0057343 -0.00590578 -0.00603859 -0.00613393 -0.00619448 0.00445823 0.00414436 0.00386903 0.00362556 0.00340121 0.00317858 0.00293731 0.00265556 0.00231121 0.00188271 0.0013496 0.00068264 -0.000686001 -0.00151029 -0.00250224 -0.00366654 -0.00499933 -0.00648373 -0.00808695 -0.00975939 -0.0114363 -0.0130424 -0.014499 -0.0157294 -0.0154376 -0.0159639 -0.0160166 -0.0156105 -0.0147888 -0.0136252 -0.0122206 -0.0106954 -0.00917754 -0.00778689 -0.00661935 -0.00575205 -0.00615899 -0.00541884 -0.00503783 -0.00494508 -0.00505132 -0.00527784 -0.00556323 -0.00586361 -0.00615011 -0.00640542 -0.00662051 -0.00679198 -0.00692006 -0.0070073 0.00401369 0.00367345 0.00337642 0.00311376 0.00286945 0.0026221 0.00234688 0.00201724 0.00160616 0.00108694 0.000433633 -0.000386824 -0.00187244 -0.00290194 -0.00414292 -0.00560272 -0.00727731 -0.00914649 -0.0111705 -0.0132893 -0.0154244 -0.0174848 -0.0193756 -0.0209949 -0.0208046 -0.0215756 -0.0217701 -0.0213901 -0.02047 -0.0190781 -0.0173161 -0.0153139 -0.013219 -0.0111826 -0.00934007 -0.00783989 -0.0083894 -0.00702123 -0.00621214 -0.0058468 -0.00580017 -0.00596062 -0.00623789 -0.00656495 -0.00689596 -0.00720222 -0.00746769 -0.0076851 -0.00785288 -0.00797303 0.00327801 0.00291771 0.00260324 0.00232332 0.00205839 0.0017828 0.00146702 0.00107951 0.000588045 -3.96052e-05 -0.000835344 -0.00183663 -0.00347061 -0.00473835 -0.00626769 -0.00806831 -0.0101351 -0.0124428 -0.0149426 -0.0175613 -0.0202044 -0.0227627 -0.0251235 -0.0271589 -0.0272026 -0.0282368 -0.0286032 -0.0282897 -0.0273181 -0.025746 -0.0236678 -0.0212124 -0.0185375 -0.0158179 -0.0132278 -0.0110005 -0.0114862 -0.00931178 -0.00790958 -0.00713514 -0.00683421 -0.00686086 -0.00709004 -0.00742417 -0.0077935 -0.00815248 -0.00847427 -0.00874529 -0.00896084 -0.0091217 0.00220582 0.00183359 0.00150715 0.00121254 0.000926575 0.000619245 0.000256242 -0.000199035 -0.000784182 -0.00153717 -0.0024961 -0.00370348 -0.00552213 -0.00705712 -0.00890856 -0.0110876 -0.0135863 -0.0163723 -0.0193848 -0.0225348 -0.0257092 -0.0287794 -0.0316139 -0.0340618 -0.0344751 -0.0357687 -0.036323 -0.0361132 -0.0351476 -0.03347 -0.0311609 -0.0283381 -0.0251568 -0.0218036 -0.0184845 -0.0155183 -0.0155725 -0.0124547 -0.0102923 -0.00894962 -0.00826348 -0.00806082 -0.00818013 -0.00848671 -0.0088791 -0.00928786 -0.00967003 -0.0100023 -0.0102746 -0.0104855 0.000764667 0.000390222 5.83456e-05 -0.000247637 -0.000554546 -0.000896622 -0.00131282 -0.00184472 -0.00253518 -0.00342789 -0.00456709 -0.00600083 -0.00804086 -0.00986467 -0.012062 -0.0146436 -0.017597 -0.0208795 -0.0244157 -0.0280983 -0.031794 -0.0353545 -0.0386306 -0.0414548 -0.0423368 -0.0438651 -0.0446053 -0.0445249 -0.0436214 -0.0419254 -0.0395005 -0.0364463 -0.0329036 -0.0290566 -0.0251291 -0.0215073 -0.0206664 -0.0165565 -0.0135033 -0.0114339 -0.0102119 -0.00965785 -0.0095808 -0.00980635 -0.0101941 -0.0106425 -0.0110858 -0.0114858 -0.0118243 -0.0120959 -0.00105879 -0.00142461 -0.00175448 -0.00206775 -0.00239466 -0.0027734 -0.00324725 -0.0038624 -0.00466668 -0.00570911 -0.00703963 -0.00871194 -0.0110042 -0.0131278 -0.0156806 -0.0186713 -0.0220797 -0.0258506 -0.0298914 -0.0340747 -0.0382469 -0.0422418 -0.0458961 -0.0490342 -0.0504169 -0.0521397 -0.0530468 -0.0531043 -0.0523055 -0.0506714 -0.0482504 -0.0451216 -0.0414035 -0.0372638 -0.0329256 -0.028804 -0.0266644 -0.0216318 -0.0176335 -0.0147113 -0.0128027 -0.0117571 -0.0113735 -0.0114432 -0.0117828 -0.0122509 -0.0127507 -0.0132228 -0.0136366 -0.0139802 -0.0032539 -0.00359977 -0.00391957 -0.00423521 -0.00457999 -0.0049956 -0.00552912 -0.0062308 -0.00715284 -0.00834891 -0.00987375 -0.0117863 -0.0143491 -0.0167704 -0.0196717 -0.0230573 -0.0268969 -0.0311208 -0.0356175 -0.0402398 -0.0448152 -0.049163 -0.0531109 -0.0564852 -0.0583287 -0.0601986 -0.0612409 -0.0614274 -0.0607539 -0.0592387 -0.0569194 -0.0538573 -0.0501461 -0.0459264 -0.0414009 -0.0369635 -0.0333556 -0.0275835 -0.0226871 -0.0188523 -0.0161344 -0.0144561 -0.0136394 -0.0134582 -0.0136887 -0.0141442 -0.0146882 -0.015233 -0.0157296 -0.0161564 -0.00578359 -0.00609839 -0.00639982 -0.00671209 -0.00707113 -0.00752156 -0.00811358 -0.00890078 -0.00993888 -0.0112852 -0.012998 -0.0151404 -0.0179735 -0.0206763 -0.0239019 -0.0276478 -0.0318727 -0.0364905 -0.0413716 -0.0463499 -0.0512378 -0.0558446 -0.0599949 -0.0635243 -0.0657383 -0.0677076 -0.0688473 -0.0691401 -0.0685905 -0.0672194 -0.0650608 -0.0621632 -0.0585982 -0.0544747 -0.0499586 -0.0453772 -0.0404526 -0.0342006 -0.0285554 -0.023839 -0.0202484 -0.0178211 -0.0164442 -0.0159032 -0.0159472 -0.016344 -0.016911 -0.0175234 -0.0181076 -0.0186278 -0.00858511 -0.00885874 -0.00913368 -0.00943614 -0.00980422 -0.0102848 -0.0109305 -0.0117973 -0.0129435 -0.0144289 -0.0163139 -0.0186636 -0.0217447 -0.0246994 -0.0282092 -0.0322642 -0.0368106 -0.0417473 -0.0469275 -0.05217 -0.0572757 -0.062049 -0.0663166 -0.0699282 -0.0724051 -0.0744314 -0.0756313 -0.076001 -0.0755565 -0.074326 -0.072345 -0.0696562 -0.0663145 -0.0623989 -0.0580308 -0.0534452 -0.0476216 -0.0411738 -0.0350084 -0.0295391 -0.0250969 -0.021858 -0.0198153 -0.0188054 -0.018575 -0.0188546 -0.019413 -0.0200815 -0.0207541 -0.0213759 -0.0115744 -0.0117985 -0.0120395 -0.0123252 -0.0126955 -0.0131989 -0.0138895 -0.0148251 -0.0160653 -0.017671 -0.0197034 -0.0222278 -0.0255121 -0.0286773 -0.0324193 -0.0367198 -0.0415141 -0.0466873 -0.0520789 -0.057496 -0.0627328 -0.0675928 -0.0719084 -0.0755445 -0.0781888 -0.0802378 -0.0814663 -0.0818834 -0.0815166 -0.0804032 -0.078584 -0.0761014 -0.0730011 -0.0693386 -0.0651933 -0.0607075 -0.0545167 -0.0481322 -0.0417143 -0.0357027 -0.0305225 -0.0264857 -0.0237186 -0.0221492 -0.0215562 -0.0216524 -0.022162 -0.0228678 -0.0236248 -0.0243534 -0.0146533 -0.0148218 -0.0150225 -0.0152846 -0.015649 -0.0161652 -0.0168886 -0.0178773 -0.0191917 -0.0208926 -0.0230405 -0.0256986 -0.0291215 -0.0324475 -0.0363615 -0.0408383 -0.0458036 -0.0511321 -0.0566534 -0.0621671 -0.0674643 -0.0723505 -0.0766649 -0.0802865 -0.0830301 -0.0850773 -0.0863113 -0.086751 -0.0864336 -0.0854048 -0.0837126 -0.0814035 -0.0785203 -0.075105 -0.0712049 -0.0668894 -0.0608166 -0.0546963 -0.0482861 -0.0419876 -0.0362618 -0.0315247 -0.0280401 -0.0258585 -0.0248293 -0.0246758 -0.0250908 -0.025809 -0.0266416 -0.0274784 -0.017719 -0.0178286 -0.0179842 -0.018216 -0.0185655 -0.0190827 -0.0198234 -0.0208458 -0.0222098 -0.0239755 -0.0262015 -0.0289472 -0.0324291 -0.0358606 -0.039883 -0.044466 -0.0495287 -0.054939 -0.0605204 -0.066069 -0.0713754 -0.0762483 -0.0805329 -0.0841193 -0.0869232 -0.088954 -0.0901795 -0.0906241 -0.0903315 -0.0893547 -0.0877489 -0.0855669 -0.0828548 -0.0796498 -0.0759821 -0.0718759 -0.0662614 -0.060532 -0.0543423 -0.0480107 -0.0419757 -0.0367063 -0.0325821 -0.0297878 -0.0282769 -0.0278174 -0.0280917 -0.0287935 -0.0296885 -0.0306311 -0.0206736 -0.0207239 -0.0208315 -0.021027 -0.0213523 -0.0218573 -0.0225976 -0.023631 -0.0250166 -0.0268127 -0.0290759 -0.0318604 -0.035312 -0.0387913 -0.0428588 -0.0474811 -0.0525746 -0.0580039 -0.0635905 -0.0691298 -0.0744133 -0.0792527 -0.0834971 -0.0870435 -0.0898917 -0.0919004 -0.0931115 -0.0935505 -0.0932646 -0.0923119 -0.0907544 -0.0886522 -0.0860584 -0.083014 -0.0795448 -0.0756573 -0.0706746 -0.0653891 -0.0595613 -0.0534074 -0.0472991 -0.0417045 -0.0370768 -0.0337247 -0.0317244 -0.0309213 -0.0310144 -0.0316705 -0.0326116 -0.0336545 -0.0234326 -0.0234259 -0.0234847 -0.0236394 -0.0239314 -0.0244104 -0.025131 -0.0261505 -0.0275267 -0.0293164 -0.0315736 -0.0343472 -0.0376747 -0.0411443 -0.0451959 -0.0497964 -0.0548627 -0.0602603 -0.0658116 -0.0713132 -0.0765584 -0.0813599 -0.0855681 -0.0890817 -0.0919721 -0.0939611 -0.0951583 -0.0955876 -0.0952967 -0.0943468 -0.0928059 -0.090742 -0.0882169 -0.0852805 -0.0819651 -0.0782801 -0.073966 -0.0691152 -0.0637132 -0.0578785 -0.0518934 -0.0461802 -0.0412173 -0.0374066 -0.0349479 -0.0337875 -0.0336699 -0.0342533 -0.0352236 -0.0363591 -0.0259313 -0.0258727 -0.0258839 -0.0259947 -0.0262454 -0.0266845 -0.0273655 -0.0283447 -0.0296787 -0.0314231 -0.03363 -0.0363431 -0.0394526 -0.0428562 -0.046835 -0.0513592 -0.0563496 -0.0616756 -0.0671633 -0.0726121 -0.077816 -0.0825871 -0.0867734 -0.0902706 -0.0932075 -0.095185 -0.0963742 -0.0967946 -0.0964925 -0.0955308 -0.0939822 -0.0919224 -0.089423 -0.0865452 -0.0833338 -0.0798146 -0.0761194 -0.0716478 -0.0666672 -0.0612161 -0.0554854 -0.0498245 -0.0446934 -0.0405469 -0.037691 -0.0361835 -0.0358383 -0.0363273 -0.0373107 -0.0385307 -0.0281284 -0.0280248 -0.0279918 -0.0280575 -0.0282602 -0.0286462 -0.0292675 -0.0301792 -0.031437 -0.0330957 -0.035207 -0.0378106 -0.0406108 -0.0438944 -0.0477481 -0.0521482 -0.0570222 -0.0622465 -0.0676525 -0.0730427 -0.0782114 -0.0829676 -0.0871534 -0.0906566 -0.0936453 -0.0956245 -0.0968155 -0.097232 -0.0969171 -0.0959344 -0.0943604 -0.0922778 -0.0897676 -0.0869032 -0.0837442 -0.0803389 -0.0771731 -0.072995 -0.0683782 -0.063305 -0.0578859 -0.052389 -0.0472255 -0.0428634 -0.0396861 -0.0378585 -0.037281 -0.0376596 -0.0386424 -0.0399399 -0.0300057 -0.0298661 -0.0297941 -0.0298154 -0.029965 -0.030286 -0.030828 -0.0316444 -0.0327908 -0.0343224 -0.0362919 -0.0387375 -0.0411419 -0.0442541 -0.0479351 -0.0521697 -0.0568946 -0.0619949 -0.0673087 -0.0726415 -0.077787 -0.0825488 -0.0867597 -0.0902957 -0.0933386 -0.0953371 -0.096543 -0.0969639 -0.0966387 -0.0956305 -0.0940188 -0.0918921 -0.0893404 -0.086448 -0.083289 -0.0799354 -0.0772018 -0.0732138 -0.0688672 -0.0641091 -0.0589887 -0.0536985 -0.0485859 -0.0441014 -0.0406736 -0.0385593 -0.0377517 -0.0380084 -0.0389797 -0.0403501 -0.0315666 -0.0314011 -0.0312971 -0.0312765 -0.0313697 -0.0316152 -0.0320587 -0.0327522 -0.033751 -0.0351128 -0.0368935 -0.0391331 -0.0410612 -0.0439535 -0.0474193 -0.0514534 -0.0560036 -0.0609646 -0.0661818 -0.0714637 -0.0766015 -0.0813919 -0.0856562 -0.0892547 -0.0923488 -0.0943874 -0.0956248 -0.0960618 -0.0957327 -0.0946988 -0.0930416 -0.0908543 -0.0882343 -0.0852753 -0.0820634 -0.0786922 -0.0763029 -0.0723929 -0.0681992 -0.0636517 -0.058758 -0.0536484 -0.0486068 -0.0440474 -0.0404164 -0.0380413 -0.0370055 -0.0371303 -0.0380808 -0.0395225 -0.0328324 -0.0326521 -0.0325243 -0.032466 -0.032501 -0.0326615 -0.0329883 -0.0335306 -0.034345 -0.0354929 -0.0370371 -0.0390229 -0.0404018 -0.0430293 -0.0462427 -0.0500484 -0.0544054 -0.0592188 -0.0643406 -0.0695815 -0.0747298 -0.0795732 -0.0839199 -0.0876124 -0.0907468 -0.0928496 -0.0941383 -0.0946069 -0.0942842 -0.0932289 -0.0915228 -0.0892627 -0.0865512 -0.083489 -0.080171 -0.0767073 -0.0745887 -0.0706393 -0.0664664 -0.061995 -0.0572082 -0.0521921 -0.0471755 -0.0425318 -0.0387056 -0.0360744 -0.0348028 -0.0347817 -0.0357023 -0.0372165 -0.033837 -0.0336539 -0.0335119 -0.0334213 -0.0333977 -0.0334645 -0.0336559 -0.0340182 -0.0346099 -0.035499 -0.0367584 -0.0384439 -0.0392096 -0.041532 -0.0444625 -0.0480194 -0.0521729 -0.0568372 -0.0618703 -0.0670842 -0.0722626 -0.077184 -0.081642 -0.0854605 -0.0886147 -0.0908083 -0.0921715 -0.092691 -0.0923894 -0.0913215 -0.089568 -0.087227 -0.0844042 -0.0812041 -0.0777263 -0.0740911 -0.0721804 -0.0680703 -0.063775 -0.0592224 -0.0543852 -0.049322 -0.0442219 -0.0394218 -0.0353578 -0.0324418 -0.0309079 -0.0307175 -0.0315957 -0.0331856 -0.0346231 -0.0344502 -0.0343049 -0.0341885 -0.0341059 -0.0340697 -0.0341059 -0.0342576 -0.0345866 -0.0351708 -0.0360981 -0.037439 -0.0375386 -0.0395219 -0.042147 -0.0454439 -0.0493925 -0.0539143 -0.0588714 -0.0640757 -0.0693059 -0.07433 -0.0789272 -0.0829033 -0.0860458 -0.0883583 -0.0898221 -0.0904154 -0.0901538 -0.089087 -0.0872926 -0.0848674 -0.0819172 -0.0785468 -0.0748558 -0.0709665 -0.0692039 -0.0648068 -0.0602354 -0.0554248 -0.0503479 -0.0450513 -0.0397007 -0.034609 -0.0302068 -0.0269333 -0.0250826 -0.0246836 -0.0255 -0.0271695 -0.035238 -0.0350904 -0.0349537 -0.0348184 -0.0346757 -0.034525 -0.0343827 -0.0342897 -0.0343138 -0.0345468 -0.0350963 -0.0360532 -0.0354476 -0.0370661 -0.0393735 -0.0424096 -0.0461618 -0.0505561 -0.0554563 -0.0606724 -0.0659774 -0.071129 -0.0758917 -0.0800554 -0.0831436 -0.0856035 -0.0871955 -0.0878884 -0.0876895 -0.0866416 -0.0848173 -0.0823092 -0.0792195 -0.0756492 -0.071693 -0.067465 -0.0657842 -0.0609678 -0.0559552 -0.0506909 -0.0451552 -0.0393967 -0.0335745 -0.0279937 -0.0230904 -0.0193352 -0.0170769 -0.0164077 -0.0171318 -0.0188835 -0.0357319 -0.0356274 -0.0355134 -0.0353658 -0.0351