# vtk DataFile Version 2.0
Velocidades
ASCII

DATASET STRUCTURED_GRID
DIMENSIONS   50   50   20

POINTS   50000   double
0.00568455   0.00568455   0.025
0.0174023   0.00568455   0.025
0.0298294   0.00568455   0.025
0.0429888   0.00568455   0.025
0.0569012   0.00568455   0.025
0.0715849   0.00568455   0.025
0.0870549   0.00568455   0.025
0.103323   0.00568455   0.025
0.120395   0.00568455   0.025
0.138275   0.00568455   0.025
0.156961   0.00568455   0.025
0.176443   0.00568455   0.025
0.196707   0.00568455   0.025
0.217734   0.00568455   0.025
0.239496   0.00568455   0.025
0.261959   0.00568455   0.025
0.285082   0.00568455   0.025
0.308818   0.00568455   0.025
0.333113   0.00568455   0.025
0.357906   0.00568455   0.025
0.383132   0.00568455   0.025
0.408719   0.00568455   0.025
0.434592   0.00568455   0.025
0.460672   0.00568455   0.025
0.486877   0.00568455   0.025
0.513123   0.00568455   0.025
0.539328   0.00568455   0.025
0.565408   0.00568455   0.025
0.591281   0.00568455   0.025
0.616868   0.00568455   0.025
0.642094   0.00568455   0.025
0.666887   0.00568455   0.025
0.691182   0.00568455   0.025
0.714918   0.00568455   0.025
0.738041   0.00568455   0.025
0.760504   0.00568455   0.025
0.782266   0.00568455   0.025
0.803293   0.00568455   0.025
0.823557   0.00568455   0.025
0.843039   0.00568455   0.025
0.861725   0.00568455   0.025
0.879605   0.00568455   0.025
0.896677   0.00568455   0.025
0.912945   0.00568455   0.025
0.928415   0.00568455   0.025
0.943099   0.00568455   0.025
0.957011   0.00568455   0.025
0.970171   0.00568455   0.025
0.982598   0.00568455   0.025
0.994315   0.00568455   0.025
0.00568455   0.0174023   0.025
0.0174023   0.0174023   0.025
0.0298294   0.0174023   0.025
0.0429888   0.0174023   0.025
0.0569012   0.0174023   0.025
0.0715849   0.0174023   0.025
0.0870549   0.0174023   0.025
0.103323   0.0174023   0.025
0.120395   0.0174023   0.025
0.138275   0.0174023   0.025
0.156961   0.0174023   0.025
0.176443   0.0174023   0.025
0.196707   0.0174023   0.025
0.217734   0.0174023   0.025
0.239496   0.0174023   0.025
0.261959   0.0174023   0.025
0.285082   0.0174023   0.025
0.308818   0.0174023   0.025
0.333113   0.0174023   0.025
0.357906   0.0174023   0.025
0.383132   0.0174023   0.025
0.408719   0.0174023   0.025
0.434592   0.0174023   0.025
0.460672   0.0174023   0.025
0.486877   0.0174023   0.025
0.513123   0.0174023   0.025
0.539328   0.0174023   0.025
0.565408   0.0174023   0.025
0.591281   0.0174023   0.025
0.616868   0.0174023   0.025
0.642094   0.0174023   0.025
0.666887   0.0174023   0.025
0.691182   0.0174023   0.025
0.714918   0.0174023   0.025
0.738041   0.0174023   0.025
0.760504   0.0174023   0.025
0.782266   0.0174023   0.025
0.803293   0.0174023   0.025
0.823557   0.0174023   0.025
0.843039   0.0174023   0.025
0.861725   0.0174023   0.025
0.879605   0.0174023   0.025
0.896677   0.0174023   0.025
0.912945   0.0174023   0.025
0.928415   0.0174023   0.025
0.943099   0.0174023   0.025
0.957011   0.0174023   0.025
0.970171   0.0174023   0.025
0.982598   0.0174023   0.025
0.994315   0.0174023   0.025
0.00568455   0.0298294   0.025
0.0174023   0.0298294   0.025
0.0298294   0.0298294   0.025
0.0429888   0.0298294   0.025
0.0569012   0.0298294   0.025
0.0715849   0.0298294   0.025
0.0870549   0.0298294   0.025
0.103323   0.0298294   0.025
0.120395   0.0298294   0.025
0.138275   0.0298294   0.025
0.156961   0.0298294   0.025
0.176443   0.0298294   0.025
0.196707   0.0298294   0.025
0.217734   0.0298294   0.025
0.239496   0.0298294   0.025
0.261959   0.0298294   0.025
0.285082   0.0298294   0.025
0.308818   0.0298294   0.025
0.333113   0.0298294   0.025
0.357906   0.0298294   0.025
0.383132   0.0298294   0.025
0.408719   0.0298294   0.025
0.434592   0.0298294   0.025
0.460672   0.0298294   0.025
0.486877   0.0298294   0.025
0.513123   0.0298294   0.025
0.539328   0.0298294   0.025
0.565408   0.0298294   0.025
0.591281   0.0298294   0.025
0.616868   0.0298294   0.025
0.642094   0.0298294   0.025
0.666887   0.0298294   0.025
0.691182   0.0298294   0.025
0.714918   0.0298294   0.025
0.738041   0.0298294   0.025
0.760504   0.0298294   0.025
0.782266   0.0298294   0.025
0.803293   0.0298294   0.025
0.823557   0.0298294   0.025
0.843039   0.0298294   0.025
0.861725   0.0298294   0.025
0.879605   0.0298294   0.025
0.896677   0.0298294   0.025
0.912945   0.0298294   0.025
0.928415   0.0298294   0.025
0.943099   0.0298294   0.025
0.957011   0.0298294   0.025
0.970171   0.0298294   0.025
0.982598   0.0298294   0.025
0.994315   0.0298294   0.025
0.00568455   0.0429888   0.025
0.0174023   0.0429888   0.025
0.0298294   0.0429888   0.025
0.0429888   0.0429888   0.025
0.0569012   0.0429888   0.025
0.0715849   0.0429888   0.025
0.0870549   0.0429888   0.025
0.103323   0.0429888   0.025
0.120395   0.0429888   0.025
0.138275   0.0429888   0.025
0.156961   0.0429888   0.025
0.176443   0.0429888   0.025
0.196707   0.0429888   0.025
0.217734   0.0429888   0.025
0.239496   0.0429888   0.025
0.261959   0.0429888   0.025
0.285082   0.0429888   0.025
0.308818   0.0429888   0.025
0.333113   0.0429888   0.025
0.357906   0.0429888   0.025
0.383132   0.0429888   0.025
0.408719   0.0429888   0.025
0.434592   0.0429888   0.025
0.460672   0.0429888   0.025
0.486877   0.0429888   0.025
0.513123   0.0429888   0.025
0.539328   0.0429888   0.025
0.565408   0.0429888   0.025
0.591281   0.0429888   0.025
0.616868   0.0429888   0.025
0.642094   0.0429888   0.025
0.666887   0.0429888   0.025
0.691182   0.0429888   0.025
0.714918   0.0429888   0.025
0.738041   0.0429888   0.025
0.760504   0.0429888   0.025
0.782266   0.0429888   0.025
0.803293   0.0429888   0.025
0.823557   0.0429888   0.025
0.843039   0.0429888   0.025
0.861725   0.0429888   0.025
0.879605   0.0429888   0.025
0.896677   0.0429888   0.025
0.912945   0.0429888   0.025
0.928415   0.0429888   0.025
0.943099   0.0429888   0.025
0.957011   0.0429888   0.025
0.970171   0.0429888   0.025
0.982598   0.0429888   0.025
0.994315   0.0429888   0.025
0.00568455   0.0569012   0.025
0.0174023   0.0569012   0.025
0.0298294   0.0569012   0.025
0.0429888   0.0569012   0.025
0.0569012   0.0569012   0.025
0.0715849   0.0569012   0.025
0.0870549   0.0569012   0.025
0.103323   0.0569012   0.025
0.120395   0.0569012   0.025
0.138275   0.0569012   0.025
0.156961   0.0569012   0.025
0.176443   0.0569012   0.025
0.196707   0.0569012   0.025
0.217734   0.0569012   0.025
0.239496   0.0569012   0.025
0.261959   0.0569012   0.025
0.285082   0.0569012   0.025
0.308818   0.0569012   0.025
0.333113   0.0569012   0.025
0.357906   0.0569012   0.025
0.383132   0.0569012   0.025
0.408719   0.0569012   0.025
0.434592   0.0569012   0.025
0.460672   0.0569012   0.025
0.486877   0.0569012   0.025
0.513123   0.0569012   0.025
0.539328   0.0569012   0.025
0.565408   0.0569012   0.025
0.591281   0.0569012   0.025
0.616868   0.0569012   0.025
0.642094   0.0569012   0.025
0.666887   0.0569012   0.025
0.691182   0.0569012   0.025
0.714918   0.0569012   0.025
0.738041   0.0569012   0.025
0.760504   0.0569012   0.025
0.782266   0.0569012   0.025
0.803293   0.0569012   0.025
0.823557   0.0569012   0.025
0.843039   0.0569012   0.025
0.861725   0.0569012   0.025
0.879605   0.0569012   0.025
0.896677   0.0569012   0.025
0.912945   0.0569012   0.025
0.928415   0.0569012   0.025
0.943099   0.0569012   0.025
0.957011   0.0569012   0.025
0.970171   0.0569012   0.025
0.982598   0.0569012   0.025
0.994315   0.0569012   0.025
0.00568455   0.0715849   0.025
0.0174023   0.0715849   0.025
0.0298294   0.0715849   0.025
0.0429888   0.0715849   0.025
0.0569012   0.0715849   0.025
0.0715849   0.0715849   0.025
0.0870549   0.0715849   0.025
0.103323   0.0715849   0.025
0.120395   0.0715849   0.025
0.138275   0.0715849   0.025
0.156961   0.0715849   0.025
0.176443   0.0715849   0.025
0.196707   0.0715849   0.025
0.217734   0.0715849   0.025
0.239496   0.0715849   0.025
0.261959   0.0715849   0.025
0.285082   0.0715849   0.025
0.308818   0.0715849   0.025
0.333113   0.0715849   0.025
0.357906   0.0715849   0.025
0.383132   0.0715849   0.025
0.408719   0.0715849   0.025
0.434592   0.0715849   0.025
0.460672   0.0715849   0.025
0.486877   0.0715849   0.025
0.513123   0.0715849   0.025
0.539328   0.0715849   0.025
0.565408   0.0715849   0.025
0.591281   0.0715849   0.025
0.616868   0.0715849   0.025
0.642094   0.0715849   0.025
0.666887   0.0715849   0.025
0.691182   0.0715849   0.025
0.714918   0.0715849   0.025
0.738041   0.0715849   0.025
0.760504   0.0715849   0.025
0.782266   0.0715849   0.025
0.803293   0.0715849   0.025
0.823557   0.0715849   0.025
0.843039   0.0715849   0.025
0.861725   0.0715849   0.025
0.879605   0.0715849   0.025
0.896677   0.0715849   0.025
0.912945   0.0715849   0.025
0.928415   0.0715849   0.025
0.943099   0.0715849   0.025
0.957011   0.0715849   0.025
0.970171   0.0715849   0.025
0.982598   0.0715849   0.025
0.994315   0.0715849   0.025
0.00568455   0.0870549   0.025
0.0174023   0.0870549   0.025
0.0298294   0.0870549   0.025
0.0429888   0.0870549   0.025
0.0569012   0.0870549   0.025
0.0715849   0.0870549   0.025
0.0870549   0.0870549   0.025
0.103323   0.0870549   0.025
0.120395   0.0870549   0.025
0.138275   0.0870549   0.025
0.156961   0.0870549   0.025
0.176443   0.0870549   0.025
0.196707   0.0870549   0.025
0.217734   0.0870549   0.025
0.239496   0.0870549   0.025
0.261959   0.0870549   0.025
0.285082   0.0870549   0.025
0.308818   0.0870549   0.025
0.333113   0.0870549   0.025
0.357906   0.0870549   0.025
0.383132   0.0870549   0.025
0.408719   0.0870549   0.025
0.434592   0.0870549   0.025
0.460672   0.0870549   0.025
0.486877   0.0870549   0.025
0.513123   0.0870549   0.025
0.539328   0.0870549   0.025
0.565408   0.0870549   0.025
0.591281   0.0870549   0.025
0.616868   0.0870549   0.025
0.642094   0.0870549   0.025
0.666887   0.0870549   0.025
0.691182   0.0870549   0.025
0.714918   0.0870549   0.025
0.738041   0.0870549   0.025
0.760504   0.0870549   0.025
0.782266   0.0870549   0.025
[...]
POINT_DATA   50000
VECTORS Velocidades double

-6.73556e-05 -0.00148026 0
-0.000182775 -0.00289941 0
-0.000252976 -0.00369126 0
-0.000282672 -0.00413056 0
-0.000296521 -0.00432974 0
-0.000318233 -0.0043462 0
-0.00036549 -0.00421519 0
-0.000450428 -0.0039613 0
-0.00058107 -0.00360247 0
-0.000762871 -0.00315066 0
-0.00100077 -0.00260907 0
-0.00111936 -0.00195962 0
-0.00128698 -0.00110686 0
-0.00169695 -0.000477659 0
-0.00217579 3.8831e-05 0
-0.00269789 0.00046909 0
-0.00325457 0.000812325 0
-0.00383752 0.00105487 0
-0.00443464 0.00117754 0
-0.00502832 0.00116157 0
-0.00559482 0.00099396 0
-0.0061049 0.000672154 0
-0.00652625 0.000207296 0
-0.00682053 -0.00037376 0
-0.00694676 -0.00102102 0
-0.00687574 -0.00166652 0
-0.00659527 -0.00223922 0
-0.00610966 -0.0026715 0
-0.00544162 -0.00290525 0
-0.00463272 -0.00289996 0
-0.00373961 -0.0026395 0
-0.00282664 -0.00213555 0
-0.00195658 -0.00142695 0
-0.00118151 -0.000575775 0
-0.000534962 0.000337219 0
-0.000173132 0.00121103 0
4.9637e-05 0.001898 0
0.000300626 0.00269445 0
0.000452882 0.00345272 0
0.00051149 0.00411609 0
0.000494841 0.00465891 0
0.000421699 0.00506907 0
0.000309512 0.00534027 0
0.000174753 0.00546779 0
3.38736e-05 0.00544525 0
-9.5361e-05 0.00526089 0
-0.000192202 0.00489091 0
-0.000232052 0.0042844 0
-0.00019189 0.00332255 0
-7.46828e-05 0.00168898 0
-0.000225409 -0.00272133 0
-0.00059569 -0.00565399 0
-0.000793363 -0.00733274 0
-0.00085735 -0.00825117 0
-0.000880632 -0.0086493 0
-0.000935666 -0.00865805 0
-0.00107296 -0.00835866 0
-0.00132704 -0.007807 0
-0.00172133 -0.00704302 0
-0.00227246 -0.00609242 0
-0.00299641 -0.00496062 0
-0.00331339 -0.00360662 0
-0.00383771 -0.00185457 0
-0.00516137 -0.000555621 0
-0.00665124 0.000503623 0
-0.00827307 0.00138313 0
-0.0100037 0.00208264 0
-0.0118157 0.00257283 0
-0.0136677 0.00281188 0
-0.0155001 0.00275832 0
-0.0172341 0.00238252 0
-0.0187751 0.00167681 0
-0.0200199 0.000663052 0
-0.0208608 -0.000603007 0
-0.021179 -0.00203625 0
-0.0208914 -0.00347101 0
-0.0199789 -0.00476087 0
-0.0184655 -0.00576122 0
-0.0164247 -0.00634461 0
-0.01398 -0.00641923 0
-0.0112943 -0.00594473 0
-0.00855064 -0.00494069 0
-0.00592877 -0.00348611 0
-0.00358112 -0.0017119 0
-0.00161107 0.000208056 0
-0.000541783 0.00205269 0
0.000144845 0.00351481 0
0.00096532 0.00520094 0
0.00144706 0.00680831 0
0.00163348 0.0082155 0
0.00158218 0.00936911 0
0.00135052 0.0102445 0
0.00099251 0.0108283 0
0.000559779 0.0111095 0
0.000104002 0.0110723 0
-0.000319512 0.0106876 0
-0.000646445 0.00989823 0
-0.000796382 0.00858715 0
-0.000675201 0.00650451 0
-0.000267298 0.00309428 0
-0.000163767 -0.00229797 0
-0.000523785 -0.00530122 0
-0.000865253 -0.00713777 0
-0.00111888 -0.00813881 0
-0.00133956 -0.00853873 0
-0.0016078 -0.00849142 0
-0.0019956 -0.00810012 0
-0.00255924 -0.00743688 0
-0.00334076 -0.00655206 0
-0.00437246 -0.00547651 0
-0.00568298 -0.004215 0
-0.00627623 -0.00272136 0
-0.00717994 -0.000852065 0
-0.0094035 0.000551848 0
-0.0118959 0.0016856 0
-0.0146149 0.00261938 0
-0.0175178 0.00335445 0
-0.0205506 0.00385596 0
-0.0236363 0.00407298 0
-0.0266688 0.00395375 0
-0.0295131 0.00345933 0
-0.0320099 0.00257571 0
-0.0339882 0.00132364 0
-0.0353045 -0.000237113 0
-0.0357643 -0.00203953 0
-0.0352278 -0.00386128 0
-0.0336971 -0.00553837 0
-0.031216 -0.00690163 0
-0.027903 -0.00779491 0
-0.0239495 -0.0080991 0
-0.0196045 -0.00775318 0
-0.0151472 -0.00676667 0
-0.0108532 -0.00522149 0
-0.00696008 -0.00326511 0
-0.0036357 -0.00110185 0
-0.00180973 0.00100358 0
-0.00061866 0.00271419 0
0.000829576 0.00465453 0
0.001729 0.00650499 0
0.00215515 0.00812807 0
0.00219735 0.00946478 0
0.00194655 0.0104879 0
0.00149183 0.0111811 0
0.000921075 0.011528 0
0.000323144 0.011504 0
-0.000209633 0.0110666 0
-0.000581062 0.0101405 0
-0.000700685 0.00859198 0
-0.000526052 0.00619322 0
-0.000182478 0.00260536 0
-0.000105372 -0.00198845 0
-0.000408827 -0.00487119 0
-0.000828035 -0.00675866 0
-0.00128109 -0.00780451 0
-0.00177793 -0.00818759 0
-0.0023752 -0.00806083 0
-0.00314182 -0.007543 0
-0.00414215 -0.00672289 0
-0.00543055 -0.00566378 0
-0.00705177 -0.00440431 0
-0.00904313 -0.00295243 0
-0.00997106 -0.00126665 0
-0.0112852 0.000760106 0
-0.0144319 0.00231418 0
-0.0179392 0.00356665 0
-0.0217627 0.004588 0
-0.0258406 0.00537678 0
-0.0300883 0.00588889 0
-0.0343888 0.00605986 0
-0.038587 0.00582329 0
-0.0424909 0.00512729 0
-0.0458798 0.00394966 0
-0.0485201 0.00231016 0
-0.0502597 0.000274913 0
-0.0508308 -0.00208211 0
-0.0500371 -0.0044892 0
-0.0479236 -0.00674968 0
-0.0445503 -0.00865879 0
-0.0400709 -0.0100201 0
-0.0347298 -0.0106764 0
-0.0288435 -0.0105375 0
-0.0227677 -0.00959766 0
-0.0168577 -0.00794101 0
-0.0114266 -0.005736 0
-0.00670769 -0.00322596 0
-0.00409142 -0.000726997 0
-0.00235187 0.00138457 0
-0.000184768 0.00371585 0
0.00124099 0.00593111 0
0.00203281 0.00787893 0
0.00230695 0.00949251 0
0.00218269 0.0107387 0
0.00177977 0.0115942 0
0.00121757 0.0120336 0
0.000614276 0.0120207 0
8.37968e-05 0.0115006 0
-0.000273303 0.0103903 0
-0.000391792 0.00857278 0
-0.00028361 0.00590728 0
-9.04137e-05 0.00229253 0
-7.77577e-05 -0.00176538 0
-0.000355234 -0.00441258 0
-0.000842839 -0.00620298 0
-0.0014928 -0.00719018 0
-0.0023001 -0.00749167 0
-0.00329742 -0.00723902 0
-0.00453808 -0.0065524 0
-0.00608132 -0.00553055 0
-0.00798371 -0.00424764 0
-0.0102952 -0.00275117 0
-0.0130559 -0.00105685 0
-0.0143669 0.000862696 0
-0.0161246 0.00307429 0
-0.0202377 0.00481756 0
-0.0247893 0.00623104 0
-0.0297359 0.0073726 0
-0.034998 0.00823032 0
-0.0404594 0.00874559 0
-0.045961 0.00883608 0
-0.0512981 0.008417 0
-0.056224 0.0074212 0
-0.0604613 0.00581774 0
-0.0637222 0.00362711 0
-0.0658559 0.000928038 0
-0.0665311 -0.00217447 0
-0.0655074 -0.00536341 0
-0.0628773 -0.00840269 0
-0.058709 -0.0110429 0
-0.0531787 -0.013037 0
-0.0465677 -0.0141801 0
-0.0392423 -0.0143444 0
-0.031619 -0.0135026 0
-0.0241216 -0.0117376 0
-0.0171345 -0.00923947 0
-0.0109613 -0.00629383 0
-0.00751982 -0.0032711 0
-0.00518051 -0.000593888 0
-0.00217629 0.002267 0
-9.20492e-05 0.00496713 0
0.00120898 0.00734724 0
0.00186478 0.00933203 0
0.00201654 0.0108787 0
0.00180781 0.0119535 0
0.00138132 0.0125198 0
0.000873511 0.0125321 0
0.000405905 0.0119312 0
7.13364e-05 0.010646 0
-8.55335e-05 0.00860302 0
-8.79989e-05 0.00575693 0
-2.91667e-05 0.00214828 0
-7.39647e-05 -0.00156967 0
-0.000370571 -0.00389797 0
-0.000958598 -0.00545058 0
-0.00182724 -0.00624715 0
-0.00297639 -0.0063654 0
-0.00442591 -0.00591193 0
-0.00621303 -0.00499781 0
-0.00838515 -0.00372284 0
-0.0109928 -0.00216689 0
-0.0140834 -0.000385118 0
-0.0176945 0.00159592 0
-0.0194299 0.00378294 0
-0.0216638 0.00619918 0
-0.0267963 0.00816402 0
-0.0324333 0.00977551 0
-0.0385315 0.0110656 0
-0.0449944 0.0120021 0
-0.0516746 0.0125051 0
-0.0583718 0.0124701 0
-0.0648338 0.0117911 0
-0.0707635 0.0103848 0
-0.0758345 0.00821231 0
-0.079715 0.00529838 0
-0.082239 0.00174199 0
-0.0830373 -0.00230453 0
-0.081857 -0.00646862 0
-0.078816 -0.0104829 0
-0.0739786 -0.014046 0
-0.0675277 -0.0168512 0
-0.0597647 -0.0186363 0
-0.0510894 -0.0192263 0
-0.0419665 -0.0185637 0
-0.0328812 -0.0167236 0
-0.0242897 -0.0139132 0
-0.0165735 -0.0104591 0
-0.0122594 -0.00678673 0
-0.00925626 -0.00337262 0
-0.00526796 0.000156352 0
-0.00236578 0.00346049 0
-0.000390249 0.00638186 0
0.000810589 0.00883717 0
0.00139227 0.0107707 0
0.00151467 0.0121351 0
0.001336 0.0128831 0
0.00100339 0.012964 0
0.000641342 0.0123253 0
0.00033914 0.0109199 0
0.000140433 0.00872284 0
4.14524e-05 0.00575663 0
6.80422e-06 0.00212065 0
-8.60013e-05 -0.0013517 0
-0.000442576 -0.00326417 0
-0.00117833 -0.0044428 0
-0.00230765 -0.00490785 0
-0.00384013 -0.00472048 0
-0.00579087 -0.00396904 0
-0.00818483 -0.00275199 0
-0.0110562 -0.00116331 0
-0.0144448 0.000717299 0
-0.0183904 0.00282981 0
-0.022923 0.00513591 0
-0.0251177 0.00761816 0
-0.0278584 0.0102544 0
-0.0340663 0.0124679 0
-0.0408357 0.014308 0
-0.0481207 0.0157684 0
-0.0558078 0.0167859 0
-0.0637198 0.0172528 0
-0.0716181 0.0170379 0
-0.0792078 0.0160123 0
-0.0861488 0.0140768 0
-0.0920755 0.0111873 0
-0.096622 0.00737664 0
-0.0995586 0.00277008 0
-0.100527 -0.00242664 0
-0.0993179 -0.00775547 0
-0.0960182 -0.0129451 0
-0.090672 -0.0176359 0
-0.0834519 -0.0214521 0
-0.0746617 -0.0240646 0
-0.0647195 -0.0252399 0
-0.0541273 -0.0248779 0
-0.0434275 -0.0230341 0
-0.0331515 -0.019924 0
-0.0237687 -0.0159088 0
-0.0185156 -0.0114681 0
-0.0147665 -0.00714107 0
-0.00961212 -0.00280935 0
-0.0056989 0.00121739 0
-0.00285613 0.00479463 0
-0.000928544 0.00783141 0
0.000245573 0.0102553 0
0.000836147 0.0120027 0
0.0010124 0.0130157 0
0.000930445 0.0132433 0
0.000721179 0.0126449 0
0.000481167 0.0112004 0
0.000269508 0.00892298 0
0.000113781 0.00587306 0
2.58636e-05 0.00216579 0
-0.000108882 -0.00107218 0
-0.000558908 -0.00243724 0
-0.00149076 -0.00309574 0
-0.00293144 -0.00308209 0
-0.0048968 -0.002456 0
-0.00739931 -0.00129584 0
-0.0104545 0.000311865 0
-0.014084 0.00228289 0
-0.0183156 0.00454276 0
-0.0231781 0.00703006 0
-0.028692 0.00969557 0
-0.031374 0.0124968 0
-0.0346485 0.0153663 0
-0.0419857 0.0178519 0
-0.0499356 0.0199448 0
-0.0584458 0.0215895 0
-0.0673853 0.0226826 0
-0.0765496 0.0230816 0
-0.0856669 0.0226254 0
-0.0944068 0.0211619 0
-0.102396 0.0185775 0
-0.10924 0.0148257 0
-0.114548 0.00995103 0
-0.117943 0.00410695 0
-0.119158 -0.00245123 0
-0.118104 -0.00913116 0
-0.114747 -0.015705 0
-0.109091 -0.0217476 0
-0.101281 -0.0268056 0
-0.0916054 -0.0304718 0
-0.0804856 -0.0324403 0
-0.0684496 -0.0325524 0
-0.056093 -0.0308267 0
-0.0440262 -0.0274713 0
-0.0328179 -0.0228713 0
-0.0265395 -0.0175562 0
-0.0219404 -0.0121368 0
-0.0153938 -0.00687619 0
-0.0102339 -0.00200788 0
-0.00629611 0.00235142 0
-0.00343515 0.00610096 0
-0.00149088 0.00914543 0
-0.00028691 0.0114003 0
0.000356708 0.0127962 0
0.000608397 0.0132823 0
0.000612877 0.0128309 0
0.000484463 0.0114437 0
0.000307101 0.00915945 0
0.000141019 0.00605677 0
3.3573e-05 0.00225113 0
-0.000139704 -0.00069794 0
-0.000710146 -0.00134225 0
-0.00188168 -0.00131346 0
-0.00368418 -0.000663823 0
-0.00613362 0.000541314 0
-0.00923791 0.00222821 0
-0.0130035 0.0043211 0
-0.0174405 0.00674795 0
-0.0225641 0.00944359 0
-0.0283918 0.0123489 0
-0.0349336 0.0154057 0
-0.0381235 0.0185473 0
-0.0419535 0.0216635 0
-0.0504676 0.0244425 0
-0.0596417 0.0268067 0
-0.0694138 0.0286426 0
-0.0796354 0.0297984 0
-0.0900783 0.0300918 0
-0.100444 0.0293302 0
-0.110375 0.0273387 0
-0.119477 0.0239917 0
-0.127335 0.0192432 0
-0.13354 0.0131506 0
-0.137458 0.0058924 0
-0.139017 -0.00223729 0
-0.138357 -0.0104533 0
-0.13519 -0.0186335 0
-0.129463 -0.0262766 0
-0.121279 -0.0328439 0
-0.110892 -0.0378393 0
-0.0987096 -0.0408688 0
-0.0852726 -0.041694 0
-0.071222 -0.0402737 0
-0.0572481 -0.0367854 0
-0.0440289 -0.0316202 0
-0.036625 -0.0253481 0
-0.0310493 -0.018658 0
-0.0228302 -0.0123575 0
-0.0161354 -0.00652611 0
-0.0108312 -0.00123879 0
-0.00679803 0.00338551 0
-0.00388341 0.00721738 0
-0.00190489 0.0101435 0
-0.000668343 0.0120785 0
1.33871e-05 0.0129692 0
0.000307167 0.0127968 0
0.000353154 0.0115787 0
0.000264752 0.00936883 0
0.000133108 0.00625511 0
3.33362e-05 0.00235163 0
-0.000176595 -0.00019935 0
-0.000888922 9.32416e-05 0
-0.00233673 0.00100291 0
-0.00454563 0.00245969 0
-0.00752563 0.00439095 0
-0.0112764 0.00672628 0
-0.015794 0.00940121 0
-0.0210767 0.0123586 0
-0.027128 0.0155466 0
-0.0339543 0.0189119 0
-0.0415557 0.0223903 0
-0.0452659 0.0258933 0
-0.0496663 0.0292715 0
-0.0593936 0.0323638 0
-0.0698262 0.0350135 0
-0.0808898 0.0370411 0
-0.0924192 0.0382412 0
-0.104167 0.0383891 0
-0.115816 0.0372599 0
-0.126992 0.0346575 0
-0.137287 0.0304473 0
-0.146276 0.0245851 0
-0.153539 0.0171398 0
-0.158046 0.00830799 0
-0.160063 -0.00159154 0
-0.160074 -0.0115301 0
-0.157378 -0.0215534 0
-0.151857 -0.0310705 0
-0.143557 -0.0394528 0
-0.132682 -0.0461058 0
-0.119606 -0.050531 0
-0.104861 -0.0523867 0
-0.0891185 -0.0515421 0
-0.073142 -0.0481132 0
-0.0577232 -0.0424687 0
-0.0490955 -0.0352011 0
-0.0423968 -0.0270764 0
-0.0321627 -0.0196494 0
-0.0235844 -0.0127268 0
-0.0165928 -0.00633529 0
-0.0111105 -0.000631655 0
-0.00699675 0.00420183 0
-0.0040606 0.00801024 0
-0.00208764 0.0106842 0
-0.000864133 0.0121625 0
-0.000193066 0.01243 0
9.78589e-05 0.0115137 0
0.000154399 0.00947766 0
9.76802e-05 0.00641653 0
2.73526e-05 0.00244688 0
-0.000218064 0.000450559 0
-0.00108861 0.00193694 0
-0.00284092 0.00394842 0
-0.00549113 0.00639882 0
-0.00903818 0.00920999 0
-0.0134696 0.012317 0
-0.0187687 0.0156701 0
-0.0249217 0.0192312 0
-0.0319205 0.022966 0
-0.0397616 0.0268315 0
-0.048437 0.0307608 0
-0.0526707 0.0346467 0
-0.0576477 0.0383055 0
-0.0686078 0.0417308 0
-0.0803166 0.0446763 0
-0.0926865 0.0468914 0
-0.105537 0.0481145 0
-0.118608 0.0480775 0
-0.131568 0.0465245 0
-0.144037 0.0432407 0
-0.155602 0.038084 0
-0.165835 0.0310126 0
-0.174309 0.0221036 0
-0.17946 0.0115627 0
-0.182042 -0.000278352 0
-0.183012 -0.0121296 0
-0.181083 -0.024243 0
-0.176074 -0.0359243 0
-0.167965 -0.0464568 0
-0.156895 -0.0551427 0
-0.143178 -0.061365 0
-0.127311 -0.0646547 0
-0.109967 -0.0647576 0
-0.0919612 -0.0616873 0
-0.0741919 -0.0557495 0
-0.0642721 -0.0475262 0
-0.0562951 -0.0378467 0
-0.0436413 -0.0292432 0
-0.0327701 -0.0210884 0
-0.0237204 -0.0133744 0
-0.0164721 -0.00633225 0
-0.0108985 -0.000224921 0
-0.00679569 0.00473302 0
-0.0039219 0.00839666 0
-0.00202881 0.0106893 0
-0.000881731 0.0115936 0
-0.000270556 0.0111421 0
-1.39434e-05 0.00940711 0
4.03916e-05 0.00649145 0
1.71212e-05 0.00251964 0
-0.000262625 0.00127562 0
-0.00130223 0.0042488 0
-0.00337746 0.00760787 0
-0.00649115 0.0112526 0
-0.0106272 0.0151031 0
-0.0157576 0.0191052 0
-0.0218512 0.0232296 0
-0.0288809 0.0274635 0
-0.0368278 0.0317962 0
-0.0456796 0.0361997 0
-0.0554221 0.0406082 0
-0.0601723 0.0448999 0
-0.065721 0.0488621 0
-0.0779097 0.052639 0
-0.090888 0.0558871 0
-0.104554 0.0582818 0
-0.118716 0.0595052 0
-0.133101 0.0592469 0
-0.147377 0.057222 0
-0.161159 0.0531993 0
-0.174036 0.0470308 0
-0.185582 0.0386764 0
-0.195369 0.0282182 0
-0.201183 0.0158651 0
-0.204415 0.00195556 0
-0.206602 -0.0120016 0
-0.205722 -0.0264472 0
-0.201542 -0.04058 0
-0.193978 -0.0536059 0
-0.183087 -0.064727 0
-0.169096 -0.0732013 0
-0.15243 -0.0784128 0
-0.13372 -0.0799487 0
-0.113794 -0.0776721 0
-0.0936242 -0.0717706 0
-0.0824179 -0.0627628 0
-0.0730197 -0.0515053 0
-0.0574963 -0.0417245 0
-0.0438794 -0.0321764 0
-0.0323626 -0.0228707 0
-0.0229966 -0.0141678 0
-0.0156697 -0.00644778 0
-0.0101622 -8.12854e-06 0
-0.00619928 0.00495588 0
-0.00349083 0.00834245 0
-0.0017576 0.0101266 0
-0.000745757 0.0103435 0
-0.000233916 0.00907372 0
-3.51367e-05 0.00643154 0
3.59608e-06 0.0025547 0
-0.000308574 0.0022951 0
-0.00152174 0.00707679 0
-0.00392663 0.0120487 0
-0.00751017 0.0170989 0
-0.0122385 0.0221517 0
-0.0180661 0.0271707 0
-0.0249454 0.0321552 0
-0.0328358 0.037126 0
-0.0417079 0.0421028 0
-0.0515417 0.0470787 0
-0.0623185 0.0519935 0
-0.0675662 0.0567149 0
-0.0736679 0.0610071 0
-0.0870488 0.0651521 0
-0.101255 0.068705 0
-0.11617 0.0712674 0
-0.131591 0.0724666 0
-0.147241 0.0719524 0
-0.162783 0.0694134 0
-0.177836 0.0646041 0
-0.191994 0.0573718 0
-0.204836 0.0476786 0
-0.215946 0.0356116 0
-0.222385 0.0213826 0
-0.226304 0.00533974 0
-0.229885 -0.0109108 0
-0.230279 -0.0278997 0
-0.22723 -0.0447363 0
-0.220594 -0.0605708 0
-0.210336 -0.07452 0
-0.19657 -0.0857234 0
-0.179603 -0.0934083 0
-0.159967 -0.0969745 0
-0.138436 -0.0960843 0
-0.116003 -0.0907397 0
-0.103647 -0.0813211 0
-0.0927348 -0.0686442 0
-0.0738964 -0.057743 0
-0.0570822 -0.0466199 0
-0.0426802 -0.0354056 0
-0.0308224 -0.0246583 0
-0.0214191 -0.0149177 0
-0.0142376 -0.00659287 0
-0.00896891 5.12558e-05 0
-0.00527704 0.00487546 0
-0.00283214 0.00784017 0
-0.0013305 0.00898067 0
-0.000504765 0.00838676 0
-0.000127819 0.00618714 0
-1.28548e-05 0.00253767 0
-0.000353867 0.00352154 0
-0.00173755 0.0104514 0
-0.00446497 0.0173125 0
-0.00850597 0.0239849 0
-0.0138078 0.0304028 0
-0.0203061 0.0365567 0
-0.0279366 0.0424847 0
-0.0366448 0.0482501 0
-0.0463911 0.053912 0
-0.0571489 0.0594905 0
-0.0688962 0.0649365 0
-0.0746087 0.0701114 0
-0.081227 0.0747618 0
-0.0957218 0.0792862 0
-0.111067 0.0831388 0
-0.127132 0.0858501 0
-0.143703 0.0869953 0
-0.160498 0.0861872 0
-0.177179 0.0830906 0
-0.193367 0.0774477 0
-0.208663 0.069104 0
-0.222659 0.0580274 0
-0.234961 0.0443156 0
-0.241921 0.0281914 0
-0.246487 0.0100244 0
-0.25151 -0.00868129 0
-0.253305 -0.0283572 0
-0.251634 -0.0480731 0
-0.246304 -0.0669541 0
-0.237186 -0.0840623 0
-0.22426 -0.0984413 0
-0.207672 -0.109171 0
-0.187789 -0.115449 0
-0.165247 -0.116695 0
-0.140968 -0.112654 0
-0.12779 -0.103478 0
-0.11538 -0.0898339 0
-0.0928869 -0.0779324 0
-0.0725075 -0.0650552 0
-0.0548422 -0.0515974 0
-0.0401199 -0.038382 0
-0.0282945 -0.0261533 0
-0.019137 -0.015468 0
-0.0123126 -0.00668757 0
-0.00744039 -6.93266e-06 0
-0.00413627 0.00450946 0
-0.00204063 0.00689279 0
-0.000833252 0.00724196 0
-0.000239754 0.00570277 0
-3.25658e-05 0.00245305 0
-0.000396088 0.00495816 0
-0.00193842 0.0143792 0
-0.00496525 0.0234068 0
-0.00942978 0.0319158 0
-0.0152607 0.0398574 0
-0.0223754 0.0472587 0
-0.030693 0.0542065 0
-0.0401454 0.0608177 0
-0.0506831 0.0671991 0
-0.0622732 0.0734052 0
-0.0748907 0.0794032 0
-0.0810196 0.0850527 0
-0.0880973 0.0900872 0
-0.103576 0.094992 0
-0.119913 0.0991273 0
-0.136962 0.101956 0
-0.154498 0.103005 0
-0.172231 0.101852 0
-0.18982 0.098142 0
-0.206887 0.0916073 0
-0.223042 0.0820976 0
-0.2379 0.0695957 0
-0.251104 0.0542225 0
-0.258404 0.0362285 0
-0.263492 0.0160204 0
-0.269826 -0.005243 0
-0.273012 -0.0276437 0
-0.272863 -0.0502932 0
-0.269155 -0.0723276 0
-0.26168 -0.0927994 0
-0.250275 -0.110699 0
-0.23489 -0.124992 0
-0.215668 -0.134684 0
-0.193017 -0.138932 0
-0.16767 -0.137169 0
-0.154232 -0.129221 0
-0.140521 -0.115468 0
-0.1143 -0.102765 0
-0.0901898 -0.0880289 0
-0.0689942 -0.072046 0
-0.0510749 -0.0559492 0
-0.036477 -0.0407339 0
-0.025014 -0.0271514 0
-0.0163482 -0.0157005 0
-0.0100638 -0.00666044 0
-0.00572339 -0.000138461 0
-0.00290705 0.00388389 0
-0.00123465 0.00551215 0
-0.000376591 0.00491044 0
-5.66433e-05 0.00228156 0
-0.000432505 0.00659615 0
-0.00211175 0.0188366 0
-0.00539717 0.0302954 0
-0.0102276 0.0408451 0
-0.0165156 0.0504603 0
-0.0241619 0.0592132 0
-0.0330705 0.0672497 0
-0.0431602 0.0747502 0
-0.0543717 0.0818782 0
-0.0666651 0.0887297 0
-0.0800117 0.0952933 0
-0.0864915 0.101431 0
-0.0939477 0.106868 0
-0.11022 0.112138 0
-0.127335 0.11652 0
-0.145127 0.119414 0
-0.163355 0.120302 0
-0.181719 0.118731 0
-0.199871 0.114325 0
-0.217435 0.106817 0
-0.234034 0.0960703 0
-0.249315 0.0820969 0
-0.262975 0.0650601 0
-0.270373 0.0452588 0
-0.275771 0.0231532 0
-0.283099 -0.000670062 0
-0.287503 -0.0256982 0
-0.288871 -0.051178 0
-0.286979 -0.076294 0
-0.28156 -0.100147 0
-0.272322 -0.121733 0
-0.259015 -0.139961 0
-0.241514 -0.153689 0
-0.219923 -0.161828 0
-0.194672 -0.163471 0
-0.181746 -0.158052 0
-0.167186 -0.145513 0
-0.137632 -0.132351 0
-0.109968 -0.11586 0
-0.0851794 -0.0972438 0
-0.0638325 -0.0779501 0
-0.0461453 -0.0592734 0
-0.0320391 -0.0422246 0
-0.0212175 -0.0275002 0
-0.0132537 -0.0155108 0
-0.00766611 -0.00643674 0
-0.00397403 -0.000289264 0
-0.00173189 0.00303661 0
-0.000547188 0.00372217 0
-8.68929e-05 0.0019971 0
-0.000460219 0.0084124 0
-0.00224426 0.0237645 0
-0.00572887 0.0378919 0
-0.010843 0.0506666 0
-0.0174873 0.0620912 0
-0.0255493 0.0722896 0
-0.0349198 0.0814752 0
-0.0455058 0.0899003 0
-0.0572372 0.0977934 0
-0.0700663 0.105298 0
-0.0839584 0.11243 0
-0.0907058 0.119057 0
-0.0984346 0.124898 0
-0.115249 0.130496 0
-0.132858 0.135062 0
-0.151073 0.137942 0
-0.169635 0.138574 0
-0.18823 0.136474 0
-0.206501 0.131259 0
-0.224076 0.122666 0
-0.240596 0.11059 0
-0.255753 0.095092 0
-0.269312 0.0763988 0
-0.276528 0.0548786 0
-0.281961 0.0310537 0
-0.289808 0.00480558 0
-0.295103 -0.0226079 0
-0.297816 -0.0506414 0
-0.297755 -0.0785655 0
-0.294631 -0.105587 0
-0.288057 -0.130781 0
-0.277605 -0.153073 0
-0.262886 -0.171255 0
-0.243661 -0.184048 0
-0.219972 -0.190232 0