# vtk DataFile Version 2.0
Velocidades
ASCII

DATASET STRUCTURED_GRID
DIMENSIONS   50   50   20

POINTS   50000   double
0.00568455   0.00568455   0.025
0.0174023   0.00568455   0.025
0.0298294   0.00568455   0.025
0.0429888   0.00568455   0.025
0.0569012   0.00568455   0.025
0.0715849   0.00568455   0.025
0.0870549   0.00568455   0.025
0.103323   0.00568455   0.025
0.120395   0.00568455   0.025
0.138275   0.00568455   0.025
0.156961   0.00568455   0.025
0.176443   0.00568455   0.025
0.196707   0.00568455   0.025
0.217734   0.00568455   0.025
0.239496   0.00568455   0.025
0.261959   0.00568455   0.025
0.285082   0.00568455   0.025
0.308818   0.00568455   0.025
0.333113   0.00568455   0.025
0.357906   0.00568455   0.025
0.383132   0.00568455   0.025
0.408719   0.00568455   0.025
0.434592   0.00568455   0.025
0.460672   0.00568455   0.025
0.486877   0.00568455   0.025
0.513123   0.00568455   0.025
0.539328   0.00568455   0.025
0.565408   0.00568455   0.025
0.591281   0.00568455   0.025
0.616868   0.00568455   0.025
0.642094   0.00568455   0.025
0.666887   0.00568455   0.025
0.691182   0.00568455   0.025
0.714918   0.00568455   0.025
0.738041   0.00568455   0.025
0.760504   0.00568455   0.025
0.782266   0.00568455   0.025
0.803293   0.00568455   0.025
0.823557   0.00568455   0.025
0.843039   0.00568455   0.025
0.861725   0.00568455   0.025
0.879605   0.00568455   0.025
0.896677   0.00568455   0.025
0.912945   0.00568455   0.025
0.928415   0.00568455   0.025
0.943099   0.00568455   0.025
0.957011   0.00568455   0.025
0.970171   0.00568455   0.025
0.982598   0.00568455   0.025
0.994315   0.00568455   0.025
0.00568455   0.0174023   0.025
0.0174023   0.0174023   0.025
0.0298294   0.0174023   0.025
0.0429888   0.0174023   0.025
0.0569012   0.0174023   0.025
0.0715849   0.0174023   0.025
0.0870549   0.0174023   0.025
0.103323   0.0174023   0.025
0.120395   0.0174023   0.025
0.138275   0.0174023   0.025
0.156961   0.0174023   0.025
0.176443   0.0174023   0.025
0.196707   0.0174023   0.025
0.217734   0.0174023   0.025
0.239496   0.0174023   0.025
0.261959   0.0174023   0.025
0.285082   0.0174023   0.025
0.308818   0.0174023   0.025
0.333113   0.0174023   0.025
0.357906   0.0174023   0.025
0.383132   0.0174023   0.025
0.408719   0.0174023   0.025
0.434592   0.0174023   0.025
0.460672   0.0174023   0.025
0.486877   0.0174023   0.025
0.513123   0.0174023   0.025
0.539328   0.0174023   0.025
0.565408   0.0174023   0.025
0.591281   0.0174023   0.025
0.616868   0.0174023   0.025
0.642094   0.0174023   0.025
0.666887   0.0174023   0.025
0.691182   0.0174023   0.025
0.714918   0.0174023   0.025
0.738041   0.0174023   0.025
0.760504   0.0174023   0.025
0.782266   0.0174023   0.025
0.803293   0.0174023   0.025
0.823557   0.0174023   0.025
0.843039   0.0174023   0.025
0.861725   0.0174023   0.025
0.879605   0.0174023   0.025
0.896677   0.0174023   0.025
0.912945   0.0174023   0.025
0.928415   0.0174023   0.025
0.943099   0.0174023   0.025
0.957011   0.0174023   0.025
0.970171   0.0174023   0.025
0.982598   0.0174023   0.025
0.994315   0.0174023   0.025
0.00568455   0.0298294   0.025
0.0174023   0.0298294   0.025
0.0298294   0.0298294   0.025
0.0429888   0.0298294   0.025
0.0569012   0.0298294   0.025
0.0715849   0.0298294   0.025
0.0870549   0.0298294   0.025
0.103323   0.0298294   0.025
0.120395   0.0298294   0.025
0.138275   0.0298294   0.025
0.156961   0.0298294   0.025
0.176443   0.0298294   0.025
0.196707   0.0298294   0.025
0.217734   0.0298294   0.025
0.239496   0.0298294   0.025
0.261959   0.0298294   0.025
0.285082   0.0298294   0.025
0.308818   0.0298294   0.025
0.333113   0.0298294   0.025
0.357906   0.0298294   0.025
0.383132   0.0298294   0.025
0.408719   0.0298294   0.025
0.434592   0.0298294   0.025
0.460672   0.0298294   0.025
0.486877   0.0298294   0.025
0.513123   0.0298294   0.025
0.539328   0.0298294   0.025
0.565408   0.0298294   0.025
0.591281   0.0298294   0.025
0.616868   0.0298294   0.025
0.642094   0.0298294   0.025
0.666887   0.0298294   0.025
0.691182   0.0298294   0.025
0.714918   0.0298294   0.025
0.738041   0.0298294   0.025
0.760504   0.0298294   0.025
0.782266   0.0298294   0.025
0.803293   0.0298294   0.025
0.823557   0.0298294   0.025
0.843039   0.0298294   0.025
0.861725   0.0298294   0.025
0.879605   0.0298294   0.025
0.896677   0.0298294   0.025
0.912945   0.0298294   0.025
0.928415   0.0298294   0.025
0.943099   0.0298294   0.025
0.957011   0.0298294   0.025
0.970171   0.0298294   0.025
0.982598   0.0298294   0.025
0.994315   0.0298294   0.025
0.00568455   0.0429888   0.025
0.0174023   0.0429888   0.025
0.0298294   0.0429888   0.025
0.0429888   0.0429888   0.025
0.0569012   0.0429888   0.025
0.0715849   0.0429888   0.025
0.0870549   0.0429888   0.025
0.103323   0.0429888   0.025
0.120395   0.0429888   0.025
0.138275   0.0429888   0.025
0.156961   0.0429888   0.025
0.176443   0.0429888   0.025
0.196707   0.0429888   0.025
0.217734   0.0429888   0.025
0.239496   0.0429888   0.025
0.261959   0.0429888   0.025
0.285082   0.0429888   0.025
0.308818   0.0429888   0.025
0.333113   0.0429888   0.025
0.357906   0.0429888   0.025
0.383132   0.0429888   0.025
0.408719   0.0429888   0.025
0.434592   0.0429888   0.025
0.460672   0.0429888   0.025
0.486877   0.0429888   0.025
0.513123   0.0429888   0.025
0.539328   0.0429888   0.025
0.565408   0.0429888   0.025
0.591281   0.0429888   0.025
0.616868   0.0429888   0.025
0.642094   0.0429888   0.025
0.666887   0.0429888   0.025
0.691182   0.0429888   0.025
0.714918   0.0429888   0.025
0.738041   0.0429888   0.025
0.760504   0.0429888   0.025
0.782266   0.0429888   0.025
0.803293   0.0429888   0.025
0.823557   0.0429888   0.025
0.843039   0.0429888   0.025
0.861725   0.0429888   0.025
0.879605   0.0429888   0.025
0.896677   0.0429888   0.025
0.912945   0.0429888   0.025
0.928415   0.0429888   0.025
0.943099   0.0429888   0.025
0.957011   0.0429888   0.025
0.970171   0.0429888   0.025
0.982598   0.0429888   0.025
0.994315   0.0429888   0.025
0.00568455   0.0569012   0.025
0.0174023   0.0569012   0.025
0.0298294   0.0569012   0.025
0.0429888   0.0569012   0.025
0.0569012   0.0569012   0.025
0.0715849   0.0569012   0.025
0.0870549   0.0569012   0.025
0.103323   0.0569012   0.025
0.120395   0.0569012   0.025
0.138275   0.0569012   0.025
0.156961   0.0569012   0.025
0.176443   0.0569012   0.025
0.196707   0.0569012   0.025
0.217734   0.0569012   0.025
0.239496   0.0569012   0.025
0.261959   0.0569012   0.025
0.285082   0.0569012   0.025
0.308818   0.0569012   0.025
0.333113   0.0569012   0.025
0.357906   0.0569012   0.025
0.383132   0.0569012   0.025
0.408719   0.0569012   0.025
0.434592   0.0569012   0.025
0.460672   0.0569012   0.025
0.486877   0.0569012   0.025
0.513123   0.0569012   0.025
0.539328   0.0569012   0.025
0.565408   0.0569012   0.025
0.591281   0.0569012   0.025
0.616868   0.0569012   0.025
0.642094   0.0569012   0.025
0.666887   0.0569012   0.025
0.691182   0.0569012   0.025
0.714918   0.0569012   0.025
0.738041   0.0569012   0.025
0.760504   0.0569012   0.025
0.782266   0.0569012   0.025
0.803293   0.0569012   0.025
0.823557   0.0569012   0.025
0.843039   0.0569012   0.025
0.861725   0.0569012   0.025
0.879605   0.0569012   0.025
0.896677   0.0569012   0.025
0.912945   0.0569012   0.025
0.928415   0.0569012   0.025
0.943099   0.0569012   0.025
0.957011   0.0569012   0.025
0.970171   0.0569012   0.025
0.982598   0.0569012   0.025
0.994315   0.0569012   0.025
0.00568455   0.0715849   0.025
0.0174023   0.0715849   0.025
0.0298294   0.0715849   0.025
0.0429888   0.0715849   0.025
0.0569012   0.0715849   0.025
0.0715849   0.0715849   0.025
0.0870549   0.0715849   0.025
0.103323   0.0715849   0.025
0.120395   0.0715849   0.025
0.138275   0.0715849   0.025
0.156961   0.0715849   0.025
0.176443   0.0715849   0.025
0.196707   0.0715849   0.025
0.217734   0.0715849   0.025
0.239496   0.0715849   0.025
0.261959   0.0715849   0.025
0.285082   0.0715849   0.025
0.308818   0.0715849   0.025
0.333113   0.0715849   0.025
0.357906   0.0715849   0.025
0.383132   0.0715849   0.025
0.408719   0.0715849   0.025
0.434592   0.0715849   0.025
0.460672   0.0715849   0.025
0.486877   0.0715849   0.025
0.513123   0.0715849   0.025
0.539328   0.0715849   0.025
0.565408   0.0715849   0.025
0.591281   0.0715849   0.025
0.616868   0.0715849   0.025
0.642094   0.0715849   0.025
0.666887   0.0715849   0.025
0.691182   0.0715849   0.025
0.714918   0.0715849   0.025
0.738041   0.0715849   0.025
0.760504   0.0715849   0.025
0.782266   0.0715849   0.025
0.803293   0.0715849   0.025
0.823557   0.0715849   0.025
0.843039   0.0715849   0.025
0.861725   0.0715849   0.025
0.879605   0.0715849   0.025
0.896677   0.0715849   0.025
0.912945   0.0715849   0.025
0.928415   0.0715849   0.025
0.943099   0.0715849   0.025
0.957011   0.0715849   0.025
0.970171   0.0715849   0.025
0.982598   0.0715849   0.025
0.994315   0.0715849   0.025
0.00568455   0.0870549   0.025
0.0174023   0.0870549   0.025
0.0298294   0.0870549   0.025
0.0429888   0.0870549   0.025
0.0569012   0.0870549   0.025
0.0715849   0.0870549   0.025
0.0870549   0.0870549   0.025
0.103323   0.0870549   0.025
0.120395   0.0870549   0.025
0.138275   0.0870549   0.025
0.156961   0.0870549   0.025
0.176443   0.0870549   0.025
0.196707   0.0870549   0.025
0.217734   0.0870549   0.025
0.239496   0.0870549   0.025
0.261959   0.0870549   0.025
0.285082   0.0870549   0.025
0.308818   0.0870549   0.025
0.333113   0.0870549   0.025
0.357906   0.0870549   0.025
0.383132   0.0870549   0.025
0.408719   0.0870549   0.025
0.434592   0.0870549   0.025
0.460672   0.0870549   0.025
0.486877   0.0870549   0.025
0.513123   0.0870549   0.025
0.539328   0.0870549   0.025
0.565408   0.0870549   0.025
0.591281   0.0870549   0.025
0.616868   0.0870549   0.025
0.642094   0.0870549   0.025
0.666887   0.0870549   0.025
0.691182   0.0870549   0.025
0.714918   0.0870549   0.025
0.738041   0.0870549   0.025
0.760504   0.0870549   0.025
0.782266   0.0870549   0.025
[...]
POINT_DATA   50000
VECTORS Velocidades double

-4.17865e-05 -0.000932411 0
-0.00011432 -0.00180864 0
-0.000162259 -0.00227826 0
-0.000191318 -0.0025199 0
-0.000218553 -0.00260929 0
-0.000259287 -0.00258668 0
-0.000324197 -0.0024774 0
-0.000419944 -0.00229875 0
-0.000550441 -0.00206229 0
-0.000718268 -0.00177383 0
-0.000926639 -0.00143108 0
-0.0010323 -0.00101302 0
-0.00117333 -0.000432038 0
-0.00150791 -4.15324e-05 0
-0.00189394 0.000250826 0
-0.00231026 0.000470388 0
-0.00274987 0.000621517 0
-0.00320646 0.000698475 0
-0.00367079 0.000690688 0
-0.0041291 0.000587027 0
-0.00456256 0.000379819 0
-0.00494767 6.84264e-05 0
-0.00525828 -0.000338272 0
-0.00547468 -0.000821318 0
-0.00555783 -0.00135453 0
-0.00547527 -0.00186826 0
-0.00522651 -0.00231172 0
-0.00481666 -0.00263339 0
-0.00426479 -0.00278901 0
-0.00360443 -0.00274805 0
-0.00288057 -0.00249915 0
-0.00214394 -0.00205294 0
-0.00144387 -0.00144179 0
-0.00082116 -0.000716793 0
-0.000301807 5.57759e-05 0
-1.21131e-05 0.000793516 0
0.000167358 0.00137747 0
0.00037112 0.00205764 0
0.000492319 0.00271167 0
0.000533491 0.00328926 0
0.000509537 0.00376577 0
0.000436519 0.00412876 0
0.000329779 0.00437169 0
0.00020394 0.00449015 0
7.35373e-05 0.00447913 0
-4.59561e-05 0.00432969 0
-0.000136822 0.00402348 0
-0.000178444 0.00352036 0
-0.000151833 0.00272515 0
-5.97382e-05 0.00138198 0
-0.000139979 -0.00171637 0
-0.00037272 -0.00352463 0
-0.000508857 -0.00451569 0
-0.000581114 -0.00501416 0
-0.000652529 -0.00518278 0
-0.00077005 -0.00511343 0
-0.000964324 -0.00486417 0
-0.00125428 -0.00447405 0
-0.00165121 -0.00396844 0
-0.00216282 -0.00335943 0
-0.00279901 -0.00264041 0
-0.00308358 -0.00176425 0
-0.00352308 -0.000568617 0
-0.00460352 0.000240908 0
-0.00580261 0.000842224 0
-0.00709117 0.00129218 0
-0.00845082 0.00160103 0
-0.00986124 0.00175594 0
-0.0112919 0.00173302 0
-0.0126976 0.00150675 0
-0.0140177 0.00105867 0
-0.0151777 0.000385243 0
-0.0160958 -0.000496401 0
-0.0167189 -0.00154701 0
-0.0169292 -0.00272044 0
-0.0166319 -0.0038618 0
-0.0158397 -0.00486307 0
-0.0145731 -0.00561353 0
-0.0128919 -0.00601576 0
-0.0108955 -0.00600024 0
-0.0087142 -0.00553783 0
-0.00649409 -0.00464684 0
-0.00437826 -0.00339313 0
-0.00248751 -0.00188445 0
-0.000902655 -0.000263521 0
-4.60294e-05 0.00128912 0
0.000507938 0.00252596 0
0.00117465 0.00396312 0
0.00155851 0.00534849 0
0.00169017 0.00657334 0
0.0016165 0.00758568 0
0.0013867 0.00835968 0
0.00104822 0.00888143 0
0.000646745 0.00914073 0
0.000227715 0.00912496 0
-0.000160913 0.00881178 0
-0.000464423 0.00815676 0
-0.000615652 0.00706738 0
-0.00053694 0.00534348 0
-0.000215025 0.00253579 0
-0.000103755 -0.00145134 0
-0.000339608 -0.00329211 0
-0.000585329 -0.00436137 0
-0.000807188 -0.00488634 0
-0.00104611 -0.00503017 0
-0.00135545 -0.00490205 0
-0.00177983 -0.0045756 0
-0.00235154 -0.00410061 0
-0.00309284 -0.00350849 0
-0.0040206 -0.00281286 0
-0.00515257 -0.00200366 0
-0.00567222 -0.00102661 0
-0.00642376 0.000253981 0
-0.00823254 0.00113689 0
-0.0102333 0.00178588 0
-0.0123894 0.00226759 0
-0.0146677 0.00259481 0
-0.0170284 0.00275098 0
-0.019415 0.00270502 0
-0.0217481 0.00242282 0
-0.023924 0.00187788 0
-0.0258185 0.00106088 0
-0.0272959 -1.26881e-05 0
-0.0282855 -0.00130058 0
-0.0285984 -0.0027608 0
-0.0280824 -0.00420947 0
-0.0267752 -0.00551852 0
-0.0247116 -0.00655689 0
-0.021987 -0.00720424 0
-0.0187559 -0.0073692 0
-0.0152188 -0.00700606 0
-0.011601 -0.00612514 0
-0.00812417 -0.00479487 0
-0.00497839 -0.00313675 0
-0.0022962 -0.00131875 0
-0.000828861 0.000442334 0
0.000133143 0.0018742 0
0.00130857 0.00352135 0
0.00202506 0.0051137 0
0.00233773 0.00652535 0
0.00231984 0.00769714 0
0.00204948 0.00859982 0
0.0016045 0.00921631 0
0.00106189 0.00953184 0
0.000498978 0.00952657 0
-4.8117e-06 0.00916735 0
-0.000367717 0.00839508 0
-0.000513443 0.00710394 0
-0.000405366 0.0051118 0
-0.000143735 0.00214599 0
-7.11421e-05 -0.00125023 0
-0.00028594 -0.00299127 0
-0.000607062 -0.00406021 0
-0.000992273 -0.00457653 0
-0.00145461 -0.00467247 0
-0.00203315 -0.00445991 0
-0.00277129 -0.00402452 0
-0.00370679 -0.00342754 0
-0.00486976 -0.00270797 0
-0.00628483 -0.00188225 0
-0.00797472 -0.000938989 0
-0.008769 0.000176131 0
-0.00985275 0.0015712 0
-0.0124027 0.0025586 0
-0.0152115 0.00328489 0
-0.0182406 0.00381976 0
-0.0214428 0.00417599 0
-0.0247566 0.0043307 0
-0.0280964 0.00424212 0
-0.0313466 0.00386376 0
-0.03436 0.00315768 0
-0.0369644 0.00210667 0
-0.0389739 0.000724173 0
-0.0403075 -0.000942326 0
-0.0407146 -0.00283826 0
-0.039995 -0.00475434 0
-0.0382165 -0.0065306 0
-0.035425 -0.00800636 0
-0.0317436 -0.00902845 0
-0.0273704 -0.00947423 0
-0.022563 -0.00927397 0
-0.0176117 -0.00842569 0
-0.0128056 -0.007 0
-0.00839817 -0.00513628 0
-0.00457564 -0.00303537 0
-0.00246425 -0.000957387 0
-0.00105542 0.000791272 0
0.000704627 0.00276279 0
0.00184263 0.00466641 0
0.00243935 0.00635888 0
0.00259132 0.0077712 0
0.00240134 0.00886751 0
0.0019738 0.00962435 0
0.00141268 0.0100193 0
0.000820344 0.010023 0
0.000294814 0.00959228 0
-7.75968e-05 0.00866189 0
-0.000240052 0.00713958 0
-0.000199006 0.00491381 0
-6.68574e-05 0.00190483 0
-5.84435e-05 -0.00109239 0
-0.000273798 -0.00264458 0
-0.000669027 -0.0036063 0
-0.00122192 -0.00403672 0
-0.00193545 -0.00403274 0
-0.00283363 -0.00369594 0
-0.00395039 -0.00311516 0
-0.00532075 -0.00235899 0
-0.00697659 -0.00147277 0
-0.0089459 -0.000476441 0
-0.0112527 0.000639596 0
-0.0123535 0.001923 0
-0.0137919 0.00345354 0
-0.0171137 0.00457279 0
-0.0207532 0.00540581 0
-0.024673 0.00601655 0
-0.0288143 0.0064124 0
-0.0330934 0.00656028 0
-0.0373947 0.00640407 0
-0.0415653 0.00588143 0
-0.045416 0.00494026 0
-0.0487286 0.00355406 0
-0.0512718 0.00173489 0
-0.0529468 -0.000460088 0
-0.0534578 -0.00294866 0
-0.0525767 -0.00549465 0
-0.0503925 -0.00790101 0
-0.0469559 -0.00996971 0
-0.0424077 -0.0115055 0
-0.0369779 -0.0123455 0
-0.0309684 -0.0123884 0
-0.0247238 -0.0116143 0
-0.0185936 -0.0100937 0
-0.0128928 -0.00798498 0
-0.00786651 -0.0055255 0
-0.00507406 -0.00302238 0
-0.00317142 -0.000823507 0
-0.000725548 0.00159035 0
0.000944188 0.00390935 0
0.00194373 0.00597595 0
0.00238957 0.00771017 0
0.00240433 0.00906663 0
0.00211323 0.0100125 0
0.00164032 0.0105163 0
0.00110377 0.0105407 0
0.000608718 0.0100392 0
0.000236172 0.00895603 0
2.73063e-05 0.00723406 0
-3.25461e-05 0.00483894 0
-1.54915e-05 0.00180587 0
-6.08814e-05 -0.000938516 0
-0.000306271 -0.00222852 0
-0.000798546 -0.00297741 0
-0.00153723 -0.00322463 0
-0.00252726 -0.00304442 0
-0.00378397 -0.00252517 0
-0.00533105 -0.00175201 0
-0.00719626 -0.000795107 0
-0.00940795 0.000297152 0
-0.0119927 0.00150195 0
-0.0149724 0.00282485 0
-0.0164077 0.00430242 0
-0.0182246 0.00598538 0
-0.0223595 0.00726031 0
-0.0268653 0.00822749 0
-0.0317065 0.00893625 0
-0.036814 0.0093814 0
-0.0420832 0.00951448 0
-0.0473687 0.00926095 0
-0.0524817 0.00853945 0
-0.0571924 0.00728163 0
-0.061241 0.00545114 0
-0.0643554 0.00306014 0
-0.0663906 0.000180423 0
-0.0670357 -0.00306816 0
-0.0660702 -0.00640939 0
-0.0635744 -0.00961455 0
-0.0595945 -0.0124424 0
-0.0542773 -0.0146465 0
-0.0478717 -0.0160146 0
-0.040713 -0.0164049 0
-0.0331914 -0.0157721 0
-0.0257133 -0.0141815 0
-0.0186573 -0.0118078 0
-0.0123351 -0.00892516 0
-0.00881111 -0.00588998 0
-0.00635486 -0.00309959 0
-0.00309537 -0.000122653 0
-0.000759011 0.00271686 0
0.000781804 0.00525267 0
0.00165831 0.00739428 0
0.0020071 0.00908446 0
0.00196805 0.0102791 0
0.00167878 0.0109374 0
0.00126695 0.0110184 0
0.000840977 0.0104801 0
0.000479915 0.00928639 0
0.00022502 0.0074188 0
7.82514e-05 0.00489781 0
1.49025e-05 0.00180624 0
-7.33121e-05 -0.000755842 0
-0.000375005 -0.00169806 0
-0.000995943 -0.00212786 0
-0.00195028 -0.00208613 0
-0.00324784 -0.00163833 0
-0.00490004 -0.000863193 0
-0.0069223 0.000160632 0
-0.00933389 0.00136609 0
-0.0121565 0.00270564 0
-0.0154119 0.00415537 0
-0.0191172 0.00571611 0
-0.0209124 0.00741115 0
-0.0231319 0.00926203 0
-0.0281283 0.0107147 0
-0.0335463 0.0118416 0
-0.0393513 0.0126693 0
-0.0454653 0.0131722 0
-0.0517638 0.0132804 0
-0.0580738 0.0128967 0
-0.0641728 0.0119177 0
-0.0697944 0.0102574 0
-0.0746411 0.00786946 0
-0.078405 0.00476797 0
-0.0808417 0.00104279 0
-0.0816738 -0.00314486 0
-0.0807422 -0.00745019 0
-0.0780641 -0.0116324 0
-0.073668 -0.0154022 0
-0.0676927 -0.0184528 0
-0.0603935 -0.0205123 0
-0.0521278 -0.0213876 0
-0.0433251 -0.0209978 0
-0.0344471 -0.0193934 0
-0.0259411 -0.0167593 0
-0.0181954 -0.0134032 0
-0.01387 -0.00973191 0
-0.0107828 -0.0062011 0
-0.00654978 -0.00253949 0
-0.00338143 0.000927314 0
-0.0011355 0.00403274 0
0.000326322 0.00667686 0
0.00114812 0.00878839 0
0.00147919 0.01031 0
0.00146691 0.0111924 0
0.00124696 0.0113937 0
0.000933742 0.0108816 0
0.000613041 0.00964096 0
0.000339395 0.00768401 0
0.000140766 0.00506171 0
3.11588e-05 0.00186957 0
-9.26069e-05 -0.000518142 0
-0.00047215 -0.00100173 0
-0.00125372 -0.00099636 0
-0.00245862 -0.000552714 0
-0.00409958 0.00026346 0
-0.00618532 0.00137848 0
-0.00872451 0.00272038 0
-0.0117282 0.00422827 0
-0.0152101 0.005859 0
-0.0191855 0.00759011 0
-0.0236655 0.00941829 0
-0.0258433 0.0113532 0
-0.0284897 0.0133879 0
-0.0344 0.0150407 0
-0.0407835 0.0163522 0
-0.0476052 0.017319 0
-0.0547784 0.0178876 0
-0.0621609 0.0179602 0
-0.0695547 0.0174126 0
-0.0767074 0.0161168 0
-0.0833205 0.013968 0
-0.0890641 0.0109103 0
-0.0935977 0.00696035 0
-0.0964985 0.00222684 0
-0.0975935 -0.00309021 0
-0.0968609 -0.00853305 0
-0.0941696 -0.0138848 0
-0.0895151 -0.0188028 0
-0.0830136 -0.0229102 0
-0.0749131 -0.0258638 0
-0.065582 -0.0274062 0
-0.0554823 -0.0274063 0
-0.0451305 -0.0258862 0
-0.0350487 -0.0230295 0
-0.0257138 -0.0191702 0
-0.0204951 -0.0147646 0
-0.0166782 -0.0103362 0
-0.0112713 -0.00587029 0
-0.00706637 -0.00166709 0
-0.00391802 0.00211832 0
-0.00169106 0.00537676 0
-0.000240465 0.00801918 0
0.000589237 0.00997188 0
0.00095472 0.0111762 0
0.00100233 0.0115899 0
0.000858455 0.0111905 0
0.000624058 0.0099799 0
0.000374501 0.00799063 0
0.00016472 0.00528821 0
3.78009e-05 0.00196857 0
-0.000117004 -0.000202933 0
-0.000591992 -8.72463e-05 0
-0.00156332 0.000486275 0
-0.00305368 0.00145469 0
-0.00507512 0.00274771 0
-0.00763256 0.00429379 0
-0.0107281 0.00602752 0
-0.0143648 0.00789635 0
-0.0185486 0.00986482 0
-0.0232875 0.0119147 0
-0.0285869 0.0140402 0
-0.0311671 0.0162383 0
-0.0342637 0.0184747 0
-0.0411425 0.0203523 0
-0.0485494 0.0218747 0
-0.0564483 0.0230017 0
-0.0647439 0.0236446 0
-0.0732787 0.0236723 0
-0.0818332 0.0229292 0
-0.0901299 0.0212608 0
-0.0978435 0.0185425 0
-0.104616 0.0147084 0
-0.110078 0.0097773 0
-0.113522 0.00387356 0
-0.114977 -0.00277141 0
-0.114655 -0.00953104 0
-0.112162 -0.0162636 0
-0.107442 -0.0225657 0
-0.100576 -0.0279799 0
-0.0917901 -0.0320794 0
-0.0814505 -0.0345268 0
-0.0700428 -0.0351224 0
-0.0581358 -0.0338403 0
-0.0463313 -0.030845 0
-0.0352072 -0.0264843 0
-0.0289842 -0.0212595 0
-0.0243152 -0.0157688 0
-0.0174831 -0.0103859 0
-0.011987 -0.00533372 0
-0.00769563 -0.000741742 0
-0.00448989 0.00326821 0
-0.00222981 0.00658181 0
-0.000754666 0.00910288 0
0.000104169 0.0107595 0
0.000508961 0.0115069 0
0.000604973 0.0113288 0
0.000515037 0.0102391 0
0.000339188 0.00828244 0
0.000158035 0.00553163 0
3.75708e-05 0.00208183 0
-0.000145423 0.000210333 0
-0.00073029 0.0010967 0
-0.00191653 0.0023919 0
-0.00372411 0.00402048 0
-0.00616079 0.00590659 0
-0.00922555 0.00798033 0
-0.0129131 0.0101838 0
-0.0172186 0.0124752 0
-0.0221403 0.0148301 0
-0.0276799 0.0172376 0
-0.0338376 0.0196919 0
-0.0368367 0.0221791 0
-0.040405 0.0246391 0
-0.0483056 0.0267705 0
-0.0567948 0.0285332 0
-0.0658347 0.029844 0
-0.0753222 0.0305729 0
-0.0850866 0.0305503 0
-0.0948911 0.0295861 0
-0.104438 0.0274969 0
-0.113381 0.0241375 0
-0.121338 0.019431 0
-0.127913 0.0133957 0
-0.131987 0.00616544 0
-0.133915 -0.00200741 0
-0.134257 -0.0102705 0
-0.13221 -0.0186175 0
-0.127657 -0.0265719 0
-0.120627 -0.0335867 0
-0.111311 -0.0391395 0
-0.100058 -0.0427957 0
-0.0873628 -0.0442647 0
-0.0738377 -0.043447 0
-0.060164 -0.0404626 0
-0.0470311 -0.0356523 0
-0.0396836 -0.0295501 0
-0.0340171 -0.0228322 0
-0.0254473 -0.0164345 0
-0.0183439 -0.0104154 0
-0.012616 -0.00486564 0
-0.00817579 6.89967e-05 0
-0.00489333 0.00423494 0
-0.00260117 0.00750292 0
-0.00111375 0.00978075 0
-0.000246139 0.0110159 0
0.000172759 0.0111938 0
0.00029318 0.0103356 0
0.000242557 0.00849356 0
0.000126721 0.00574632 0
3.2224e-05 0.0021915 0
-0.000177042 0.000740919 0
-0.000883382 0.00259935 0
-0.00230509 0.00479124 0
-0.00445633 0.00722916 0
-0.00733759 0.00983266 0
-0.0109396 0.0125351 0
-0.0152485 0.0152888 0
-0.0202513 0.0180662 0
-0.0259392 0.0208579 0
-0.0323084 0.0236639 0
-0.0393555 0.0264813 0
-0.0427853 0.0292873 0
-0.0468433 0.0319985 0
-0.0558137 0.0344183 0
-0.0654397 0.0364557 0
-0.0756813 0.0379784 0
-0.0864285 0.03881 0
-0.0975002 0.0387383 0
-0.108646 0.0375358 0
-0.119553 0.0349886 0
-0.129856 0.0309296 0
-0.139157 0.0252688 0
-0.147033 0.0180201 0
-0.151818 0.0093189 0
-0.154336 -0.000571785 0
-0.155619 -0.0105341 0
-0.154294 -0.0207499 0
-0.150173 -0.030654 0
-0.143228 -0.0396042 0
-0.133598 -0.0469733 0
-0.121594 -0.0522129 0
-0.1077 -0.0549172 0
-0.0925518 -0.0548821 0
-0.0769008 -0.0521484 0
-0.0615494 -0.0470177 0
-0.0529686 -0.0400329 0
-0.0461419 -0.0319417 0
-0.035454 -0.0244587 0
-0.0263585 -0.0173458 0
-0.0188415 -0.0106517 0
-0.0128638 -0.00457101 0
-0.00830864 0.000680768 0
-0.0049986 0.00492529 0
-0.00272467 0.00803968 0
-0.00127173 0.00995677 0
-0.000435819 0.0106591 0
-3.38551e-05 0.0101712 0
9.23114e-05 0.00855208 0
7.52662e-05 0.00588737 0
2.29669e-05 0.00228198 0
-0.000211048 0.00140659 0
-0.00104743 0.00446624 0
-0.00271967 0.00775015 0
-0.00523383 0.0111598 0
-0.00858074 0.0146127 0
-0.012741 0.0180488 0
-0.0176909 0.0214348 0
-0.0234092 0.0247628 0
-0.0298806 0.0280427 0
-0.0370971 0.0312902 0
-0.0450534 0.0345084 0
-0.0489201 0.0376682 0
-0.0534799 0.0406647 0
-0.0635566 0.0434144 0
-0.0743619 0.0457667 0
-0.0858535 0.0475348 0
-0.0979153 0.0484918 0
-0.110358 0.0483797 0
-0.12292 0.0469314 0
-0.135276 0.043901 0
-0.147051 0.0390977 0
-0.157826 0.0324163 0
-0.167162 0.023862 0
-0.172715 0.0135653 0
-0.175927 0.00179296 0
-0.178425 -0.0100733 0
-0.1781 -0.0224249 0
-0.174701 -0.034592 0
-0.168141 -0.0458396 0
-0.15849 -0.0554322 0
-0.145998 -0.0626958 0
-0.131105 -0.0670863 0
-0.11444 -0.0682606 0
-0.0967975 -0.0661371 0
-0.0790779 -0.0609316 0
-0.0692016 -0.0531547 0
-0.0610489 -0.043602 0
-0.0477981 -0.0350064 0
-0.0362607 -0.0266581 0
-0.0265467 -0.0185867 0
-0.0186814 -0.0110784 0
-0.0125639 -0.00444357 0
-0.00800283 0.00106907 0
-0.00475916 0.00529224 0
-0.00258005 0.00813582 0
-0.00122148 0.0095744 0
-0.000461459 0.00963409 0
-0.000106416 0.00838079 0
6.69131e-06 0.00591016 0
1.06089e-05 0.00233919 0
-0.000246478 0.00222273 0
-0.00121782 0.00673646 0
-0.00314887 0.011325 0
-0.00603587 0.0158802 0
-0.00985834 0.0203205 0
-0.0145853 0.0245979 0
-0.0201828 0.0286994 0
-0.0266208 0.0326426 0
-0.0338785 0.0364633 0
-0.0419446 0.0401973 0
-0.0508136 0.0438578 0
-0.0551157 0.0474119 0
-0.0601808 0.0507355 0
-0.0713804 0.0538624 0
-0.0833852 0.056575 0
-0.0961496 0.0586266 0
-0.109552 0.0597367 0
-0.123395 0.0595991 0
-0.137408 0.0579052 0
-0.151258 0.0543755 0
-0.164555 0.0487942 0
-0.176872 0.0410395 0
-0.187756 0.0311063 0
-0.194084 0.019118 0
-0.198061 0.0053451 0
-0.201997 -0.00863587 0
-0.202921 -0.023383 0
-0.20054 -0.0381174 0
-0.194705 -0.0520235 0
-0.18541 -0.0642641 0
-0.172816 -0.0740373 0
-0.157281 -0.080645 0
-0.13938 -0.0835722 0
-0.119896 -0.0825656 0
-0.0997927 -0.0776946 0
-0.0886558 -0.0693746 0
-0.0790357 -0.0583988 0
-0.0627404 -0.0487211 0
-0.0482733 -0.0389769 0
-0.0359173 -0.0292428 0
-0.0257764 -0.0199593 0
-0.0177691 -0.0115722 0
-0.0116892 -0.00442813 0
-0.00726377 0.00124405 0
-0.00419588 0.00532062 0
-0.00219446 0.00776275 0
-0.00099178 0.00859636 0
-0.000352639 0.00789539 0
-7.78477e-05 0.00576863 0
-4.46767e-06 0.00234972 0
-0.000282113 0.00320091 0
-0.00138876 0.00943898 0
-0.00357835 0.0155571 0
-0.00683635 0.0214391 0
-0.0111301 0.027009 0
-0.0164164 0.0322366 0
-0.0226506 0.0371366 0
-0.0297944 0.0417595 0
-0.0378217 0.0461738 0
-0.0467194 0.0504411 0
-0.0564829 0.0545887 0
-0.0612088 0.0585825 0
-0.0667699 0.0622815 0
-0.0790789 0.065837 0
-0.092268 0.0689571 0
-0.106287 0.0713317 0
-0.121007 0.0726235 0
-0.136222 0.0724761 0
-0.151654 0.0705376 0
-0.166957 0.0664942 0
-0.181733 0.060105 0
-0.195548 0.0512329 0
-0.207949 0.0398659 0
-0.214998 0.0261256 0
-0.219747 0.0102952 0
-0.225243 -0.00600591 0
-0.22759 -0.0233708 0
-0.226486 -0.0409299 0
-0.221734 -0.0578115 0
-0.213245 -0.0730969 0
-0.201068 -0.0858689 0
-0.185434 -0.0952737 0
-0.1668 -0.100602 0
-0.145871 -0.101381 0
-0.123596 -0.0974638 0
-0.111394 -0.0890872 0
-0.100237 -0.0769548 0
-0.0804485 -0.0662936 0
-0.0625883 -0.0549801 0
-0.0471487 -0.0432578 0
-0.0343254 -0.031793 0
-0.0240688 -0.0212139 0
-0.0161664 -0.0119977 0
-0.0103133 -0.00445831 0
-0.00616622 0.0012321 0
-0.00338125 0.00501331 0
-0.00163778 0.00690823 0
-0.000651502 0.00699947 0
-0.00017976 0.00541184 0
-2.24391e-05 0.00229948 0
-0.000316409 0.00434703 0
-0.00155301 0.0125879 0
-0.00399037 0.0204658 0
-0.00760309 0.0278588 0
-0.0123463 0.0347009 0
-0.018165 0.0409869 0
-0.0250038 0.0467671 0
-0.0328168 0.0521331 0
-0.0415732 0.0571933 0
-0.0512585 0.0620413 0
-0.0618696 0.0667224 0
-0.0669951 0.0712044 0
-0.0730261 0.0753312 0
-0.0863887 0.0793657 0
-0.100697 0.0829372 0
-0.115893 0.0856686 0
-0.131839 0.0871635 0
-0.148316 0.087013 0
-0.165035 0.0848211 0
-0.181637 0.0802396 0
-0.197717 0.0730053 0
-0.212841 0.0629718 0
-0.226569 0.0501307 0
-0.234204 0.0346166 0
-0.23965 0.0167429 0
-0.246667 -0.00205607 0
-0.250485 -0.0221842 0
-0.250836 -0.0427329 0
-0.247496 -0.0628084 0
-0.240295 -0.0814461 0
-0.229156 -0.0976457 0
-0.214144 -0.110417 0
-0.195532 -0.118854 0
-0.173857 -0.122232 0
-0.149951 -0.120124 0
-0.137101 -0.11249 0
-0.124478 -0.0998197 0
-0.100913 -0.0883479 0
-0.0793263 -0.0753194 0
-0.0604292 -0.0612898 0
-0.0445314 -0.0472138 0
-0.0316473 -0.0339494 0
-0.0215838 -0.0221465 0
-0.014019 -0.0122379 0
-0.00856744 -0.00446734 0
-0.00482988 0.00106998 0
-0.00242657 0.00438779 0
-0.00101601 0.00557634 0
-0.000303696 0.00477825 0
-4.41799e-05 0.00217139 0
-0.000347496 0.00565908 0
-0.00170187 0.0161773 0
-0.00436373 0.0260412 0
-0.00829789 0.0351255 0
-0.0134485 0.0433793 0
-0.0197495 0.0508287 0
-0.0271362 0.0575679 0
-0.0355551 0.063738 0
-0.0449712 0.0694946 0
-0.0553686 0.074969 0
-0.0667452 0.080229 0
-0.0722313 0.0852466 0
-0.078685 0.0898526 0
-0.0929911 0.0944088 0
-0.10829 0.0984634 0
-0.124512 0.10157 0
-0.141502 0.103271 0
-0.159029 0.103102 0
-0.176783 0.100624 0
-0.194395 0.0954555 0
-0.211452 0.0873187 0
-0.227528 0.0760703 0
-0.242214 0.0617233 0
-0.250221 0.0444485 0
-0.25619 0.0246117 0
-0.264487 0.00320045 0
-0.269658 -0.0197205 0
-0.271511 -0.0432862 0
-0.269817 -0.0666183 0
-0.264347 -0.0887576 0
-0.254898 -0.108673 0
-0.241348 -0.125282 0
-0.223731 -0.137512 0
-0.202325 -0.144383 0
-0.177726 -0.145142 0
-0.164888 -0.139393 0
-0.151092 -0.127263 0
-0.123829 -0.115255 0
-0.0984573 -0.100494 0
-0.0758865 -0.083941 0
-0.05659 -0.0668697 0
-0.0407095 -0.0504151 0
-0.0281235 -0.0354564 0
-0.0185257 -0.0225958 0
-0.0115049 -0.0121862 0
-0.00661047 -0.00438218 0
-0.0034 0.000808297 0
-0.00146747 0.00347834 0
-0.000457729 0.00378841 0
-7.13048e-05 0.00194254 0
-0.000373234 0.0071251 0
-0.00182541 0.0201758 0
-0.00467444 0.032237 0
-0.0088777 0.0431817 0
-0.0143708 0.0529782 0
-0.0210787 0.0616904 0
-0.0289286 0.069463 0
-0.0378605 0.076494 0
-0.0478345 0.0829932 0
-0.0588326 0.0891351 0
-0.0708522 0.0950137 0
-0.0766429 0.100608 0
-0.0834475 0.105736 0
-0.0985241 0.11084 0
-0.114612 0.115387 0
-0.131622 0.118861 0
-0.14938 0.120738 0
-0.167631 0.120501 0
-0.186046 0.117664 0
-0.20424 0.111824 0
-0.221798 0.102696 0
-0.238314 0.0901617 0
-0.253426 0.0742779 0
-0.261524 0.0552794 0
-0.267751 0.0336055 0
-0.276883 0.00957428 0
-0.283109 -0.0160265 0
-0.286337 -0.0424653 0
-0.286368 -0.0689177 0