# vtk DataFile Version 2.0
Presion
ASCII

DATASET STRUCTURED_GRID
DIMENSIONS   50   50   20

POINTS   50000   double
0.00568455   0.00568455   0.025
0.0174023   0.00568455   0.025
0.0298294   0.00568455   0.025
0.0429888   0.00568455   0.025
0.0569012   0.00568455   0.025
0.0715849   0.00568455   0.025
0.0870549   0.00568455   0.025
0.103323   0.00568455   0.025
0.120395   0.00568455   0.025
0.138275   0.00568455   0.025
0.156961   0.00568455   0.025
0.176443   0.00568455   0.025
0.196707   0.00568455   0.025
0.217734   0.00568455   0.025
0.239496   0.00568455   0.025
0.261959   0.00568455   0.025
0.285082   0.00568455   0.025
0.308818   0.00568455   0.025
0.333113   0.00568455   0.025
0.357906   0.00568455   0.025
0.383132   0.00568455   0.025
0.408719   0.00568455   0.025
0.434592   0.00568455   0.025
0.460672   0.00568455   0.025
0.486877   0.00568455   0.025
0.513123   0.00568455   0.025
0.539328   0.00568455   0.025
0.565408   0.00568455   0.025
0.591281   0.00568455   0.025
0.616868   0.00568455   0.025
0.642094   0.00568455   0.025
0.666887   0.00568455   0.025
0.691182   0.00568455   0.025
0.714918   0.00568455   0.025
0.738041   0.00568455   0.025
0.760504   0.00568455   0.025
0.782266   0.00568455   0.025
0.803293   0.00568455   0.025
0.823557   0.00568455   0.025
0.843039   0.00568455   0.025
0.861725   0.00568455   0.025
0.879605   0.00568455   0.025
0.896677   0.00568455   0.025
0.912945   0.00568455   0.025
0.928415   0.00568455   0.025
0.943099   0.00568455   0.025
0.957011   0.00568455   0.025
0.970171   0.00568455   0.025
0.982598   0.00568455   0.025
0.994315   0.00568455   0.025
0.00568455   0.0174023   0.025
0.0174023   0.0174023   0.025
0.0298294   0.0174023   0.025
0.0429888   0.0174023   0.025
0.0569012   0.0174023   0.025
0.0715849   0.0174023   0.025
0.0870549   0.0174023   0.025
0.103323   0.0174023   0.025
0.120395   0.0174023   0.025
0.138275   0.0174023   0.025
0.156961   0.0174023   0.025
0.176443   0.0174023   0.025
0.196707   0.0174023   0.025
0.217734   0.0174023   0.025
0.239496   0.0174023   0.025
0.261959   0.0174023   0.025
0.285082   0.0174023   0.025
0.308818   0.0174023   0.025
0.333113   0.0174023   0.025
0.357906   0.0174023   0.025
0.383132   0.0174023   0.025
0.408719   0.0174023   0.025
0.434592   0.0174023   0.025
0.460672   0.0174023   0.025
0.486877   0.0174023   0.025
0.513123   0.0174023   0.025
0.539328   0.0174023   0.025
0.565408   0.0174023   0.025
0.591281   0.0174023   0.025
0.616868   0.0174023   0.025
0.642094   0.0174023   0.025
0.666887   0.0174023   0.025
0.691182   0.0174023   0.025
0.714918   0.0174023   0.025
0.738041   0.0174023   0.025
0.760504   0.0174023   0.025
0.782266   0.0174023   0.025
0.803293   0.0174023   0.025
0.823557   0.0174023   0.025
0.843039   0.0174023   0.025
0.861725   0.0174023   0.025
0.879605   0.0174023   0.025
0.896677   0.0174023   0.025
0.912945   0.0174023   0.025
0.928415   0.0174023   0.025
0.943099   0.0174023   0.025
0.957011   0.0174023   0.025
0.970171   0.0174023   0.025
0.982598   0.0174023   0.025
0.994315   0.0174023   0.025
0.00568455   0.0298294   0.025
0.0174023   0.0298294   0.025
0.0298294   0.0298294   0.025
0.0429888   0.0298294   0.025
0.0569012   0.0298294   0.025
0.0715849   0.0298294   0.025
0.0870549   0.0298294   0.025
0.103323   0.0298294   0.025
0.120395   0.0298294   0.025
0.138275   0.0298294   0.025
0.156961   0.0298294   0.025
0.176443   0.0298294   0.025
0.196707   0.0298294   0.025
0.217734   0.0298294   0.025
0.239496   0.0298294   0.025
0.261959   0.0298294   0.025
0.285082   0.0298294   0.025
0.308818   0.0298294   0.025
0.333113   0.0298294   0.025
0.357906   0.0298294   0.025
0.383132   0.0298294   0.025
0.408719   0.0298294   0.025
0.434592   0.0298294   0.025
0.460672   0.0298294   0.025
0.486877   0.0298294   0.025
0.513123   0.0298294   0.025
0.539328   0.0298294   0.025
0.565408   0.0298294   0.025
0.591281   0.0298294   0.025
0.616868   0.0298294   0.025
0.642094   0.0298294   0.025
0.666887   0.0298294   0.025
0.691182   0.0298294   0.025
0.714918   0.0298294   0.025
0.738041   0.0298294   0.025
0.760504   0.0298294   0.025
0.782266   0.0298294   0.025
0.803293   0.0298294   0.025
0.823557   0.0298294   0.025
0.843039   0.0298294   0.025
0.861725   0.0298294   0.025
0.879605   0.0298294   0.025
0.896677   0.0298294   0.025
0.912945   0.0298294   0.025
0.928415   0.0298294   0.025
0.943099   0.0298294   0.025
0.957011   0.0298294   0.025
0.970171   0.0298294   0.025
0.982598   0.0298294   0.025
0.994315   0.0298294   0.025
0.00568455   0.0429888   0.025
0.0174023   0.0429888   0.025
0.0298294   0.0429888   0.025
0.0429888   0.0429888   0.025
0.0569012   0.0429888   0.025
0.0715849   0.0429888   0.025
0.0870549   0.0429888   0.025
0.103323   0.0429888   0.025
0.120395   0.0429888   0.025
0.138275   0.0429888   0.025
0.156961   0.0429888   0.025
0.176443   0.0429888   0.025
0.196707   0.0429888   0.025
0.217734   0.0429888   0.025
0.239496   0.0429888   0.025
0.261959   0.0429888   0.025
0.285082   0.0429888   0.025
0.308818   0.0429888   0.025
0.333113   0.0429888   0.025
0.357906   0.0429888   0.025
0.383132   0.0429888   0.025
0.408719   0.0429888   0.025
0.434592   0.0429888   0.025
0.460672   0.0429888   0.025
0.486877   0.0429888   0.025
0.513123   0.0429888   0.025
0.539328   0.0429888   0.025
0.565408   0.0429888   0.025
0.591281   0.0429888   0.025
0.616868   0.0429888   0.025
0.642094   0.0429888   0.025
0.666887   0.0429888   0.025
0.691182   0.0429888   0.025
0.714918   0.0429888   0.025
0.738041   0.0429888   0.025
0.760504   0.0429888   0.025
0.782266   0.0429888   0.025
0.803293   0.0429888   0.025
0.823557   0.0429888   0.025
0.843039   0.0429888   0.025
0.861725   0.0429888   0.025
0.879605   0.0429888   0.025
0.896677   0.0429888   0.025
0.912945   0.0429888   0.025
0.928415   0.0429888   0.025
0.943099   0.0429888   0.025
0.957011   0.0429888   0.025
0.970171   0.0429888   0.025
0.982598   0.0429888   0.025
0.994315   0.0429888   0.025
0.00568455   0.0569012   0.025
0.0174023   0.0569012   0.025
0.0298294   0.0569012   0.025
0.0429888   0.0569012   0.025
0.0569012   0.0569012   0.025
0.0715849   0.0569012   0.025
0.0870549   0.0569012   0.025
0.103323   0.0569012   0.025
0.120395   0.0569012   0.025
0.138275   0.0569012   0.025
0.156961   0.0569012   0.025
0.176443   0.0569012   0.025
0.196707   0.0569012   0.025
0.217734   0.0569012   0.025
0.239496   0.0569012   0.025
0.261959   0.0569012   0.025
0.285082   0.0569012   0.025
0.308818   0.0569012   0.025
0.333113   0.0569012   0.025
0.357906   0.0569012   0.025
0.383132   0.0569012   0.025
0.408719   0.0569012   0.025
0.434592   0.0569012   0.025
0.460672   0.0569012   0.025
0.486877   0.0569012   0.025
0.513123   0.0569012   0.025
0.539328   0.0569012   0.025
0.565408   0.0569012   0.025
0.591281   0.0569012   0.025
0.616868   0.0569012   0.025
0.642094   0.0569012   0.025
0.666887   0.0569012   0.025
0.691182   0.0569012   0.025
0.714918   0.0569012   0.025
0.738041   0.0569012   0.025
0.760504   0.0569012   0.025
0.782266   0.0569012   0.025
0.803293   0.0569012   0.025
0.823557   0.0569012   0.025
0.843039   0.0569012   0.025
0.861725   0.0569012   0.025
0.879605   0.0569012   0.025
0.896677   0.0569012   0.025
0.912945   0.0569012   0.025
0.928415   0.0569012   0.025
0.943099   0.0569012   0.025
0.957011   0.0569012   0.025
0.970171   0.0569012   0.025
0.982598   0.0569012   0.025
0.994315   0.0569012   0.025
0.00568455   0.0715849   0.025
0.0174023   0.0715849   0.025
0.0298294   0.0715849   0.025
0.0429888   0.0715849   0.025
0.0569012   0.0715849   0.025
0.0715849   0.0715849   0.025
0.0870549   0.0715849   0.025
0.103323   0.0715849   0.025
0.120395   0.0715849   0.025
0.138275   0.0715849   0.025
0.156961   0.0715849   0.025
0.176443   0.0715849   0.025
0.196707   0.0715849   0.025
0.217734   0.0715849   0.025
0.239496   0.0715849   0.025
0.261959   0.0715849   0.025
0.285082   0.0715849   0.025
0.308818   0.0715849   0.025
0.333113   0.0715849   0.025
0.357906   0.0715849   0.025
0.383132   0.0715849   0.025
0.408719   0.0715849   0.025
0.434592   0.0715849   0.025
0.460672   0.0715849   0.025
0.486877   0.0715849   0.025
0.513123   0.0715849   0.025
0.539328   0.0715849   0.025
0.565408   0.0715849   0.025
0.591281   0.0715849   0.025
0.616868   0.0715849   0.025
0.642094   0.0715849   0.025
0.666887   0.0715849   0.025
0.691182   0.0715849   0.025
0.714918   0.0715849   0.025
0.738041   0.0715849   0.025
0.760504   0.0715849   0.025
0.782266   0.0715849   0.025
0.803293   0.0715849   0.025
0.823557   0.0715849   0.025
0.843039   0.0715849   0.025
0.861725   0.0715849   0.025
0.879605   0.0715849   0.025
0.896677   0.0715849   0.025
0.912945   0.0715849   0.025
0.928415   0.0715849   0.025
0.943099   0.0715849   0.025
0.957011   0.0715849   0.025
0.970171   0.0715849   0.025
0.982598   0.0715849   0.025
0.994315   0.0715849   0.025
0.00568455   0.0870549   0.025
0.0174023   0.0870549   0.025
0.0298294   0.0870549   0.025
0.0429888   0.0870549   0.025
0.0569012   0.0870549   0.025
0.0715849   0.0870549   0.025
0.0870549   0.0870549   0.025
0.103323   0.0870549   0.025
0.120395   0.0870549   0.025
0.138275   0.0870549   0.025
0.156961   0.0870549   0.025
0.176443   0.0870549   0.025
0.196707   0.0870549   0.025
0.217734   0.0870549   0.025
0.239496   0.0870549   0.025
0.261959   0.0870549   0.025
0.285082   0.0870549   0.025
0.308818   0.0870549   0.025
0.333113   0.0870549   0.025
0.357906   0.0870549   0.025
0.383132   0.0870549   0.025
0.408719   0.0870549   0.025
0.434592   0.0870549   0.025
0.460672   0.0870549   0.025
0.486877   0.0870549   0.025
0.513123   0.0870549   0.025
0.539328   0.0870549   0.025
0.565408   0.0870549   0.025
0.591281   0.0870549   0.025
0.616868   0.0870549   0.025
0.642094   0.0870549   0.025
0.666887   0.0870549   0.025
0.691182   0.0870549   0.025
0.714918   0.0870549   0.025
0.738041   0.0870549   0.025
0.760504   0.0870549   0.025
0.782266   0.0870549   0.025
[...]
POINT_DATA   50000
SCALARS Presion double
LOOKUP_TABLE   Presion

0 0 0 0 0 0 0 0 0 0 0 0 0 0 0 0 0 0 0 0 0 0 0 0 0 0 0 0 0 0 0 0 0 0 0 0 0 0 0 0 0 0 0 0 0 0 0 0 0 0 0.00166218 0.00180961 0.00198757 0.0021163 0.00218128 0.00218366 0.00212804 0.00201954 0.00186302 0.00166277 0.00142216 0.00114294 0.000683255 0.000404039 0.000154833 -6.2297e-05 -0.00024223 -0.000376563 -0.000455488 -0.0004702 -0.000415324 -0.000290944 -0.000103567 0.000134186 0.000385097 0.000634966 0.000850063 0.00100342 0.00107355 0.0010466 0.000917887 0.000692632 0.000385576 1.98472e-05 -0.000374925 -0.000763969 -0.0010127 -0.00137484 -0.00171193 -0.00200645 -0.00224792 -0.00243068 -0.00255179 -0.00260983 -0.00260404 -0.0025339 -0.00239949 -0.00220431 -0.00196882 -0.00178564 0.00218189 0.00217076 0.00222077 0.00227168 0.00229373 0.00227468 0.0022108 0.00210238 0.00195161 0.00176174 0.00153712 0.00128176 0.000761068 0.000508499 0.000273217 6.23945e-05 -0.000116568 -0.000254612 -0.000341985 -0.000370131 -0.000333809 -0.000232938 -7.35954e-05 0.000130507 0.000353521 0.000572067 0.000758114 0.000886137 0.000935836 0.000894189 0.000756983 0.00052941 0.000225579 -0.000133007 -0.000520099 -0.000905556 -0.00108243 -0.00144163 -0.00176783 -0.00204961 -0.00227973 -0.00245447 -0.00257253 -0.00263439 -0.00264215 -0.0026001 -0.00251667 -0.00240922 -0.00231394 -0.00230037 0.00253411 0.00248418 0.0024696 0.00246423 0.00244654 0.0024029 0.00232613 0.00221345 0.00206493 0.00188272 0.00167127 0.00143386 0.000843512 0.000613404 0.000390519 0.000184074 2.96747e-06 -0.000143081 -0.000244093 -0.000291317 -0.000279072 -0.000206492 -7.87438e-05 8.92751e-05 0.000289047 0.000482253 0.00064677 0.000757988 0.0007957 0.000746446 0.00060533 0.00037678 7.4031e-05 -0.00028272 -0.000669469 -0.00105756 -0.00115858 -0.00151994 -0.00184082 -0.00211455 -0.00233731 -0.00250773 -0.00262645 -0.00269588 -0.00272041 -0.00270713 -0.00266735 -0.00261883 -0.0025875 -0.00260436 0.00282726 0.00276757 0.00272109 0.00267906 0.00262978 0.00256307 0.00247185 0.00235223 0.00220298 0.00202534 0.00182332 0.00159828 0.000933006 0.000719177 0.000504454 0.000298219 0.000109969 -5.01154e-05 -0.000171628 -0.000245158 -0.000263934 -0.000225541 -0.000133457 -3.0467e-06 0.000175411 0.00034939 0.00050016 0.000603706 0.000638936 0.000590736 0.000452344 0.000226523 -7.48225e-05 -0.000432654 -0.000824253 -0.00122036 -0.00124554 -0.00161309 -0.00193311 -0.00220298 -0.00242218 -0.00259175 -0.00271412 -0.00279321 -0.00283457 -0.00284586 -0.00283727 -0.00282171 -0.00281338 -0.00282342 0.00311081 0.0030428 0.00297646 0.00290943 0.00283595 0.00274941 0.00264413 0.0025162 0.00236381 0.00218742 0.00199037 0.0017715 0.00102893 0.000823582 0.000610156 0.000397292 0.000194378 1.18106e-05 -0.00013941 -0.000248725 -0.000307537 -0.000310974 -0.00025979 -0.00016866 -1.14054e-05 0.000148754 0.000293514 0.000399213 0.000442993 0.000406871 0.000280926 6.51038e-05 -0.000230798 -0.000589086 -0.000987739 -0.00139541 -0.00134824 -0.00172468 -0.00204691 -0.00231626 -0.00253526 -0.00270704 -0.00283541 -0.00292511 -0.00298184 -0.00301235 -0.00302434 -0.00302586 -0.00302391 -0.00302213 0.00340448 0.00332277 0.00323877 0.00315186 0.00305896 0.00295564 0.00283738 0.00270053 0.00254286 0.00236414 0.00216679 0.00194685 0.00112711 0.000920682 0.000698952 0.000469515 0.000241222 2.45212e-05 -0.000168798 -0.000326495 -0.000437331 -0.000492965 -0.000490184 -0.000441619 -0.000305458 -0.000155584 -9.62718e-06 0.000108812 0.000174254 0.000164593 6.52446e-05 -0.000128179 -0.000409231 -0.000762241 -0.00116579 -0.00158548 -0.00147308 -0.00185874 -0.00218429 -0.00245527 -0.00267684 -0.00285358 -0.00299002 -0.00309099 -0.00316166 -0.00320739 -0.00323349 -0.00324476 -0.00324475 -0.0032349 0.00371241 0.00361082 0.0035075 0.00340201 0.00329206 0.00317399 0.0030437 0.00289736 0.00273218 0.002547 0.00234309 0.00211349 0.00121876 0.000999543 0.000756908 0.000497372 0.000229077 -3.7496e-05 -0.000289489 -0.000512381 -0.000691423 -0.000813708 -0.000870707 -0.000871555 -0.000753836 -0.000614122 -0.000461031 -0.000318591 -0.00021575 -0.000180088 -0.000232648 -0.000384155 -0.000633376 -0.000968022 -0.00136785 -0.00179504 -0.00162902 -0.0020202 -0.00234732 -0.00262049 -0.00284671 -0.00303102 -0.00317778 -0.00329125 -0.00337562 -0.00343487 -0.00347258 -0.00349173 -0.00349447 -0.00348196 0.00402878 0.00390187 0.00377649 0.00365191 0.00352564 0.00339379 0.00325175 0.00309491 0.00291941 0.00272275 0.00250467 0.00225509 0.00128897 0.0010427 0.000763184 0.000455911 0.000128327 -0.000208911 -0.000541489 -0.000851942 -0.0011211 -0.00133034 -0.00146446 -0.00152757 -0.00142038 -0.00129594 -0.00113218 -0.000954228 -0.000795318 -0.000689944 -0.000667718 -0.00074828 -0.000938267 -0.001231 -0.00160884 -0.00203108 -0.00182929 -0.00221583 -0.0025386 -0.00281236 -0.00304452 -0.00323907 -0.00339904 -0.00352734 -0.00362687 -0.00370034 -0.00375018 -0.00377846 -0.00378688 -0.00377686 0.00433969 0.00418306 0.00403294 0.00388815 0.00374542 0.00359983 0.00344548 0.00327626 0.00308658 0.0028721 0.00263053 0.00234856 0.00131508 0.00102454 0.000688339 0.000311013 -0.000100584 -0.000535343 -0.000977003 -0.00140443 -0.00179307 -0.00211746 -0.00235443 -0.00250135 -0.00238974 -0.00229293 -0.00211892 -0.0018947 -0.00165837 -0.00145277 -0.0013184 -0.00128698 -0.00137652 -0.0015893 -0.00191285 -0.00230543 -0.00209444 -0.00245621 -0.00276272 -0.00303242 -0.00327065 -0.00347814 -0.00365497 -0.00380177 -0.0039197 -0.00401021 -0.00407486 -0.00411525 -0.00413305 -0.00413005 0.00462325 0.00443364 0.0042567 0.0040906 0.00393084 0.00377084 0.00360269 0.00341805 0.00320896 0.00296861 0.00269208 0.00236287 0.0012652 0.000909756 0.000492839 1.79264e-05 -0.000508565 -0.00107471 -0.00166174 -0.00224404 -0.00279072 -0.00326833 -0.00364451 -0.00390793 -0.00377082 -0.00372294 -0.00354503 -0.00326623 -0.00292972 -0.00258771 -0.00229389 -0.00209548 -0.00202623 -0.00210194 -0.00231932 -0.00263951 -0.00245724 -0.0027593 -0.00302904 -0.00328546 -0.00352782 -0.00375046 -0.00394837 -0.00411854 -0.00425967 -0.00437171 -0.00445538 -0.00451194 -0.00454313 -0.00455109 0.0048493 0.0046247 0.00441969 0.00423153 0.00405403 0.00387836 0.00369393 0.00348951 0.00325409 0.00297777 0.0026524 0.00225826 0.00109701 0.00065242 0.000126183 -0.000479461 -0.0011584 -0.00189749 -0.00267479 -0.0034594 -0.00421301 -0.00489303 -0.00545678 -0.00588167 -0.00569734 -0.00572943 -0.00556182 -0.0052251 -0.00476687 -0.00424899 -0.00373992 -0.0033056 -0.00300025 -0.0028588 -0.00289279 -0.00307324 -0.00297003 -0.00315656 -0.00335664 -0.00358328 -0.00382383 -0.00406202 -0.0042849 -0.00448391 -0.00465418 -0.00479351 -0.00490152 -0.00497905 -0.00502785 -0.00505035 0.00497927 0.00471909 0.00448575 0.00427526 0.00407928 0.00388612 0.00368191 0.00345188 0.00318139 0.00285679 0.00246607 0.00198631 0.000757654 0.000195983 -0.00047279 -0.00124796 -0.00212361 -0.00308494 -0.0041061 -0.0051499 -0.00616946 -0.00711172 -0.00792261 -0.00856499 -0.00832223 -0.00847407 -0.00833999 -0.00794985 -0.00735392 -0.00662249 -0.00583887 -0.00508975 -0.00445396 -0.00399165 -0.00373624 -0.0036796 -0.00371431 -0.00370172 -0.00378157 -0.00395015 -0.00417541 -0.00442526 -0.00467497 -0.00490778 -0.00511348 -0.00528664 -0.00542514 -0.00552907 -0.00560003 -0.00564066 0.00496676 0.00467203 0.0044112 0.00417868 0.00396345 0.00375042 0.00352188 0.00325895 0.00294277 0.00255538 0.00208024 0.00149123 0.000185013 -0.000525021 -0.00137372 -0.00236226 -0.00348477 -0.00472425 -0.00605006 -0.0074175 -0.00876963 -0.0100414 -0.0111661 -0.0120882 -0.0118018 -0.0121181 -0.0120492 -0.0116206 -0.010882 -0.00990914 -0.00879781 -0.00765496 -0.00658621 -0.00568209 -0.00500562 -0.00458474 -0.00480993 -0.00448099 -0.00436549 -0.00442929 -0.00461284 -0.00486215 -0.00513585 -0.00540519 -0.00565192 -0.0058656 -0.00604127 -0.00617765 -0.00627589 -0.00633868 0.0047592 0.00443278 0.00414653 0.00389282 0.00365756 0.00342174 0.00316331 0.00285881 0.00248467 0.00201803 0.00143725 0.000712806 -0.000688895 -0.00158099 -0.00264996 -0.00389915 -0.00532245 -0.00689985 -0.0085947 -0.0103532 -0.0121065 -0.0137759 -0.0152802 -0.0165417 -0.0162666 -0.0167904 -0.0168237 -0.0163829 -0.0155132 -0.0142906 -0.0128184 -0.0112195 -0.00962501 -0.00815824 -0.00691844 -0.0059881 -0.00641733 -0.00562017 -0.00520277 -0.00508864 -0.0051842 -0.00540729 -0.00569377 -0.00599776 -0.00628898 -0.00654922 -0.00676895 -0.00694447 -0.00707593 -0.00716583 0.00430099 0.0039477 0.00363933 0.00336591 0.00310983 0.00284783 0.00255313 0.00219732 0.0017517 0.00118806 0.000479111 -0.000408451 -0.00193192 -0.00304051 -0.0043709 -0.00592857 -0.00770653 -0.0096806 -0.0118064 -0.0140189 -0.0162354 -0.018361 -0.0202987 -0.0219458 -0.0217817 -0.022546 -0.0227176 -0.0223006 -0.0213309 -0.0198787 -0.018047 -0.0159674 -0.0137899 -0.0116686 -0.00974255 -0.00816713 -0.00872328 -0.00728124 -0.00642157 -0.00602371 -0.00595842 -0.00611023 -0.00638554 -0.00671467 -0.00704985 -0.00736106 -0.00763149 -0.00785341 -0.00802506 -0.00814836 0.00353811 0.00316477 0.00283887 0.00254781 0.00227025 0.0019784 0.00164058 0.00122317 0.000692087 1.34356e-05 -0.000846131 -0.00192425 -0.0036032 -0.00496101 -0.00659147 -0.00850171 -0.0106827 -0.0131044 -0.0157124 -0.018428 -0.021152 -0.0237719 -0.0261731 -0.0282276 -0.028305 -0.0293249 -0.0296634 -0.0293106 -0.0282897 -0.0266594 -0.0245147 -0.0219852 -0.0192297 -0.016425 -0.0137488 -0.0114419 -0.0119037 -0.00964224 -0.00817527 -0.00735566 -0.00702612 -0.00703705 -0.00725974 -0.00759336 -0.00796562 -0.00832918 -0.00865603 -0.00893195 -0.00915186 -0.00931643 0.00242404 0.00203934 0.00170172 0.00139579 0.00109636 0.000771108 0.000383387 -0.000105628 -0.000735529 -0.00154602 -0.00257666 -0.00387006 -0.0057427 -0.00737762 -0.00934019 -0.0116381 -0.0142586 -0.0171633 -0.0202851 -0.0235292 -0.0267777 -0.0298993 -0.0327615 -0.0352145 -0.035663 -0.0369321 -0.0374519 -0.0372 -0.0361865 -0.0344557 -0.032088 -0.0292008 -0.0259491 -0.0225204 -0.019123 -0.0160825 -0.0160716 -0.0128614 -0.0106233 -0.00922333 -0.00849761 -0.00827062 -0.0083774 -0.0086797 -0.00907295 -0.00948539 -0.00987244 -0.0102098 -0.0104869 -0.0107021 0.00092642 0.00054061 0.000198175 -0.000119116 -0.000440227 -0.000801837 -0.00124537 -0.00181471 -0.00255477 -0.00351096 -0.00472887 -0.00625655 -0.00836063 -0.0102923 -0.012608 -0.0153143 -0.0183924 -0.0217929 -0.0254334 -0.0292005 -0.0329568 -0.0365521 -0.039838 -0.0426497 -0.0435587 -0.0450509 -0.045749 -0.0456235 -0.0446738 -0.042931 -0.040458 -0.0373533 -0.0337564 -0.0298509 -0.0258616 -0.0221787 -0.0212338 -0.0170365 -0.0139033 -0.0117677 -0.0104958 -0.00990816 -0.00981134 -0.0100276 -0.0104132 -0.0108638 -0.0113114 -0.0117165 -0.0120602 -0.0123366 -0.000966634 -0.00134222 -0.00168169 -0.00200603 -0.0023477 -0.00274741 -0.00325094 -0.00390682 -0.0047649 -0.00587582 -0.00729064 -0.00906288 -0.0114291 -0.0136659 -0.016341 -0.0194577 -0.0229886 -0.0268708 -0.0310045 -0.0352565 -0.0394701 -0.0434786 -0.0471211 -0.0502272 -0.0516196 -0.0532946 -0.054152 -0.0541612 -0.0533176 -0.0516429 -0.0491843 -0.0460197 -0.0422654 -0.0380872 -0.0337078 -0.029542 -0.0272773 -0.0221725 -0.0180987 -0.0151071 -0.0131413 -0.0120535 -0.0116424 -0.011697 -0.0120305 -0.0124985 -0.0130015 -0.0134785 -0.0138975 -0.0142463 -0.00324165 -0.00359528 -0.00392341 -0.00424962 -0.00460947 -0.00504716 -0.00561227 -0.0063573 -0.00733639 -0.00860459 -0.0102175 -0.0122335 -0.0148786 -0.0174154 -0.0204392 -0.0239474 -0.0279023 -0.0322254 -0.0367984 -0.0414687 -0.0460624 -0.0504001 -0.0543138 -0.0576366 -0.0594667 -0.0612782 -0.0622638 -0.062399 -0.0616818 -0.0601307 -0.0577827 -0.0546972 -0.0509656 -0.046726 -0.0421786 -0.0377131 -0.0339867 -0.0281641 -0.0232052 -0.0193051 -0.0165276 -0.0148012 -0.0139502 -0.0137476 -0.0139675 -0.01442 -0.0149656 -0.0155145 -0.0160162 -0.0164485 -0.00585759 -0.00617787 -0.0064861 -0.00680819 -0.00718229 -0.00765546 -0.00828034 -0.00911266 -0.0102098 -0.0116304 -0.013433 -0.0156797 -0.0186009 -0.0214184 -0.0247627 -0.0286241 -0.0329523 -0.0376532 -0.0425902 -0.0475935 -0.0524752 -0.0570481 -0.0611429 -0.0646036 -0.06678 -0.0686819 -0.0697593 -0.0699986 -0.0694058 -0.0680022 -0.0658209 -0.0629087 -0.0593347 -0.055205 -0.0506819 -0.0460861 -0.0410732 -0.0347946 -0.0291059 -0.0243358 -0.0206898 -0.0182129 -0.016797 -0.0162294 -0.0162582 -0.0166485 -0.017215 -0.0178304 -0.0184193 -0.0189449 -0.00874704 -0.00902373 -0.00930377 -0.00961503 -0.00999778 -0.0105012 -0.0111803 -0.012093 -0.0132991 -0.0148591 -0.0168335 -0.019286 -0.0224578 -0.0255235 -0.0291453 -0.0333051 -0.0379402 -0.0429413 -0.0481558 -0.0533998 -0.0584758 -0.0631935 -0.0673872 -0.0709157 -0.073334 -0.0752858 -0.0764194 -0.0767341 -0.076247 -0.0749863 -0.0729863 -0.0702882 -0.0669443 -0.0630309 -0.0586655 -0.0540761 -0.048206 -0.041753 -0.0355655 -0.0300598 -0.025573 -0.0222886 -0.0202063 -0.0191666 -0.0189169 -0.0191867 -0.0197422 -0.0204121 -0.0210885 -0.0217155 -0.0118211 -0.0120459 -0.0122901 -0.0125834 -0.0129676 -0.0134934 -0.0142173 -0.0151985 -0.016498 -0.0181772 -0.0202969 -0.0229203 -0.0262946 -0.029565 -0.03341 -0.0378029 -0.0426698 -0.0478883 -0.0532931 -0.05869 -0.0638764 -0.0686625 -0.0728893 -0.0764313 -0.0790012 -0.0809705 -0.0821302 -0.0824917 -0.0820832 -0.0809412 -0.0791053 -0.0766162 -0.0735171 -0.0698611 -0.0657241 -0.0612425 -0.0550441 -0.0486711 -0.0422513 -0.036223 -0.031014 -0.0269415 -0.0241388 -0.0225393 -0.0219249 -0.0220084 -0.0225126 -0.0232181 -0.023978 -0.0247111 -0.0149773 -0.0151442 -0.0153463 -0.0156145 -0.0159916 -0.0165294 -0.0172849 -0.0183182 -0.0196903 -0.0214623 -0.0236938 -0.0264457 -0.0299553 -0.033379 -0.0373859 -0.0419419 -0.0469642 -0.0523203 -0.0578359 -0.0633109 -0.0685408 -0.0733387 -0.0775532 -0.0810729 -0.0837314 -0.0856953 -0.0868592 -0.0872434 -0.0868853 -0.0858294 -0.0841223 -0.0818082 -0.0789279 -0.0755209 -0.071632 -0.0673265 -0.0612741 -0.0551759 -0.0487799 -0.0424834 -0.0367465 -0.0319876 -0.028476 -0.0262679 -0.0252172 -0.0250496 -0.0254571 -0.0261732 -0.0270074 -0.0278478 -0.0181091 -0.0182151 -0.0183703 -0.0186066 -0.0189673 -0.0195047 -0.0202759 -0.0213409 -0.0227602 -0.0245936 -0.0268987 -0.0297321 -0.0332954 -0.0368166 -0.0409217 -0.0455715 -0.050677 -0.0560996 -0.06166 -0.0671553 -0.0723816 -0.0771559 -0.0813329 -0.0848121 -0.0875246 -0.0894697 -0.0906244 -0.091014 -0.090682 -0.0896796 -0.0880603 -0.0858746 -0.0831663 -0.0799707 -0.0763156 -0.072223 -0.066644 -0.060942 -0.0547769 -0.0484621 -0.0424324 -0.0371567 -0.033017 -0.0302033 -0.0286738 -0.0282001 -0.0284658 -0.029164 -0.0300591 -0.0310043 -0.0211163 -0.0211612 -0.0212668 -0.0214652 -0.0218 -0.0223232 -0.023092 -0.0241654 -0.0256031 -0.027463 -0.0298003 -0.0326661 -0.0361928 -0.039754 -0.0438946 -0.048573 -0.0536976 -0.0591275 -0.0646816 -0.0701574 -0.0753522 -0.0800862 -0.0842182 -0.0876541 -0.0904072 -0.092329 -0.093469 -0.0938537 -0.0935294 -0.0925526 -0.090983 -0.0888784 -0.0862894 -0.0832548 -0.0797989 -0.075927 -0.0709846 -0.0657275 -0.0599291 -0.0538012 -0.0477112 -0.0421244 -0.037494 -0.0341315 -0.0321178 -0.0313024 -0.0313868 -0.0320382 -0.0329781 -0.0340224 -0.0239132 -0.0238998 -0.023955 -0.024111 -0.0244107 -0.0249056 -0.0256522 -0.0267087 -0.0281334 -0.0299826 -0.0323088 -0.0351576 -0.0385537 -0.0420979 -0.0462146 -0.0508628 -0.0559518 -0.0613418 -0.0668533 -0.0722853 -0.0774369 -0.0821294 -0.0862227 -0.0896242 -0.092418 -0.0943191 -0.0954453 -0.0958206 -0.0954921 -0.0945193 -0.0929676 -0.0909024 -0.088383 -0.0854571 -0.0821552 -0.0784863 -0.0742108 -0.0693865 -0.0640143 -0.0582095 -0.0522505 -0.0465557 -0.0416015 -0.0377903 -0.0353249 -0.0341557 -0.0340302 -0.0346084 -0.0355764 -0.0367121 -0.0264353 -0.0263688 -0.0263751 -0.0264856 -0.0267421 -0.0271947 -0.0278987 -0.0289116 -0.0302903 -0.0320898 -0.0343607 -0.0371435 -0.0403153 -0.0437874 -0.0478251 -0.0523912 -0.057399 -0.0627131 -0.0681579 -0.0735347 -0.0786436 -0.0833049 -0.0873756 -0.0907603 -0.0936004 -0.0954899 -0.0966078 -0.0969744 -0.0966351 -0.0956511 -0.0940926 -0.0920325 -0.0895394 -0.0866724 -0.0834743 -0.0799704 -0.0763092 -0.0718605 -0.0669068 -0.0614851 -0.0557834 -0.0501473 -0.0450333 -0.0408951 -0.0380395 -0.0365274 -0.0361762 -0.0366601 -0.0376405 -0.0388596 -0.0286419 -0.0285298 -0.0284908 -0.0285547 -0.0287612 -0.0291582 -0.0297995 -0.0307411 -0.0320396 -0.0337491 -0.0359196 -0.0385881 -0.0414447 -0.0447919 -0.0487003 -0.053139 -0.0580285 -0.0632402 -0.0686037 -0.0739232 -0.0789985 -0.0836464 -0.0877177 -0.091109 -0.0940023 -0.0958936 -0.097013 -0.0973754 -0.0970231 -0.0960182 -0.0944346 -0.0923519 -0.0898484 -0.0869946 -0.0838482 -0.0804567 -0.0773189 -0.0731592 -0.0685648 -0.0635173 -0.0581259 -0.0526557 -0.0475142 -0.0431667 -0.0399959 -0.0381683 -0.0375871 -0.0379612 -0.0389406 -0.0402363 -0.0305167 -0.0303681 -0.0302893 -0.0303075 -0.0304589 -0.0307883 -0.031347 -0.0321897 -0.0333724 -0.0349503 -0.0369747 -0.039481 -0.0419361 -0.0451082 -0.0488416 -0.053114 -0.0578555 -0.0629458 -0.0682209 -0.0734875 -0.0785439 -0.083201 -0.0873001 -0.0907258 -0.0936761 -0.095587 -0.096721 -0.0970871 -0.0967239 -0.0956929 -0.094071 -0.0919439 -0.0893983 -0.0865157 -0.0833679 -0.0800259 -0.077314 -0.0733398 -0.0690098 -0.064272 -0.0591752 -0.0539099 -0.0488205 -0.0443541 -0.0409373 -0.0388269 -0.0380181 -0.0382713 -0.0392389 -0.0406068 -0.0320651 -0.0318904 -0.031779 -0.031754 -0.0318472 -0.0320985 -0.0325554 -0.0332711 -0.0343019 -0.0357054 -0.0375367 -0.0398332 -0.0418061 -0.0447558 -0.0482732 -0.0523466 -0.056917 -0.0618735 -0.0670587 -0.0722815 -0.0773371 -0.0820284 -0.086185 -0.0896756 -0.0926819 -0.0946335 -0.0957987 -0.0961799 -0.0958115 -0.0947535 -0.0930848 -0.0908959 -0.0882807 -0.0853299 -0.0821272 -0.0787646 -0.0763907 -0.0724895 -0.0683065 -0.0637729 -0.0588968 -0.0538078 -0.0487874 -0.0442469 -0.0406293 -0.0382609 -0.037226 -0.0373482 -0.0382952 -0.0397338 -0.0333105 -0.0331209 -0.0329854 -0.0329217 -0.0329549 -0.0331187 -0.0334554 -0.0340158 -0.0348574 -0.0360423 -0.0376327 -0.0396721 -0.0410891 -0.0437723 -0.047038 -0.0508861 -0.055269 -0.0600856 -0.0651846 -0.070376 -0.0754509 -0.0802028 -0.0844473 -0.0880352 -0.0910887 -0.0931053 -0.0943215 -0.0947331 -0.0943694 -0.0932879 -0.0915683 -0.0893044 -0.0865955 -0.083539 -0.0802274 -0.0767689 -0.0746592 -0.0707136 -0.0665453 -0.0620811 -0.0573051 -0.0523036 -0.0473042 -0.0426774 -0.038865 -0.0362421 -0.034973 -0.0349502 -0.0358674 -0.0373781 -0.0342889 -0.0340967 -0.0339467 -0.0338499 -0.0338229 -0.0338905 -0.0340883 -0.0344642 -0.0350782 -0.035999 -0.0373001 -0.0390358 -0.0398318 -0.0422087 -0.0451931 -0.0487969 -0.0529835 -0.0576608 -0.0626821 -0.0678579 -0.0729738 -0.0778127 -0.0821754 -0.0858936 -0.088976 -0.0910844 -0.0923747 -0.0928358 -0.092491 -0.0913944 -0.0896247 -0.0872769 -0.0844536 -0.081256 -0.0777811 -0.0741472 -0.0722384 -0.0681269 -0.0638303 -0.059278 -0.0544446 -0.0493894 -0.0443009 -0.0395143 -0.0354628 -0.0325554 -0.0310248 -0.0308335 -0.0317083 -0.0332946 -0.0350447 -0.0348631 -0.0347096 -0.0345864 -0.034499 -0.0344612 -0.0345001 -0.0346608 -0.0350066 -0.035617 -0.0365807 -0.0379683 -0.0380889 -0.0401258 -0.042807 -0.0461562 -0.0501464 -0.054692 -0.0596499 -0.064829 -0.0700088 -0.0749611 -0.079471 -0.083352 -0.0864338 -0.0886626 -0.0900531 -0.0905864 -0.0902792 -0.0891807 -0.0873666 -0.084931 -0.0819764 -0.0786046 -0.0749123 -0.0710199 -0.0692521 -0.0648483 -0.0602695 -0.0554527 -0.0503725 -0.0450769 -0.039732 -0.0346493 -0.0302571 -0.0269916 -0.0251446 -0.0247451 -0.0255582 -0.0272238 -0.0356269 -0.0354708 -0.035326 -0.0351834 -0.0350347 -0.03488 -0.0347369 -0.0346479 -0.0346828 -0.0349357 -0.035516 -0.0365155 -0.03592 -0.0375913 -0.0399573 -0.0430517 -0.0468546 -0.0512845 -0.0561988 -0.0614037 -0.0666717 -0.071763 -0.0764476 -0.0805222 -0.0835625 -0.0859403 -0.0874589 -0.0880903 -0.087843 -0.08676 -0.084912 -0.0823892 -0.0792906 -0.0757143 -0.0717521 -0.0675162 -0.0658233 -0.0609946 -0.0559685 -0.0506914 -0.0451456 -0.0393815 -0.0335589 -0.0279824 -0.0230861 -0.0193377 -0.0170832 -0.0164138 -0.0171347 -0.0188821 -0.0360866 -0.0359738 -0.0358519 -0.0356967 -0.0354828 -0.0351945 -0.03484 -0.0344615