# vtk DataFile Version 2.0
Velocidades
ASCII

DATASET STRUCTURED_GRID
DIMENSIONS   50   50   20

POINTS   50000   double
0.00568455   0.00568455   0.025
0.0174023   0.00568455   0.025
0.0298294   0.00568455   0.025
0.0429888   0.00568455   0.025
0.0569012   0.00568455   0.025
0.0715849   0.00568455   0.025
0.0870549   0.00568455   0.025
0.103323   0.00568455   0.025
0.120395   0.00568455   0.025
0.138275   0.00568455   0.025
0.156961   0.00568455   0.025
0.176443   0.00568455   0.025
0.196707   0.00568455   0.025
0.217734   0.00568455   0.025
0.239496   0.00568455   0.025
0.261959   0.00568455   0.025
0.285082   0.00568455   0.025
0.308818   0.00568455   0.025
0.333113   0.00568455   0.025
0.357906   0.00568455   0.025
0.383132   0.00568455   0.025
0.408719   0.00568455   0.025
0.434592   0.00568455   0.025
0.460672   0.00568455   0.025
0.486877   0.00568455   0.025
0.513123   0.00568455   0.025
0.539328   0.00568455   0.025
0.565408   0.00568455   0.025
0.591281   0.00568455   0.025
0.616868   0.00568455   0.025
0.642094   0.00568455   0.025
0.666887   0.00568455   0.025
0.691182   0.00568455   0.025
0.714918   0.00568455   0.025
0.738041   0.00568455   0.025
0.760504   0.00568455   0.025
0.782266   0.00568455   0.025
0.803293   0.00568455   0.025
0.823557   0.00568455   0.025
0.843039   0.00568455   0.025
0.861725   0.00568455   0.025
0.879605   0.00568455   0.025
0.896677   0.00568455   0.025
0.912945   0.00568455   0.025
0.928415   0.00568455   0.025
0.943099   0.00568455   0.025
0.957011   0.00568455   0.025
0.970171   0.00568455   0.025
0.982598   0.00568455   0.025
0.994315   0.00568455   0.025
0.00568455   0.0174023   0.025
0.0174023   0.0174023   0.025
0.0298294   0.0174023   0.025
0.0429888   0.0174023   0.025
0.0569012   0.0174023   0.025
0.0715849   0.0174023   0.025
0.0870549   0.0174023   0.025
0.103323   0.0174023   0.025
0.120395   0.0174023   0.025
0.138275   0.0174023   0.025
0.156961   0.0174023   0.025
0.176443   0.0174023   0.025
0.196707   0.0174023   0.025
0.217734   0.0174023   0.025
0.239496   0.0174023   0.025
0.261959   0.0174023   0.025
0.285082   0.0174023   0.025
0.308818   0.0174023   0.025
0.333113   0.0174023   0.025
0.357906   0.0174023   0.025
0.383132   0.0174023   0.025
0.408719   0.0174023   0.025
0.434592   0.0174023   0.025
0.460672   0.0174023   0.025
0.486877   0.0174023   0.025
0.513123   0.0174023   0.025
0.539328   0.0174023   0.025
0.565408   0.0174023   0.025
0.591281   0.0174023   0.025
0.616868   0.0174023   0.025
0.642094   0.0174023   0.025
0.666887   0.0174023   0.025
0.691182   0.0174023   0.025
0.714918   0.0174023   0.025
0.738041   0.0174023   0.025
0.760504   0.0174023   0.025
0.782266   0.0174023   0.025
0.803293   0.0174023   0.025
0.823557   0.0174023   0.025
0.843039   0.0174023   0.025
0.861725   0.0174023   0.025
0.879605   0.0174023   0.025
0.896677   0.0174023   0.025
0.912945   0.0174023   0.025
0.928415   0.0174023   0.025
0.943099   0.0174023   0.025
0.957011   0.0174023   0.025
0.970171   0.0174023   0.025
0.982598   0.0174023   0.025
0.994315   0.0174023   0.025
0.00568455   0.0298294   0.025
0.0174023   0.0298294   0.025
0.0298294   0.0298294   0.025
0.0429888   0.0298294   0.025
0.0569012   0.0298294   0.025
0.0715849   0.0298294   0.025
0.0870549   0.0298294   0.025
0.103323   0.0298294   0.025
0.120395   0.0298294   0.025
0.138275   0.0298294   0.025
0.156961   0.0298294   0.025
0.176443   0.0298294   0.025
0.196707   0.0298294   0.025
0.217734   0.0298294   0.025
0.239496   0.0298294   0.025
0.261959   0.0298294   0.025
0.285082   0.0298294   0.025
0.308818   0.0298294   0.025
0.333113   0.0298294   0.025
0.357906   0.0298294   0.025
0.383132   0.0298294   0.025
0.408719   0.0298294   0.025
0.434592   0.0298294   0.025
0.460672   0.0298294   0.025
0.486877   0.0298294   0.025
0.513123   0.0298294   0.025
0.539328   0.0298294   0.025
0.565408   0.0298294   0.025
0.591281   0.0298294   0.025
0.616868   0.0298294   0.025
0.642094   0.0298294   0.025
0.666887   0.0298294   0.025
0.691182   0.0298294   0.025
0.714918   0.0298294   0.025
0.738041   0.0298294   0.025
0.760504   0.0298294   0.025
0.782266   0.0298294   0.025
0.803293   0.0298294   0.025
0.823557   0.0298294   0.025
0.843039   0.0298294   0.025
0.861725   0.0298294   0.025
0.879605   0.0298294   0.025
0.896677   0.0298294   0.025
0.912945   0.0298294   0.025
0.928415   0.0298294   0.025
0.943099   0.0298294   0.025
0.957011   0.0298294   0.025
0.970171   0.0298294   0.025
0.982598   0.0298294   0.025
0.994315   0.0298294   0.025
0.00568455   0.0429888   0.025
0.0174023   0.0429888   0.025
0.0298294   0.0429888   0.025
0.0429888   0.0429888   0.025
0.0569012   0.0429888   0.025
0.0715849   0.0429888   0.025
0.0870549   0.0429888   0.025
0.103323   0.0429888   0.025
0.120395   0.0429888   0.025
0.138275   0.0429888   0.025
0.156961   0.0429888   0.025
0.176443   0.0429888   0.025
0.196707   0.0429888   0.025
0.217734   0.0429888   0.025
0.239496   0.0429888   0.025
0.261959   0.0429888   0.025
0.285082   0.0429888   0.025
0.308818   0.0429888   0.025
0.333113   0.0429888   0.025
0.357906   0.0429888   0.025
0.383132   0.0429888   0.025
0.408719   0.0429888   0.025
0.434592   0.0429888   0.025
0.460672   0.0429888   0.025
0.486877   0.0429888   0.025
0.513123   0.0429888   0.025
0.539328   0.0429888   0.025
0.565408   0.0429888   0.025
0.591281   0.0429888   0.025
0.616868   0.0429888   0.025
0.642094   0.0429888   0.025
0.666887   0.0429888   0.025
0.691182   0.0429888   0.025
0.714918   0.0429888   0.025
0.738041   0.0429888   0.025
0.760504   0.0429888   0.025
0.782266   0.0429888   0.025
0.803293   0.0429888   0.025
0.823557   0.0429888   0.025
0.843039   0.0429888   0.025
0.861725   0.0429888   0.025
0.879605   0.0429888   0.025
0.896677   0.0429888   0.025
0.912945   0.0429888   0.025
0.928415   0.0429888   0.025
0.943099   0.0429888   0.025
0.957011   0.0429888   0.025
0.970171   0.0429888   0.025
0.982598   0.0429888   0.025
0.994315   0.0429888   0.025
0.00568455   0.0569012   0.025
0.0174023   0.0569012   0.025
0.0298294   0.0569012   0.025
0.0429888   0.0569012   0.025
0.0569012   0.0569012   0.025
0.0715849   0.0569012   0.025
0.0870549   0.0569012   0.025
0.103323   0.0569012   0.025
0.120395   0.0569012   0.025
0.138275   0.0569012   0.025
0.156961   0.0569012   0.025
0.176443   0.0569012   0.025
0.196707   0.0569012   0.025
0.217734   0.0569012   0.025
0.239496   0.0569012   0.025
0.261959   0.0569012   0.025
0.285082   0.0569012   0.025
0.308818   0.0569012   0.025
0.333113   0.0569012   0.025
0.357906   0.0569012   0.025
0.383132   0.0569012   0.025
0.408719   0.0569012   0.025
0.434592   0.0569012   0.025
0.460672   0.0569012   0.025
0.486877   0.0569012   0.025
0.513123   0.0569012   0.025
0.539328   0.0569012   0.025
0.565408   0.0569012   0.025
0.591281   0.0569012   0.025
0.616868   0.0569012   0.025
0.642094   0.0569012   0.025
0.666887   0.0569012   0.025
0.691182   0.0569012   0.025
0.714918   0.0569012   0.025
0.738041   0.0569012   0.025
0.760504   0.0569012   0.025
0.782266   0.0569012   0.025
0.803293   0.0569012   0.025
0.823557   0.0569012   0.025
0.843039   0.0569012   0.025
0.861725   0.0569012   0.025
0.879605   0.0569012   0.025
0.896677   0.0569012   0.025
0.912945   0.0569012   0.025
0.928415   0.0569012   0.025
0.943099   0.0569012   0.025
0.957011   0.0569012   0.025
0.970171   0.0569012   0.025
0.982598   0.0569012   0.025
0.994315   0.0569012   0.025
0.00568455   0.0715849   0.025
0.0174023   0.0715849   0.025
0.0298294   0.0715849   0.025
0.0429888   0.0715849   0.025
0.0569012   0.0715849   0.025
0.0715849   0.0715849   0.025
0.0870549   0.0715849   0.025
0.103323   0.0715849   0.025
0.120395   0.0715849   0.025
0.138275   0.0715849   0.025
0.156961   0.0715849   0.025
0.176443   0.0715849   0.025
0.196707   0.0715849   0.025
0.217734   0.0715849   0.025
0.239496   0.0715849   0.025
0.261959   0.0715849   0.025
0.285082   0.0715849   0.025
0.308818   0.0715849   0.025
0.333113   0.0715849   0.025
0.357906   0.0715849   0.025
0.383132   0.0715849   0.025
0.408719   0.0715849   0.025
0.434592   0.0715849   0.025
0.460672   0.0715849   0.025
0.486877   0.0715849   0.025
0.513123   0.0715849   0.025
0.539328   0.0715849   0.025
0.565408   0.0715849   0.025
0.591281   0.0715849   0.025
0.616868   0.0715849   0.025
0.642094   0.0715849   0.025
0.666887   0.0715849   0.025
0.691182   0.0715849   0.025
0.714918   0.0715849   0.025
0.738041   0.0715849   0.025
0.760504   0.0715849   0.025
0.782266   0.0715849   0.025
0.803293   0.0715849   0.025
0.823557   0.0715849   0.025
0.843039   0.0715849   0.025
0.861725   0.0715849   0.025
0.879605   0.0715849   0.025
0.896677   0.0715849   0.025
0.912945   0.0715849   0.025
0.928415   0.0715849   0.025
0.943099   0.0715849   0.025
0.957011   0.0715849   0.025
0.970171   0.0715849   0.025
0.982598   0.0715849   0.025
0.994315   0.0715849   0.025
0.00568455   0.0870549   0.025
0.0174023   0.0870549   0.025
0.0298294   0.0870549   0.025
0.0429888   0.0870549   0.025
0.0569012   0.0870549   0.025
0.0715849   0.0870549   0.025
0.0870549   0.0870549   0.025
0.103323   0.0870549   0.025
0.120395   0.0870549   0.025
0.138275   0.0870549   0.025
0.156961   0.0870549   0.025
0.176443   0.0870549   0.025
0.196707   0.0870549   0.025
0.217734   0.0870549   0.025
0.239496   0.0870549   0.025
0.261959   0.0870549   0.025
0.285082   0.0870549   0.025
0.308818   0.0870549   0.025
0.333113   0.0870549   0.025
0.357906   0.0870549   0.025
0.383132   0.0870549   0.025
0.408719   0.0870549   0.025
0.434592   0.0870549   0.025
0.460672   0.0870549   0.025
0.486877   0.0870549   0.025
0.513123   0.0870549   0.025
0.539328   0.0870549   0.025
0.565408   0.0870549   0.025
0.591281   0.0870549   0.025
0.616868   0.0870549   0.025
0.642094   0.0870549   0.025
0.666887   0.0870549   0.025
0.691182   0.0870549   0.025
0.714918   0.0870549   0.025
0.738041   0.0870549   0.025
0.760504   0.0870549   0.025
0.782266   0.0870549   0.025
[...]
POINT_DATA   50000
VECTORS Velocidades double

-7.21262e-05 -0.00158462 0
-0.000195433 -0.0031083 0
-0.000269403 -0.00396261 0
-0.000298559 -0.00443996 0
-0.000309092 -0.00465941 0
-0.000326454 -0.00468136 0
-0.00036983 -0.00454295 0
-0.000452556 -0.00427025 0
-0.000583553 -0.00388275 0
-0.000768862 -0.00339397 0
-0.00101369 -0.00280866 0
-0.00113563 -0.00210969 0
-0.00130915 -0.0012001 0
-0.0017349 -0.000521875 0
-0.00223276 3.97541e-05 0
-0.00277622 0.000511418 0
-0.00335624 0.00089119 0
-0.00396411 0.00116378 0
-0.00458722 0.00130838 0
-0.00520725 0.00130485 0
-0.00579966 0.00113939 0
-0.00633417 0.000809352 0
-0.00677742 0.000326625 0
-0.00708737 -0.000280115 0
-0.00722263 -0.00095583 0
-0.00715459 -0.00163295 0
-0.00686849 -0.00223632 0
-0.00636836 -0.00269497 0
-0.00567757 -0.00294796 0
-0.00483924 -0.00295282 0
-0.00391238 -0.00269253 0
-0.00296406 -0.00217905 0
-0.0020598 -0.00145256 0
-0.00125398 -0.000577369 0
-0.000581685 0.000362853 0
-0.000205175 0.00126339 0
2.63826e-05 0.00197077 0
0.000286879 0.00279012 0
0.000445453 0.00356881 0
0.000507733 0.004249 0
0.00049279 0.00480494 0
0.000419904 0.00522464 0
0.000306919 0.0055019 0
0.000170654 0.00563197 0
2.79132e-05 0.00560828 0
-0.000103121 0.00541859 0
-0.000201156 0.0050382 0
-0.000240887 0.00441438 0
-0.000198574 0.0034243 0
-7.71927e-05 0.00174132 0
-0.000241341 -0.00291312 0
-0.000636796 -0.0060625 0
-0.000844549 -0.00787462 0
-0.000904871 -0.00887399 0
-0.00091671 -0.00931448 0
-0.000957765 -0.009334 0
-0.00108278 -0.00901814 0
-0.00132968 -0.0084263 0
-0.00172453 -0.00760183 0
-0.00228579 -0.00657398 0
-0.00303048 -0.00535149 0
-0.00335631 -0.00389543 0
-0.00389957 -0.00202748 0
-0.00527439 -0.000628293 0
-0.00682429 0.000522971 0
-0.00851398 0.00148672 0
-0.0103193 0.00226038 0
-0.0122113 0.00281129 0
-0.0141464 0.00309423 0
-0.0160624 0.0030649 0
-0.0178771 0.00269198 0
-0.0194922 0.00196757 0
-0.0208008 0.000915085 0
-0.0216844 -0.000405949 0
-0.0220242 -0.00190234 0
-0.0217393 -0.00340623 0
-0.0208035 -0.00476341 0
-0.0192417 -0.00582221 0
-0.01713 -0.00644907 0
-0.0145966 -0.00654779 0
-0.0118106 -0.00607591 0
-0.00896267 -0.00505335 0
-0.00623966 -0.00356188 0
-0.00380039 -0.00173708 0
-0.00175283 0.000240916 0
-0.000640463 0.00214297 0
7.2954e-05 0.00364992 0
0.000924231 0.00538508 0
0.00142583 0.0070359 0
0.00162377 0.0084788 0
0.00157775 0.00966031 0
0.00134664 0.0105561 0
0.000985702 0.0111531 0
0.000547656 0.0114402 0
8.53352e-05 0.0114011 0
-0.000344607 0.0110055 0
-0.000676116 0.0101942 0
-0.000826412 0.00884595 0
-0.000698456 0.00670245 0
-0.000276147 0.00318955 0
-0.000174696 -0.00246053 0
-0.000556797 -0.00568862 0
-0.000914044 -0.00767421 0
-0.00117081 -0.00876701 0
-0.00138508 -0.00921413 0
-0.00164308 -0.00917749 0
-0.00202258 -0.00876596 0
-0.00258498 -0.00805622 0
-0.00337653 -0.00710306 0
-0.00443262 -0.00594174 0
-0.0057838 -0.00458112 0
-0.00639532 -0.00297763 0
-0.00733236 -0.000986865 0
-0.00964258 0.000523045 0
-0.0122361 0.00175369 0
-0.0150693 0.00277567 0
-0.0180976 0.00358774 0
-0.0212639 0.00415141 0
-0.024487 0.004412 0
-0.027656 0.0043147 0
-0.0306296 0.00381866 0
-0.0332424 0.00290957 0
-0.0353169 0.00160985 0
-0.0366959 -1.67273e-05 0
-0.0371839 -0.00189828 0
-0.0366431 -0.00380481 0
-0.0350681 -0.00556492 0
-0.0325046 -0.00700144 0
-0.0290756 -0.00795102 0
-0.0249798 -0.00828909 0
-0.0204754 -0.00795171 0
-0.0158521 -0.00694835 0
-0.0113962 -0.00536369 0
-0.00735444 -0.00335041 0
-0.00390194 -0.00112005 0
-0.00200402 0.00105323 0
-0.000767082 0.00281966 0
0.000735504 0.00481772 0
0.00167176 0.00671857 0
0.00212137 0.00838294 0
0.00217668 0.0097521 0
0.00193106 0.0107994 0
0.00147566 0.0115087 0
0.000900408 0.0118635 0
0.000296285 0.0118383 0
-0.000242005 0.0113891 0
-0.000615634 0.0104378 0
-0.00073156 0.00884598 0
-0.000546188 0.00637804 0
-0.000188988 0.00268391 0
-0.000111332 -0.00213158 0
-0.000429898 -0.00523648 0
-0.000865034 -0.00728326 0
-0.00132791 -0.00843103 0
-0.0018285 -0.0088667 0
-0.00242738 -0.00875056 0
-0.00319898 -0.00820774 0
-0.0042133 -0.0073328 0
-0.00552974 -0.00619467 0
-0.00719702 -0.00483757 0
-0.00925495 -0.00327469 0
-0.010214 -0.00146837 0
-0.0115777 0.000687195 0
-0.014848 0.00235559 0
-0.0184979 0.00371249 0
-0.0224817 0.00482807 0
-0.0267344 0.00569784 0
-0.0311664 0.00627353 0
-0.0356545 0.00648653 0
-0.0400359 0.00626698 0
-0.0441103 0.00556092 0
-0.0476479 0.00434586 0
-0.0504064 0.00264345 0
-0.0522221 0.000524013 0
-0.0528231 -0.00193482 0
-0.0520125 -0.00444965 0
-0.0498316 -0.00681576 0
-0.0463432 -0.00881922 0
-0.0417071 -0.010255 0
-0.0361767 -0.0109591 0
-0.0300793 -0.0108374 0
-0.0237833 -0.0098837 0
-0.0176567 -0.00818469 0
-0.0120241 -0.00591461 0
-0.00712819 -0.00332513 0
-0.00441175 -0.000743209 0
-0.00260663 0.00144123 0
-0.000359018 0.0038432 0
0.00112421 0.0061191 0
0.00195566 0.00811661 0
0.00225531 0.00976969 0
0.00214543 0.0110458 0
0.00174861 0.0119219 0
0.00118712 0.0123719 0
0.000582079 0.0123587 0
5.03573e-05 0.0118252 0
-0.00030481 0.0106854 0
-0.000416547 0.00881817 0
-0.000297547 0.00607767 0
-9.43188e-05 0.0023591 0
-8.09124e-05 -0.0018974 0
-0.000368566 -0.00475923 0
-0.00087127 -0.00671134 0
-0.0015371 -0.00780537 0
-0.00236022 -0.00816206 0
-0.00337565 -0.00791834 0
-0.004641 -0.00720048 0
-0.00622068 -0.00611366 0
-0.00817631 -0.00473879 0
-0.010562 -0.00313025 0
-0.0134208 -0.00131043 0
-0.0147787 0.000742394 0
-0.0166039 0.00309104 0
-0.0208793 0.00495901 0
-0.0256157 0.00648672 0
-0.0307679 0.00773014 0
-0.0362519 0.00867329 0
-0.0419445 0.00925268 0
-0.0476781 0.00938127 0
-0.0532378 0.00897054 0
-0.058366 0.00795116 0
-0.0627747 0.00629208 0
-0.066166 0.0040162 0
-0.068383 0.00120704 0
-0.0690859 -0.00202593 0
-0.0680294 -0.00535174 0
-0.0653087 -0.00852512 0
-0.0609959 -0.0112859 0
-0.055274 -0.0133771 0
-0.048434 -0.0145858 0
-0.0408539 -0.014779 0
-0.0329638 -0.013928 0
-0.0252012 -0.0121185 0
-0.0179638 -0.00954635 0
-0.0115667 -0.00650657 0
-0.007998 -0.0033817 0
-0.00557307 -0.000608598 0
-0.00245933 0.00233974 0
-0.00029306 0.00511372 0
0.00106836 0.00755468 0
0.00176677 0.00958857 0
0.00194673 0.0111732 0
0.00175521 0.0122747 0
0.0013384 0.0128556 0
0.000836226 0.0128689 0
0.000373314 0.0122535 0
4.48114e-05 0.0109352 0
-0.000103772 0.00883819 0
-9.69979e-05 0.00591504 0
-3.13913e-05 0.00220739 0
-7.60466e-05 -0.00169491 0
-0.00038116 -0.00422823 0
-0.00098568 -0.005938 0
-0.00187755 -0.0068394 0
-0.00305641 -0.00701028 0
-0.00454363 -0.0065605 0
-0.00637961 -0.00560637 0
-0.00861594 -0.0042542 0
-0.0113076 -0.00259134 0
-0.0145059 -0.000681066 0
-0.0182508 0.00144176 0
-0.0200514 0.00377601 0
-0.0223722 0.00633773 0
-0.0277072 0.00843903 0
-0.0335712 0.010176 0
-0.0399186 0.0115764 0
-0.046647 0.012602 0
-0.0535999 0.0131676 0
-0.060566 0.0131632 0
-0.0672809 0.0124789 0
-0.0734349 0.0110294 0
-0.07869 0.00877632 0
-0.0827041 0.00574771 0
-0.0853134 0.0020485 0
-0.0861346 -0.00216237 0
-0.0849045 -0.00649715 0
-0.0817523 -0.0106785 0
-0.0767464 -0.0143927 0
-0.0700765 -0.0173214 0
-0.0620534 -0.0191933 0
-0.0530884 -0.0198271 0
-0.0436597 -0.0191629 0
-0.0342668 -0.0172777 0
-0.0253804 -0.0143848 0
-0.0173955 -0.0108206 0
-0.0129286 -0.00702358 0
-0.00981947 -0.0034851 0
-0.00568948 0.000151161 0
-0.00267635 0.0035449 0
-0.000614856 0.00654093 0
0.000650519 0.00905765 0
0.0012787 0.0110397 0
0.00143328 0.0124391 0
0.00127637 0.0132074 0
0.000958839 0.0132924 0
0.000608305 0.0126395 0
0.000316158 0.0112 0
0.000126739 0.0089475 0
3.55332e-05 0.00590516 0
5.51051e-06 0.00217524 0
-8.81834e-05 -0.00147108 0
-0.000454597 -0.00357628 0
-0.00121164 -0.0049014 0
-0.00237436 -0.0054622 0
-0.00395294 -0.00531866 0
-0.00596376 -0.00456089 0
-0.00843404 -0.00329161 0
-0.0114012 -0.00161101 0
-0.0149085 0.000393346 0
-0.0189988 0.00265228 0
-0.0237041 0.00511751 0
-0.0259837 0.00776135 0
-0.0288315 0.0105511 0
-0.0352826 0.0129134 0
-0.0423203 0.0148906 0
-0.0498953 0.016469 0
-0.0578863 0.0175776 0
-0.0661052 0.0181019 0
-0.0743004 0.0179051 0
-0.0821631 0.0168546 0
-0.0893402 0.0148497 0
-0.0954541 0.0118478 0
-0.10013 0.00788668 0
-0.10315 0.0030991 0
-0.104136 -0.00230012 0
-0.102861 -0.00783633 0
-0.0994347 -0.013229 0
-0.0939034 -0.0181043 0
-0.0864458 -0.0220739 0
-0.077374 -0.024798 0
-0.0671165 -0.0260358 0
-0.0561878 -0.0256833 0
-0.0451446 -0.0237971 0
-0.0345337 -0.0205978 0
-0.0248396 -0.0164566 0
-0.0194098 -0.0118665 0
-0.015534 -0.00738204 0
-0.0102022 -0.0029212 0
-0.00614423 0.00121295 0
-0.00318484 0.00488137 0
-0.00116604 0.007995 0
7.70288e-05 0.0104811 0
0.000718145 0.0122748 0
0.000930723 0.0133167 0
0.000874838 0.0135538 0
0.000684649 0.0129446 0
0.00045895 0.0114678 0
0.00025794 0.00913681 0
0.000109389 0.00601385 0
2.50177e-05 0.00221747 0
-0.000111968 -0.00118392 0
-0.000575607 -0.00272468 0
-0.00153695 -0.00351266 0
-0.00302458 -0.00357872 0
-0.0050554 -0.0029812 0
-0.00764302 -0.00179947 0
-0.0108045 -0.000123446 0
-0.0145638 0.00195688 0
-0.0189511 0.00435907 0
-0.0239974 0.00701173 0
-0.0297241 0.00985405 0
-0.0325114 0.0128308 0
-0.035913 0.0158609 0
-0.0435333 0.0185073 0
-0.0517901 0.020748 0
-0.0606264 0.0225163 0
-0.0699014 0.0236987 0
-0.0793979 0.0241449 0
-0.0888296 0.0236883 0
-0.0978519 0.0221734 0
-0.106079 0.0194867 0
-0.113104 0.0155848 0
-0.118532 0.010519 0
-0.122005 0.00445206 0
-0.12323 -0.00234955 0
-0.122101 -0.00927463 0
-0.118608 -0.0160893 0
-0.112759 -0.0223519 0
-0.104704 -0.0275957 0
-0.0947364 -0.0314019 0
-0.0832864 -0.0334561 0
-0.0708929 -0.0335938 0
-0.058165 -0.0318329 0
-0.0457286 -0.0283853 0
-0.0341695 -0.0236453 0
-0.0276925 -0.0181552 0
-0.0229457 -0.012542 0
-0.0161816 -0.00712984 0
-0.0108379 -0.00213462 0
-0.00674765 0.00233542 0
-0.00376427 0.00618099 0
-0.0017249 0.00930531 0
-0.000449176 0.0116216 0
0.00024734 0.0130586 0
0.00053738 0.0135636 0
0.000569289 0.0131082 0
0.000460084 0.0116942 0
0.000295525 0.00936123 0
0.000137021 0.00619039 0
3.28749e-05 0.0023006 0
-0.000144264 -0.000798074 0
-0.000733982 -0.00159377 0
-0.00194615 -0.00167019 0
-0.0038123 -0.00107719 0
-0.0063494 0.000120918 0
-0.00956612 0.00184975 0
-0.0134698 0.00403079 0
-0.0180718 0.00658679 0
-0.0233888 0.00944466 0
-0.0294395 0.0125346 0
-0.0362335 0.0157855 0
-0.0395487 0.0191156 0
-0.0435249 0.0223981 0
-0.0523591 0.0253482 0
-0.0618743 0.0278684 0
-0.0720018 0.0298293 0
-0.0825817 0.0310672 0
-0.0933714 0.0313913 0
-0.104057 0.0306036 0
-0.114269 0.0285274 0
-0.1236 0.0250392 0
-0.131626 0.0200983 0
-0.137937 0.0137709 0
-0.141924 0.00624673 0
-0.143488 -0.00216805 0
-0.142748 -0.0106664 0
-0.139444 -0.0191253 0
-0.133526 -0.0270248 0
-0.125099 -0.0338123 0
-0.114422 -0.0389798 0
-0.101908 -0.0421229 0
-0.088104 -0.0429959 0
-0.0736644 -0.0415541 0
-0.0592941 -0.0379766 0
-0.0456891 -0.0326613 0
-0.0380679 -0.0261906 0
-0.0323233 -0.019269 0
-0.0238419 -0.0127954 0
-0.0169189 -0.00681609 0
-0.0114216 -0.00139478 0
-0.00723082 0.00334941 0
-0.00419189 0.00728371 0
-0.00211817 0.0102913 0
-0.00081057 0.0122842 0
-7.71168e-05 0.0132077 0
0.000253266 0.0130425 0
0.000324137 0.0118067 0
0.000251547 0.00955598 0
0.000128737 0.00638089 0
3.26039e-05 0.00239893 0
-0.000183031 -0.000282047 0
-0.000921669 -0.000106777 0
-0.00242345 0.000730425 0
-0.00471513 0.00216089 0
-0.00780714 0.00411266 0
-0.0116992 0.00651488 0
-0.0163873 0.00930097 0
-0.0218702 0.0124092 0
-0.0281517 0.01578 0
-0.0352382 0.0193489 0
-0.0431288 0.0230375 0
-0.0469828 0.02674 0
-0.0515466 0.0302882 0
-0.0616259 0.0335593 0
-0.0724268 0.0363687 0
-0.0838663 0.0385169 0
-0.095766 0.0397847 0
-0.107863 0.0399389 0
-0.119826 0.0387505 0
-0.131269 0.0360237 0
-0.141774 0.0316284 0
-0.150912 0.0255286 0
-0.158262 0.0178043 0
-0.162825 0.00866436 0
-0.164842 -0.00155987 0
-0.164772 -0.0118161 0
-0.161945 -0.0221547 0
-0.156244 -0.0319636 0
-0.147716 -0.0406012 0
-0.136567 -0.047461 0
-0.123171 -0.0520328 0
-0.108066 -0.0539653 0
-0.0919308 -0.0531213 0
-0.0755427 -0.0496146 0
-0.059711 -0.0438177 0
-0.0508527 -0.0363327 0
-0.0439645 -0.0279409 0
-0.033419 -0.0203222 0
-0.0245632 -0.0132287 0
-0.017334 -0.0066752 0
-0.011656 -0.000822051 0
-0.00738666 0.0041424 0
-0.00433026 0.00805812 0
-0.00226692 0.0108124 0
-0.000977438 0.0123425 0
-0.000259838 0.0126331 0
6.23804e-05 0.0117123 0
0.000138468 0.00964634 0
9.24619e-05 0.00653279 0
2.64831e-05 0.00249165 0
-0.000226629 0.000392676 0
-0.00113137 0.00180766 0
-0.00295235 0.00378899 0
-0.00570588 0.00625089 0
-0.00939026 0.00911565 0
-0.013992 0.0123184 0
-0.0194936 0.0158079 0
-0.0258802 0.0195424 0
-0.0331433 0.0234803 0
-0.0412783 0.0275671 0
-0.0502751 0.0317204 0
-0.0546688 0.0358142 0
-0.0598232 0.0396446 0
-0.0711599 0.0432519 0
-0.0832552 0.0463544 0
-0.0960103 0.0486777 0
-0.109231 0.0499456 0
-0.12264 0.0498821 0
-0.135895 0.0482292 0
-0.148606 0.0447753 0
-0.160352 0.039386 0
-0.170704 0.0320308 0
-0.179239 0.0227999 0
-0.184429 0.0119124 0
-0.187004 -0.000287561 0
-0.187895 -0.012489 0
-0.185846 -0.0249504 0
-0.180675 -0.0369556 0
-0.172364 -0.0477769 0
-0.16105 -0.0567048 0
-0.147044 -0.0631106 0
-0.130842 -0.0665133 0
-0.113121 -0.0666486 0
-0.094706 -0.0635235 0
-0.0765099 -0.0574428 0
-0.0663552 -0.0489935 0
-0.0581705 -0.0390185 0
-0.0451535 -0.0302088 0
-0.0339532 -0.0218573 0
-0.0246196 -0.0139477 0
-0.0171365 -0.00671984 0
-0.0113748 -0.000446278 0
-0.00712579 0.00465133 0
-0.00414151 0.00842391 0
-0.00216747 0.010793 0
-0.000963265 0.0117413 0
-0.000313757 0.0113028 0
-3.32983e-05 0.00955228 0
3.40526e-05 0.00659573 0
1.60614e-05 0.00256122 0
-0.000273421 0.00125108 0
-0.00135542 0.00421221 0
-0.00351437 0.00759376 0
-0.006752 0.0112952 0
-0.0110503 0.0152374 0
-0.0163789 0.0193669 0
-0.0227045 0.0236542 0
-0.0299979 0.0280839 0
-0.0382387 0.0326386 0
-0.0474124 0.0372786 0
-0.0575019 0.0419218 0
-0.062425 0.0464262 0
-0.0681613 0.0505585 0
-0.0807413 0.0545147 0
-0.0941127 0.0579088 0
-0.10816 0.0603899 0
-0.122677 0.0616253 0
-0.137377 0.0612986 0
-0.151914 0.0591258 0
-0.165898 0.0548823 0
-0.178914 0.0484314 0
-0.190539 0.0397474 0
-0.200354 0.0289277 0
-0.206183 0.0161954 0
-0.209398 0.00190133 0
-0.211505 -0.0124341 0
-0.210514 -0.0272537 0
-0.206196 -0.0417355 0
-0.198466 -0.0550783 0
-0.187375 -0.0664741 0
-0.173146 -0.0751698 0
-0.156194 -0.080536 0
-0.137148 -0.0821463 0
-0.116838 -0.0798521 0
-0.0962492 -0.0738336 0
-0.0848175 -0.0646083 0
-0.0751991 -0.0530421 0
-0.0592625 -0.0430453 0
-0.045267 -0.0332711 0
-0.0334222 -0.0237302 0
-0.0237832 -0.0147987 0
-0.0162362 -0.00687037 0
-0.0105563 -0.000251916 0
-0.00646216 0.00485615 0
-0.00365713 0.00834987 0
-0.00185551 0.0102044 0
-0.000797689 0.0104564 0
-0.000257211 0.00918929 0
-4.27801e-05 0.00652072 0
2.31438e-06 0.00259225 0
-0.000321533 0.00231308 0
-0.00158498 0.0071562 0
-0.00408788 0.0122137 0
-0.00781469 0.0173732 0
-0.0127281 0.0225599 0
-0.0187788 0.0277398 0
-0.0259156 0.0329137 0
-0.0340948 0.0381011 0
-0.043284 0.0433161 0
-0.0534604 0.0485401 0
-0.0646013 0.053696 0
-0.070031 0.0586305 0
-0.0763251 0.0630875 0
-0.0901002 0.0674012 0
-0.104693 0.0710791 0
-0.119971 0.0736951 0
-0.135717 0.074863 0
-0.151641 0.0742294 0
-0.167395 0.0714874 0
-0.182597 0.066402 0
-0.196838 0.058836 0
-0.209706 0.0487689 0
-0.220794 0.0363054 0
-0.227219 0.0216724 0
-0.231104 0.00523103 0
-0.234597 -0.0114193 0
-0.234886 -0.0287967 0
-0.231724 -0.0459961 0
-0.224965 -0.0621651 0
-0.214566 -0.0764142 0
-0.200629 -0.0878734 0
-0.18345 -0.095757 0
-0.163548 -0.0994483 0
-0.141691 -0.0985928 0
-0.118875 -0.0931779 0
-0.106322 -0.0835751 0
-0.0951882 -0.0706012 0
-0.0758974 -0.0594783 0
-0.0586652 -0.0480968 0
-0.0438984 -0.0366035 0
-0.0317335 -0.0255798 0
-0.0220795 -0.0155829 0
-0.0146996 -0.00703379 0
-0.00927859 -0.000203982 0
-0.00547374 0.00476435 0
-0.00294836 0.00783146 0
-0.00139234 0.00903429 0
-0.000532596 0.00846553 0
-0.000136981 0.00625751 0
-1.43972e-05 0.00257016 0
-0.000368741 0.00359116 0
-0.00180961 0.0106698 0
-0.00464748 0.0176897 0
-0.00884826 0.0245302 0
-0.0143542 0.0311276 0
-0.0210957 0.0374767 0
-0.0290035 0.0436191 0
-0.0380187 0.0496193 0
-0.0480977 0.0555317 0
-0.0592098 0.0613652 0
-0.0713284 0.0670534 0
-0.0772272 0.0724364 0
-0.0840372 0.0772411 0
-0.0989155 0.0819143 0
-0.114625 0.0858594 0
-0.131019 0.0885796 0
-0.14787 0.0896392 0
-0.164882 0.0886514 0
-0.181711 0.0852897 0
-0.197977 0.0793115 0
-0.213285 0.0705818 0
-0.227238 0.0590892 0
-0.239456 0.0449514 0
-0.246363 0.0284079 0
-0.250872 0.00984132 0
-0.255785 -0.00927469 0
-0.257475 -0.0293374 0
-0.255713 -0.0494137 0
-0.250304 -0.0686312 0
-0.241111 -0.0860509 0
-0.228099 -0.100711 0
-0.211394 -0.111679 0
-0.191343 -0.118137 0
-0.168568 -0.119483 0
-0.143979 -0.115442 0
-0.130659 -0.106146 0
-0.118042 -0.0922516 0
-0.0950815 -0.0801263 0
-0.0742657 -0.0669598 0
-0.0562122 -0.0531801 0
-0.0411562 -0.0396394 0
-0.029053 -0.0271033 0
-0.019672 -0.0161431 0
-0.0126738 -0.00712946 0
-0.00767128 -0.000261464 0
-0.0042735 0.00439541 0
-0.00211408 0.00687374 0
-0.000866513 0.00727533 0
-0.00025078 0.00574977 0
-3.44375e-05 0.0024792 0
-0.000412443 0.0050877 0
-0.00201727 0.0147573 0
-0.00516395 0.0240256 0
-0.00980049 0.0327668 0
-0.0158493 0.0409358 0
-0.023221 0.0485661 0
-0.0318284 0.0557512 0
-0.0415978 0.0626114 0
-0.0524746 0.0692506 0
-0.0644206 0.0757127 0
-0.0774054 0.0819475 0
-0.0837201 0.0877934 0
-0.0909824 0.0929657 0
-0.106819 0.0979885 0
-0.123484 0.102171 0
-0.140812 0.104952 0
-0.158565 0.105849 0
-0.176443 0.104448 0
-0.1941 0.100403 0
-0.21116 0.0934706 0
-0.227242 0.0835223 0
-0.241973 0.0705654 0
-0.255018 0.0547435 0
-0.262221 0.0363248 0
-0.267222 0.0157291 0
-0.273412 -0.00593883 0
-0.276484 -0.0287046 0
-0.276259 -0.0516916 0
-0.272514 -0.0740439 0
-0.26503 -0.0948196 0
-0.253627 -0.113009 0
-0.238233 -0.127569 0
-0.218965 -0.137493 0
-0.196204 -0.141913 0
-0.170664 -0.140236 0
-0.157158 -0.132264 0
-0.143279 -0.118352 0
-0.116619 -0.10543 0
-0.0920872 -0.0903844 0
-0.0705009 -0.0740472 0
-0.052233 -0.0575822 0
-0.0373364 -0.0420094 0
-0.0256272 -0.0280991 0
-0.0167664 -0.0163625 0
-0.0103335 -0.00708613 0
-0.00588512 -0.000379484 0
-0.0029944 0.0037764 0
-0.00127459 0.0054897 0
-0.000389984 0.00492837 0
-5.89506e-05 0.00229968 0
-0.000449732 0.00679218 0
-0.00219456 0.0193908 0
-0.00560518 0.0311789 0
-0.0106144 0.0420285 0
-0.0171272 0.0519199 0
-0.0250367 0.0609344 0
-0.0342392 0.0692279 0
-0.0446468 0.0769868 0
-0.0561937 0.084374 0
-0.068834 0.0914758 0
-0.0825325 0.0982636 0
-0.0891923 0.104579 0
-0.0968197 0.110129 0
-0.11341 0.115474 0
-0.1308 0.119845 0
-0.148806 0.122622 0
-0.167175 0.123283 0
-0.185599 0.121383 0
-0.203727 0.116569 0
-0.221189 0.108598 0
-0.237619 0.0973605 0
-0.252681 0.0828978 0
-0.266098 0.0653973 0
-0.273354 0.0451764 0
-0.278631 0.0227063 0
-0.285773 -0.00149364 0
-0.290045 -0.0268433 0
-0.291345 -0.0526154 0
-0.289448 -0.0780081 0
-0.284077 -0.102134 0
-0.274925 -0.123997 0
-0.261716 -0.142502 0
-0.244297 -0.156499 0
-0.222742 -0.164877 0
-0.197445 -0.166702 0
-0.184542 -0.161378 0
-0.16988 -0.148809 0
-0.139974 -0.135447 0
-0.111944 -0.118656 0
-0.0867907 -0.0996756 0
-0.0650986 -0.0799858 0
-0.0471022 -0.0609094 0
-0.0327325 -0.0434816 0
-0.0216967 -0.0284172 0
-0.0135666 -0.0161378 0
-0.0078559 -0.00682915 0
-0.00407776 -0.000503586 0
-0.00177993 0.0029458 0
-0.000563546 0.00370389 0
-8.97665e-05 0.00200495 0
-0.00047757 0.00867886 0
-0.00232758 0.0245046 0
-0.00593794 0.0390539 0
-0.0112311 0.0521984 0
-0.0180996 0.0639478 0
-0.0264226 0.0744383 0
-0.0360821 0.0838967 0
-0.0469771 0.0925846 0
-0.0590303 0.100732 0
-0.0721866 0.108474 0
-0.0864039 0.115809 0
-0.0933204 0.122586 0
-0.101201 0.128507 0
-0.11828 0.134125 0
-0.136099 0.13861 0
-0.154451 0.141291 0
-0.173069 0.141609 0
-0.191629 0.139096 0
-0.209778 0.133394 0
-0.22715 0.124271 0
-0.243405 0.111656 0
-0.258254 0.0956411 0
-0.271489 0.0764786 0
-0.278522 0.0545541 0
-0.283803 0.0303972 0
-0.291421 0.00382512 0
-0.296565 -0.0238462 0
-0.29921 -0.0521063 0
-0.299163 -0.0802441 0
-0.296128 -0.107485 0
-0.289703 -0.132917 0
-0.27944 -0.155473 0
-0.26492 -0.173938 0
-0.245873 -0.187018 0
-0.222301 -0.193469 0