# vtk DataFile Version 2.0
Velocidades
ASCII

DATASET STRUCTURED_GRID
DIMENSIONS   50   50   20

POINTS   50000   double
0.00568455   0.00568455   0.025
0.0174023   0.00568455   0.025
0.0298294   0.00568455   0.025
0.0429888   0.00568455   0.025
0.0569012   0.00568455   0.025
0.0715849   0.00568455   0.025
0.0870549   0.00568455   0.025
0.103323   0.00568455   0.025
0.120395   0.00568455   0.025
0.138275   0.00568455   0.025
0.156961   0.00568455   0.025
0.176443   0.00568455   0.025
0.196707   0.00568455   0.025
0.217734   0.00568455   0.025
0.239496   0.00568455   0.025
0.261959   0.00568455   0.025
0.285082   0.00568455   0.025
0.308818   0.00568455   0.025
0.333113   0.00568455   0.025
0.357906   0.00568455   0.025
0.383132   0.00568455   0.025
0.408719   0.00568455   0.025
0.434592   0.00568455   0.025
0.460672   0.00568455   0.025
0.486877   0.00568455   0.025
0.513123   0.00568455   0.025
0.539328   0.00568455   0.025
0.565408   0.00568455   0.025
0.591281   0.00568455   0.025
0.616868   0.00568455   0.025
0.642094   0.00568455   0.025
0.666887   0.00568455   0.025
0.691182   0.00568455   0.025
0.714918   0.00568455   0.025
0.738041   0.00568455   0.025
0.760504   0.00568455   0.025
0.782266   0.00568455   0.025
0.803293   0.00568455   0.025
0.823557   0.00568455   0.025
0.843039   0.00568455   0.025
0.861725   0.00568455   0.025
0.879605   0.00568455   0.025
0.896677   0.00568455   0.025
0.912945   0.00568455   0.025
0.928415   0.00568455   0.025
0.943099   0.00568455   0.025
0.957011   0.00568455   0.025
0.970171   0.00568455   0.025
0.982598   0.00568455   0.025
0.994315   0.00568455   0.025
0.00568455   0.0174023   0.025
0.0174023   0.0174023   0.025
0.0298294   0.0174023   0.025
0.0429888   0.0174023   0.025
0.0569012   0.0174023   0.025
0.0715849   0.0174023   0.025
0.0870549   0.0174023   0.025
0.103323   0.0174023   0.025
0.120395   0.0174023   0.025
0.138275   0.0174023   0.025
0.156961   0.0174023   0.025
0.176443   0.0174023   0.025
0.196707   0.0174023   0.025
0.217734   0.0174023   0.025
0.239496   0.0174023   0.025
0.261959   0.0174023   0.025
0.285082   0.0174023   0.025
0.308818   0.0174023   0.025
0.333113   0.0174023   0.025
0.357906   0.0174023   0.025
0.383132   0.0174023   0.025
0.408719   0.0174023   0.025
0.434592   0.0174023   0.025
0.460672   0.0174023   0.025
0.486877   0.0174023   0.025
0.513123   0.0174023   0.025
0.539328   0.0174023   0.025
0.565408   0.0174023   0.025
0.591281   0.0174023   0.025
0.616868   0.0174023   0.025
0.642094   0.0174023   0.025
0.666887   0.0174023   0.025
0.691182   0.0174023   0.025
0.714918   0.0174023   0.025
0.738041   0.0174023   0.025
0.760504   0.0174023   0.025
0.782266   0.0174023   0.025
0.803293   0.0174023   0.025
0.823557   0.0174023   0.025
0.843039   0.0174023   0.025
0.861725   0.0174023   0.025
0.879605   0.0174023   0.025
0.896677   0.0174023   0.025
0.912945   0.0174023   0.025
0.928415   0.0174023   0.025
0.943099   0.0174023   0.025
0.957011   0.0174023   0.025
0.970171   0.0174023   0.025
0.982598   0.0174023   0.025
0.994315   0.0174023   0.025
0.00568455   0.0298294   0.025
0.0174023   0.0298294   0.025
0.0298294   0.0298294   0.025
0.0429888   0.0298294   0.025
0.0569012   0.0298294   0.025
0.0715849   0.0298294   0.025
0.0870549   0.0298294   0.025
0.103323   0.0298294   0.025
0.120395   0.0298294   0.025
0.138275   0.0298294   0.025
0.156961   0.0298294   0.025
0.176443   0.0298294   0.025
0.196707   0.0298294   0.025
0.217734   0.0298294   0.025
0.239496   0.0298294   0.025
0.261959   0.0298294   0.025
0.285082   0.0298294   0.025
0.308818   0.0298294   0.025
0.333113   0.0298294   0.025
0.357906   0.0298294   0.025
0.383132   0.0298294   0.025
0.408719   0.0298294   0.025
0.434592   0.0298294   0.025
0.460672   0.0298294   0.025
0.486877   0.0298294   0.025
0.513123   0.0298294   0.025
0.539328   0.0298294   0.025
0.565408   0.0298294   0.025
0.591281   0.0298294   0.025
0.616868   0.0298294   0.025
0.642094   0.0298294   0.025
0.666887   0.0298294   0.025
0.691182   0.0298294   0.025
0.714918   0.0298294   0.025
0.738041   0.0298294   0.025
0.760504   0.0298294   0.025
0.782266   0.0298294   0.025
0.803293   0.0298294   0.025
0.823557   0.0298294   0.025
0.843039   0.0298294   0.025
0.861725   0.0298294   0.025
0.879605   0.0298294   0.025
0.896677   0.0298294   0.025
0.912945   0.0298294   0.025
0.928415   0.0298294   0.025
0.943099   0.0298294   0.025
0.957011   0.0298294   0.025
0.970171   0.0298294   0.025
0.982598   0.0298294   0.025
0.994315   0.0298294   0.025
0.00568455   0.0429888   0.025
0.0174023   0.0429888   0.025
0.0298294   0.0429888   0.025
0.0429888   0.0429888   0.025
0.0569012   0.0429888   0.025
0.0715849   0.0429888   0.025
0.0870549   0.0429888   0.025
0.103323   0.0429888   0.025
0.120395   0.0429888   0.025
0.138275   0.0429888   0.025
0.156961   0.0429888   0.025
0.176443   0.0429888   0.025
0.196707   0.0429888   0.025
0.217734   0.0429888   0.025
0.239496   0.0429888   0.025
0.261959   0.0429888   0.025
0.285082   0.0429888   0.025
0.308818   0.0429888   0.025
0.333113   0.0429888   0.025
0.357906   0.0429888   0.025
0.383132   0.0429888   0.025
0.408719   0.0429888   0.025
0.434592   0.0429888   0.025
0.460672   0.0429888   0.025
0.486877   0.0429888   0.025
0.513123   0.0429888   0.025
0.539328   0.0429888   0.025
0.565408   0.0429888   0.025
0.591281   0.0429888   0.025
0.616868   0.0429888   0.025
0.642094   0.0429888   0.025
0.666887   0.0429888   0.025
0.691182   0.0429888   0.025
0.714918   0.0429888   0.025
0.738041   0.0429888   0.025
0.760504   0.0429888   0.025
0.782266   0.0429888   0.025
0.803293   0.0429888   0.025
0.823557   0.0429888   0.025
0.843039   0.0429888   0.025
0.861725   0.0429888   0.025
0.879605   0.0429888   0.025
0.896677   0.0429888   0.025
0.912945   0.0429888   0.025
0.928415   0.0429888   0.025
0.943099   0.0429888   0.025
0.957011   0.0429888   0.025
0.970171   0.0429888   0.025
0.982598   0.0429888   0.025
0.994315   0.0429888   0.025
0.00568455   0.0569012   0.025
0.0174023   0.0569012   0.025
0.0298294   0.0569012   0.025
0.0429888   0.0569012   0.025
0.0569012   0.0569012   0.025
0.0715849   0.0569012   0.025
0.0870549   0.0569012   0.025
0.103323   0.0569012   0.025
0.120395   0.0569012   0.025
0.138275   0.0569012   0.025
0.156961   0.0569012   0.025
0.176443   0.0569012   0.025
0.196707   0.0569012   0.025
0.217734   0.0569012   0.025
0.239496   0.0569012   0.025
0.261959   0.0569012   0.025
0.285082   0.0569012   0.025
0.308818   0.0569012   0.025
0.333113   0.0569012   0.025
0.357906   0.0569012   0.025
0.383132   0.0569012   0.025
0.408719   0.0569012   0.025
0.434592   0.0569012   0.025
0.460672   0.0569012   0.025
0.486877   0.0569012   0.025
0.513123   0.0569012   0.025
0.539328   0.0569012   0.025
0.565408   0.0569012   0.025
0.591281   0.0569012   0.025
0.616868   0.0569012   0.025
0.642094   0.0569012   0.025
0.666887   0.0569012   0.025
0.691182   0.0569012   0.025
0.714918   0.0569012   0.025
0.738041   0.0569012   0.025
0.760504   0.0569012   0.025
0.782266   0.0569012   0.025
0.803293   0.0569012   0.025
0.823557   0.0569012   0.025
0.843039   0.0569012   0.025
0.861725   0.0569012   0.025
0.879605   0.0569012   0.025
0.896677   0.0569012   0.025
0.912945   0.0569012   0.025
0.928415   0.0569012   0.025
0.943099   0.0569012   0.025
0.957011   0.0569012   0.025
0.970171   0.0569012   0.025
0.982598   0.0569012   0.025
0.994315   0.0569012   0.025
0.00568455   0.0715849   0.025
0.0174023   0.0715849   0.025
0.0298294   0.0715849   0.025
0.0429888   0.0715849   0.025
0.0569012   0.0715849   0.025
0.0715849   0.0715849   0.025
0.0870549   0.0715849   0.025
0.103323   0.0715849   0.025
0.120395   0.0715849   0.025
0.138275   0.0715849   0.025
0.156961   0.0715849   0.025
0.176443   0.0715849   0.025
0.196707   0.0715849   0.025
0.217734   0.0715849   0.025
0.239496   0.0715849   0.025
0.261959   0.0715849   0.025
0.285082   0.0715849   0.025
0.308818   0.0715849   0.025
0.333113   0.0715849   0.025
0.357906   0.0715849   0.025
0.383132   0.0715849   0.025
0.408719   0.0715849   0.025
0.434592   0.0715849   0.025
0.460672   0.0715849   0.025
0.486877   0.0715849   0.025
0.513123   0.0715849   0.025
0.539328   0.0715849   0.025
0.565408   0.0715849   0.025
0.591281   0.0715849   0.025
0.616868   0.0715849   0.025
0.642094   0.0715849   0.025
0.666887   0.0715849   0.025
0.691182   0.0715849   0.025
0.714918   0.0715849   0.025
0.738041   0.0715849   0.025
0.760504   0.0715849   0.025
0.782266   0.0715849   0.025
0.803293   0.0715849   0.025
0.823557   0.0715849   0.025
0.843039   0.0715849   0.025
0.861725   0.0715849   0.025
0.879605   0.0715849   0.025
0.896677   0.0715849   0.025
0.912945   0.0715849   0.025
0.928415   0.0715849   0.025
0.943099   0.0715849   0.025
0.957011   0.0715849   0.025
0.970171   0.0715849   0.025
0.982598   0.0715849   0.025
0.994315   0.0715849   0.025
0.00568455   0.0870549   0.025
0.0174023   0.0870549   0.025
0.0298294   0.0870549   0.025
0.0429888   0.0870549   0.025
0.0569012   0.0870549   0.025
0.0715849   0.0870549   0.025
0.0870549   0.0870549   0.025
0.103323   0.0870549   0.025
0.120395   0.0870549   0.025
0.138275   0.0870549   0.025
0.156961   0.0870549   0.025
0.176443   0.0870549   0.025
0.196707   0.0870549   0.025
0.217734   0.0870549   0.025
0.239496   0.0870549   0.025
0.261959   0.0870549   0.025
0.285082   0.0870549   0.025
0.308818   0.0870549   0.025
0.333113   0.0870549   0.025
0.357906   0.0870549   0.025
0.383132   0.0870549   0.025
0.408719   0.0870549   0.025
0.434592   0.0870549   0.025
0.460672   0.0870549   0.025
0.486877   0.0870549   0.025
0.513123   0.0870549   0.025
0.539328   0.0870549   0.025
0.565408   0.0870549   0.025
0.591281   0.0870549   0.025
0.616868   0.0870549   0.025
0.642094   0.0870549   0.025
0.666887   0.0870549   0.025
0.691182   0.0870549   0.025
0.714918   0.0870549   0.025
0.738041   0.0870549   0.025
0.760504   0.0870549   0.025
0.782266   0.0870549   0.025
[...]
POINT_DATA   50000
VECTORS Velocidades double

-7.68534e-05 -0.00168907 0
-0.000207934 -0.00331762 0
-0.000285513 -0.0042346 0
-0.00031395 -0.00474987 0
-0.000321014 -0.00498896 0
-0.00033396 -0.00501531 0
-0.000373533 -0.00486791 0
-0.000454317 -0.00457444 0
-0.000586148 -0.00415603 0
-0.000775641 -0.00362798 0
-0.00102823 -0.00299672 0
-0.00115404 -0.00224623 0
-0.00133391 -0.00127789 0
-0.00177617 -0.000549415 0
-0.00229375 5.81494e-05 0
-0.00285921 0.000571583 0
-0.00346315 0.000987763 0
-0.00409651 0.00128974 0
-0.00474614 0.00145501 0
-0.0053931 0.00146211 0
-0.00601199 0.0012965 0
-0.00657155 0.000955513 0
-0.00703738 0.00045192 0
-0.00736361 -0.000183652 0
-0.00750841 -0.000890837 0
-0.00744374 -0.00160258 0
-0.0071521 -0.00223942 0
-0.00663721 -0.00272688 0
-0.00592304 -0.00300111 0
-0.00505435 -0.00301761 0
-0.00409253 -0.00275844 0
-0.00310751 -0.00223588 0
-0.00216766 -0.00149149 0
-0.00132978 -0.000591921 0
-0.000630593 0.000376156 0
-0.000238716 0.00130416 0
2.05135e-06 0.00203256 0
0.000272514 0.0028755 0
0.000437757 0.00367522 0
0.000503972 0.00437276 0
0.000490935 0.0049423 0
0.000418456 0.00537197 0
0.000304779 0.00565572 0
0.00016708 0.00578876 0
2.25197e-05 0.00576435 0
-0.000110305 0.00556984 0
-0.000209564 0.00517963 0
-0.000249258 0.00453928 0
-0.000204942 0.00352212 0
-7.95906e-05 0.00179163 0
-0.000257131 -0.00310523 0
-0.000677358 -0.00647214 0
-0.00089463 -0.00841808 0
-0.000950711 -0.00949804 0
-0.000950659 -0.00997957 0
-0.000977577 -0.0100075 0
-0.00109059 -0.00967183 0
-0.00133116 -0.00903565 0
-0.00172802 -0.00814606 0
-0.00230148 -0.00703618 0
-0.00306948 -0.00571846 0
-0.00340572 -0.00415628 0
-0.00396942 -0.00216874 0
-0.00539791 -0.000666926 0
-0.00701022 0.000577898 0
-0.00877007 0.00162658 0
-0.0106523 0.0024741 0
-0.0126263 0.00308434 0
-0.0146466 0.00340862 0
-0.016648 0.00339989 0
-0.0185453 0.00302521 0
-0.0202362 0.00227665 0
-0.0216101 0.00117941 0
-0.0225377 -0.000202898 0
-0.0228999 -0.00176863 0
-0.0226179 -0.00334783 0
-0.0216586 -0.00477814 0
-0.0200472 -0.00590049 0
-0.0178624 -0.006575 0
-0.0152374 -0.00670095 0
-0.0123479 -0.00623371 0
-0.00939187 -0.00519361 0
-0.00656393 -0.00366524 0
-0.00402944 -0.00178907 0
-0.00190113 0.000248317 0
-0.000743766 0.00220943 0
-2.34079e-06 0.00376261 0
0.00088115 0.00554829 0
0.00140366 0.00724386 0
0.00161396 0.00872358 0
0.00157385 0.00993398 0
0.0013438 0.0108511 0
0.00098028 0.0114622 0
0.000537163 0.0117561 0
6.844e-05 0.011716 0
-0.000367888 0.0113106 0
-0.000704049 0.0104785 0
-0.000854941 0.00909475 0
-0.000720672 0.00689283 0
-0.000284625 0.00328118 0
-0.000185438 -0.00262375 0
-0.000589087 -0.00607779 0
-0.000961393 -0.00821286 0
-0.00122065 -0.00939696 0
-0.00142815 -0.00988966 0
-0.00167604 -0.00986092 0
-0.00204808 -0.0094253 0
-0.00261093 -0.00866437 0
-0.00341511 -0.00763774 0
-0.00449908 -0.00638548 0
-0.00589511 -0.00492094 0
-0.00652743 -0.00320354 0
-0.00750021 -0.00108796 0
-0.0099012 0.000530165 0
-0.0125997 0.00185911 0
-0.015551 0.00296987 0
-0.0187084 0.00385853 0
-0.0220115 0.00448282 0
-0.0253753 0.00478433 0
-0.0286835 0.00470519 0
-0.0317891 0.00420275 0
-0.0345201 0.00326261 0
-0.0366924 0.00190912 0
-0.0381354 0.000210302 0
-0.0386523 -0.00175695 0
-0.0381069 -0.00375488 0
-0.0364864 -0.00560428 0
-0.0338383 -0.00711965 0
-0.0302899 -0.00813014 0
-0.0260474 -0.0085056 0
-0.0213787 -0.00817908 0
-0.0165841 -0.00716 0
-0.0119607 -0.0055359 0
-0.00776502 -0.00346484 0
-0.0041795 -0.0011658 0
-0.00220672 0.0010773 0
-0.000921998 0.00290146 0
0.000637266 0.004959 0
0.00161219 0.00691172 0
0.00208669 0.00861862 0
0.00215627 0.0100214 0
0.00191669 0.0110938 0
0.00146124 0.0118203 0
0.000881891 0.0121839 0
0.000271775 0.0121585 0
-0.000272032 0.0116987 0
-0.000648083 0.0107237 0
-0.000760776 0.00909045 0
-0.000565345 0.00655601 0
-0.000195202 0.00275954 0
-0.000117115 -0.00227579 0
-0.000450294 -0.00560424 0
-0.000900745 -0.00781076 0
-0.00137303 -0.00905968 0
-0.00187741 -0.00954585 0
-0.00247867 -0.00943693 0
-0.00325693 -0.00886455 0
-0.00428799 -0.00792937 0
-0.00563634 -0.0067064 0
-0.00735459 -0.00524598 0
-0.00948484 -0.003567 0
-0.0104785 -0.00163606 0
-0.0118949 0.000651149 0
-0.0152943 0.00243583 0
-0.0190922 0.00389839 0
-0.0232414 0.00510859 0
-0.0276737 0.00605871 0
-0.0322946 0.00669621 0
-0.0369741 0.00694828 0
-0.0415421 0.0067417 0
-0.0457894 0.00602051 0
-0.0494776 0.00476213 0
-0.0523556 0.00299039 0
-0.054248 0.00078008 0
-0.0548791 -0.00178747 0
-0.0540505 -0.00441722 0
-0.0517999 -0.00689584 0
-0.0481932 -0.00899974 0
-0.043396 -0.010515 0
-0.037671 -0.0112709 0
-0.0313568 -0.0111692 0
-0.0248343 -0.0102029 0
-0.0184846 -0.00846172 0
-0.012644 -0.00612562 0
-0.00756501 -0.00345485 0
-0.00474479 -0.000787591 0
-0.00287163 0.00147232 0
-0.000540332 0.00394708 0
0.00100294 0.00628533 0
0.00187617 0.00833401 0
0.00220301 0.0100279 0
0.0021088 0.0113352 0
0.001719 0.012233 0
0.00115878 0.0126949 0
0.000552246 0.0126826 0
1.92433e-05 0.0121371 0
-0.000334311 0.0109695 0
-0.000439854 0.00905467 0
-0.000310723 0.00624201 0
-9.8021e-05 0.00242332 0
-8.3942e-05 -0.00203087 0
-0.000381462 -0.00510895 0
-0.000898995 -0.00722299 0
-0.0015808 -0.00842262 0
-0.0024205 -0.00883174 0
-0.00345569 -0.00859273 0
-0.00474849 -0.00783818 0
-0.00636859 -0.00668011 0
-0.00838268 -0.00520668 0
-0.010849 -0.00347978 0
-0.0138129 -0.00152907 0
-0.015222 0.00066103 0
-0.0171186 0.0031489 0
-0.021563 0.00514322 0
-0.0264907 0.00678613 0
-0.0318547 0.00813149 0
-0.0375662 0.00915905 0
-0.043495 0.00980032 0
-0.0494645 0.00996358 0
-0.0552498 0.00955661 0
-0.0605823 0.00850804 0
-0.0651632 0.00678697 0
-0.0686846 0.00441897 0
-0.0709848 0.00149263 0
-0.0717146 -0.00187799 0
-0.0706229 -0.00534842 0
-0.0678084 -0.00866328 0
-0.0633471 -0.0115513 0
-0.0574289 -0.0137451 0
-0.0503545 -0.0150236 0
-0.0425138 -0.0152488 0
-0.0343503 -0.0143905 0
-0.0263157 -0.0125366 0
-0.0188212 -0.00988956 0
-0.0121933 -0.00675363 0
-0.00849352 -0.00352381 0
-0.00598011 -0.000651428 0
-0.00275292 0.00238684 0
-0.000501282 0.00523666 0
0.000923328 0.0077402 0
0.00166662 0.00982482 0
0.00187652 0.011449 0
0.00170342 0.0125786 0
0.00129707 0.0131757 0
0.00080088 0.0131915 0
0.000342658 0.0125631 0
1.99176e-05 0.0112139 0
-0.000120894 0.00906514 0
-0.000105451 0.00606782 0
-3.34813e-05 0.00226457 0
-7.80867e-05 -0.00182181 0
-0.000391695 -0.00456173 0
-0.00101299 -0.00642851 0
-0.00192895 -0.00743284 0
-0.00313922 -0.00765272 0
-0.00466693 -0.00720143 0
-0.00655578 -0.00620082 0
-0.00886164 -0.00476421 0
-0.0116439 -0.00298704 0
-0.0149576 -0.00094141 0
-0.0188448 0.00132883 0
-0.0207154 0.00381409 0
-0.0231274 0.00652266 0
-0.0286726 0.00876165 0
-0.0347709 0.0106248 0
-0.0413744 0.0121348 0
-0.0483741 0.0132482 0
-0.0556044 0.0138733 0
-0.0628428 0.0138952 0
-0.0698123 0.0132003 0
-0.0761911 0.0117011 0
-0.0816292 0.00936045 0
-0.0857745 0.00620971 0
-0.0884678 0.00236019 0
-0.0893104 -0.00202234 0
-0.0880266 -0.00653593 0
-0.0847594 -0.010892 0
-0.0795806 -0.0147641 0
-0.0726871 -0.0178222 0
-0.064399 -0.0197855 0
-0.0551391 -0.0204665 0
-0.0453986 -0.0198028 0
-0.0356918 -0.0178732 0
-0.0265038 -0.014897 0
-0.0182434 -0.0112206 0
-0.0136197 -0.00729582 0
-0.0104016 -0.00362882 0
-0.00612536 0.000117517 0
-0.00299724 0.0036031 0
-0.000846311 0.00667588 0
0.000486434 0.00925604 0
0.00116329 0.0112886 0
0.0013516 0.012725 0
0.00121744 0.0135155 0
0.000915501 0.0136064 0
0.000576602 0.0129413 0
0.000294321 0.0114698 0
0.000113816 0.00916453 0
2.99781e-05 0.00604892 0
4.3029e-06 0.00222818 0
-9.0429e-05 -0.00159208 0
-0.000467052 -0.00389119 0
-0.00124635 -0.00536196 0
-0.00244429 -0.00601571 0
-0.00407183 -0.00591132 0
-0.00614677 -0.00514095 0
-0.00869874 -0.00381191 0
-0.0117683 -0.0020312 0
-0.0154022 0.000105074 0
-0.0196462 0.00251777 0
-0.0245336 0.00514785 0
-0.0269035 0.00795666 0
-0.029863 0.0109003 0
-0.0365657 0.0134121 0
-0.0438792 0.0155265 0
-0.0517509 0.0172216 0
-0.0600513 0.0184188 0
-0.0685808 0.0189965 0
-0.0770745 0.0188124 0
-0.08521 0.0177304 0
-0.0926211 0.0156486 0
-0.0989186 0.0125266 0
-0.103719 0.008407 0
-0.106819 0.00343066 0
-0.10782 -0.00217823 0
-0.106475 -0.00792998 0
-0.102918 -0.0135334 0
-0.0971971 -0.0186 0
-0.0894984 -0.0227287 0
-0.0801414 -0.0255693 0
-0.0695649 -0.0268733 0
-0.0582953 -0.026533 0
-0.0469036 -0.0246053 0
-0.0359519 -0.0213164 0
-0.0259404 -0.0170474 0
-0.0203303 -0.0123046 0
-0.0163248 -0.00765789 0
-0.0108103 -0.00306496 0
-0.00660304 0.00117911 0
-0.00352295 0.00494119 0
-0.00140958 0.00813418 0
-9.49862e-05 0.010685 0
0.000598539 0.0125274 0
0.00084868 0.0136004 0
0.000819578 0.0138496 0
0.000648761 0.0132318 0
0.000437365 0.0117253 0
0.000246817 0.00934343 0
0.000105209 0.00615026 0
2.42216e-05 0.00226769 0
-0.000115237 -0.00129692 0
-0.000593294 -0.00301365 0
-0.00158589 -0.00392922 0
-0.00312334 -0.00407103 0
-0.00522373 -0.00349623 0
-0.00790184 -0.00228547 0
-0.0111764 -0.00053257 0
-0.0150734 0.00166613 0
-0.0196254 0.00421941 0
-0.0248653 0.00704504 0
-0.0308148 0.0100698 0
-0.0337131 0.0132249 0
-0.0372467 0.016415 0
-0.0451585 0.0192219 0
-0.0537296 0.0216096 0
-0.0628977 0.023499 0
-0.0725123 0.0247667 0
-0.0823426 0.0252546 0
-0.0920879 0.0247907 0
-0.101389 0.0232166 0
-0.109848 0.020419 0
-0.117049 0.0163585 0
-0.122588 0.0110931 0
-0.126135 0.00479574 0
-0.127368 -0.00225599 0
-0.126157 -0.00943389 0
-0.122525 -0.0164964 0
-0.11648 -0.0229853 0
-0.108177 -0.0284204 0
-0.0979154 -0.0323716 0
-0.0861337 -0.0345153 0
-0.0733806 -0.0346817 0
-0.0602782 -0.0328874 0
-0.0474683 -0.0293479 0
-0.0355533 -0.0244663 0
-0.028875 -0.0187982 0
-0.0239777 -0.0129861 0
-0.0169906 -0.00741945 0
-0.0114581 -0.00229459 0
-0.00721083 0.00228914 0
-0.00410131 0.00623382 0
-0.00196395 0.00944106 0
-0.000614363 0.0118218 0
0.000136511 0.0133026 0
0.000465823 0.0138295 0
0.000525658 0.0133729 0
0.000435855 0.0119348 0
0.000284106 0.00955596 0
0.000133108 0.00631983 0
3.21983e-05 0.0023487 0
-0.000149133 -0.000898721 0
-0.00075939 -0.00184458 0
-0.00201477 -0.00202282 0
-0.00394853 -0.0014811 0
-0.00657863 -0.000282856 0
-0.00991446 0.00149651 0
-0.0139642 0.00377521 0
-0.0187402 0.00647012 0
-0.0242605 0.00949938 0
-0.0305444 0.0127816 0
-0.0376011 0.0162318 0
-0.0410472 0.0197523 0
-0.0451744 0.0231991 0
-0.0543364 0.0263192 0
-0.064199 0.0289932 0
-0.0746861 0.0310751 0
-0.0856258 0.032389 0
-0.096761 0.0327362 0
-0.107763 0.0319138 0
-0.118249 0.0297436 0
-0.127799 0.0261045 0
-0.135985 0.020962 0
-0.14239 0.0143916 0
-0.146439 0.00659431 0
-0.148005 -0.00211126 0
-0.147178 -0.0108986 0
-0.143733 -0.0196421 0
-0.137623 -0.0278032 0
-0.128953 -0.0348157 0
-0.117987 -0.0401598 0
-0.105141 -0.0434207 0
-0.0909723 -0.0443451 0
-0.0761435 -0.0428844 0
-0.0613754 -0.0392188 0
-0.0473816 -0.033753 0
-0.0395417 -0.0270809 0
-0.0336258 -0.019923 0
-0.0248767 -0.0132739 0
-0.0177202 -0.00714362 0
-0.0120251 -0.00158483 0
-0.00767288 0.00328299 0
-0.00450666 0.00732344 0
-0.00233548 0.0104161 0
-0.00095522 0.0124703 0
-0.000168954 0.0134298 0
0.000198714 0.013275 0
0.000294852 0.0120246 0
0.000238258 0.00973607 0
0.00012435 0.00650253 0
3.1871e-05 0.0024449 0
-0.000189902 -0.000364073 0
-0.000956565 -0.000302756 0
-0.00251571 0.000467273 0
-0.00489516 0.00187846 0
-0.00810563 0.00385926 0
-0.0121467 0.00633803 0
-0.0170144 0.00924556 0
-0.0227071 0.0125148 0
-0.0292291 0.0160776 0
-0.0365862 0.0198574 0
-0.0447761 0.0237604 0
-0.0487792 0.0276632 0
-0.0535107 0.0313783 0
-0.0639485 0.0348255 0
-0.0751221 0.0377904 0
-0.086939 0.0400527 0
-0.099207 0.0413799 0
-0.111649 0.0415305 0
-0.123918 0.0402721 0
-0.135616 0.0374099 0
-0.146318 0.0328189 0
-0.155591 0.0264722 0
-0.163014 0.0184612 0
-0.167626 0.00900733 0
-0.169637 -0.00154569 0
-0.16948 -0.0121245 0
-0.166519 -0.0227824 0
-0.160638 -0.0328867 0
-0.151885 -0.0417832 0
-0.140465 -0.0488534 0
-0.126754 -0.0535759 0
-0.111293 -0.0555894 0
-0.0947698 -0.0547495 0
-0.0779722 -0.0511675 0
-0.0617276 -0.0452191 0
-0.052639 -0.0375153 0
-0.0455598 -0.0288526 0
-0.0346981 -0.0210402 0
-0.0255598 -0.0137725 0
-0.0180886 -0.00705303 0
-0.0122114 -0.00104599 0
-0.00778353 0.00405377 0
-0.00460469 0.00808094 0
-0.00244934 0.0109195 0
-0.00109269 0.012505 0
-0.000327743 0.0128223 0
2.63018e-05 0.0119003 0
0.000122263 0.0098077 0
8.71491e-05 0.0066448 0
2.55962e-05 0.00253506 0
-0.000235746 0.000337098 0
-0.00117681 0.00168685 0
-0.00307054 0.00364566 0
-0.00593322 0.00612794 0
-0.00976232 0.00905618 0
-0.0145431 0.0123652 0
-0.0202565 0.0160019 0
-0.0268868 0.01992 0
-0.0344244 0.0240698 0
-0.0428631 0.0283844 0
-0.0521903 0.0327647 0
-0.0567489 0.0370656 0
-0.0620842 0.0410628 0
-0.0738017 0.0448474 0
-0.086285 0.0481002 0
-0.0994232 0.0505224 0
-0.113007 0.0518237 0
-0.126746 0.051721 0
-0.140283 0.0499553 0
-0.153218 0.0463189 0
-0.165127 0.040686 0
-0.175582 0.033038 0
-0.184163 0.0234788 0
-0.189382 0.0122408 0
-0.191945 -0.000319929 0
-0.19275 -0.012874 0
-0.190577 -0.025685 0
-0.185246 -0.0380153 0
-0.176739 -0.049127 0
-0.165188 -0.0582995 0
-0.150901 -0.0648921 0
-0.134374 -0.0684121 0
-0.116285 -0.0685843 0
-0.097467 -0.0654085 0
-0.0788483 -0.0591876 0
-0.0684614 -0.0505132 0
-0.0600689 -0.0402411 0
-0.046685 -0.0312239 0
-0.0351517 -0.0226722 0
-0.0255309 -0.0145624 0
-0.01781 -0.0071439 0
-0.0118581 -0.000699296 0
-0.00746092 0.00454257 0
-0.00436464 0.00842841 0
-0.00230847 0.010878 0
-0.00104627 0.0118742 0
-0.000357797 0.0114523 0
-5.30663e-05 0.00968972 0
2.75612e-05 0.00669551 0
1.49719e-05 0.00260136 0
-0.000284861 0.00123091 0
-0.00141169 0.00418952 0
-0.00365896 0.00760386 0
-0.007027 0.011373 0
-0.0114954 0.015418 0
-0.0170313 0.0196861 0
-0.0235984 0.0241471 0
-0.0311655 0.0287824 0
-0.0397096 0.0335669 0
-0.0492139 0.0384485 0
-0.0596577 0.0433277 0
-0.0647579 0.0480421 0
-0.0706838 0.0523379 0
-0.0836564 0.056466 0
-0.0974185 0.059996 0
-0.111841 0.0625507 0
-0.126702 0.0637833 0
-0.1417 0.0633728 0
-0.15648 0.0610371 0
-0.170645 0.0565593 0
-0.183779 0.049815 0
-0.195464 0.0407935 0
-0.205286 0.0296077 0
-0.21112 0.0164949 0
-0.214312 0.00181759 0
-0.216332 -0.0128956 0
-0.215228 -0.0280872 0
-0.210776 -0.0429162 0
-0.202887 -0.0565747 0
-0.191608 -0.0682459 0
-0.177152 -0.0771653 0
-0.159928 -0.0826902 0
-0.14056 -0.0843802 0
-0.119879 -0.0820741 0
-0.0988797 -0.0759438 0
-0.0872286 -0.0665051 0
-0.0773917 -0.0546317 0
-0.0610407 -0.0444181 0
-0.046665 -0.0344142 0
-0.0344908 -0.0246333 0
-0.0245773 -0.0154682 0
-0.0168088 -0.00732656 0
-0.0109551 -0.000524513 0
-0.00672858 0.00473216 0
-0.00382594 0.00833735 0
-0.00195508 0.0102663 0
-0.000850613 0.0105573 0
-0.000281014 0.00929657 0
-5.06173e-05 0.00660509 0
9.93891e-07 0.00262823 0
-0.000335198 0.00233784 0
-0.00165154 0.00725578 0
-0.00425737 0.0124121 0
-0.00813417 0.0176936 0
-0.0132407 0.0230266 0
-0.0195234 0.0283789 0
-0.0269269 0.0337525 0
-0.0354038 0.0391654 0
-0.0449184 0.0446251 0
-0.0554442 0.0501004 0
-0.0669542 0.0554964 0
-0.0725688 0.0606389 0
-0.079056 0.0652518 0
-0.0932227 0.0697236 0
-0.108194 0.0735125 0
-0.123824 0.0761652 0
-0.139879 0.0772835 0
-0.156055 0.0765122 0
-0.171999 0.0735503 0
-0.187323 0.068175 0
-0.201623 0.0602649 0
-0.214493 0.0498177 0
-0.22554 0.0369557 0
-0.231938 0.0219207 0
-0.235782 0.00508569 0
-0.23918 -0.0119598 0
-0.239363 -0.0297195 0
-0.236093 -0.0472761 0
-0.22922 -0.0637753 0
-0.218693 -0.0783222 0
-0.204602 -0.0900377 0
-0.187228 -0.098123 0
-0.167079 -0.101945 0
-0.144914 -0.101131 0
-0.12173 -0.0956541 0
-0.108991 -0.0858747 0
-0.097639 -0.0726099 0
-0.0778988 -0.0612651 0
-0.0602509 -0.0496219 0
-0.0451205 -0.0378453 0
-0.032649 -0.0265405 0
-0.0227444 -0.0162828 0
-0.0151655 -0.00750469 0
-0.00959148 -0.000484684 0
-0.00567287 0.00463215 0
-0.00306628 0.00780586 0
-0.00145525 0.00907507 0
-0.000560995 0.00853534 0
-0.000146368 0.00632264 0
-1.59855e-05 0.00260094 0
-0.000384337 0.00367021 0
-0.00188506 0.0109151 0
-0.00483825 0.01811 0
-0.00920538 0.0251332 0
-0.0149232 0.0319232 0
-0.0219162 0.0384788 0
-0.0301094 0.0448454 0
-0.0394391 0.0510877 0
-0.049857 0.057255 0
-0.0613279 0.0633441 0
-0.0738197 0.0692707 0
-0.0799065 0.0748537 0
-0.0869069 0.0798015 0
-0.102161 0.0846087 0
-0.118224 0.0886278 0
-0.13493 0.0913357 0
-0.152037 0.0922878 0
-0.16924 0.0910994 0
-0.18619 0.0874546 0
-0.202505 0.0811274 0
-0.217797 0.0720028 0
-0.231682 0.0600906 0
-0.243794 0.0455282 0
-0.250635 0.0285711 0
-0.25508 0.00961379 0
-0.259877 -0.00990322 0
-0.261461 -0.0303418 0
-0.259614 -0.0507683 0
-0.254138 -0.0703142 0
-0.244884 -0.0880399 0
-0.231804 -0.102978 0
-0.215002 -0.114187 0
-0.194807 -0.12083 0
-0.171821 -0.122284 0
-0.146946 -0.118252 0
-0.133495 -0.108847 0
-0.120678 -0.0947148 0
-0.0972604 -0.0823661 0
-0.0760156 -0.0689082 0
-0.0575791 -0.0548039 0
-0.0421925 -0.0409346 0
-0.0298132 -0.0280875 0
-0.0202094 -0.0168485 0
-0.0130375 -0.00759746 0
-0.00790425 -0.000537936 0
-0.00441232 0.00426357 0
-0.0021886 0.00684101 0
-0.000900366 0.00729904 0
-0.000262049 0.00579105 0
-3.63608e-05 0.00250345 0
-0.000429481 0.00522939 0
-0.0020993 0.0151692 0
-0.00537035 0.0246971 0
-0.0101849 0.0336866 0
-0.0164584 0.0420965 0
-0.0240942 0.0499667 0
-0.032998 0.0573974 0
-0.0430899 0.0645119 0
-0.0543095 0.0714107 0
-0.066613 0.0781265 0
-0.0799637 0.084591 0
-0.0864642 0.0906219 0
-0.0939079 0.0959177 0
-0.110091 0.101039 0
-0.127065 0.105246 0
-0.14465 0.107953 0
-0.162593 0.108674 0
-0.180586 0.107 0
-0.198279 0.102604 0
-0.215302 0.0952601 0
-0.23128 0.0848665 0
-0.24586 0.0714545 0
-0.258722 0.0551892 0
-0.265817 0.0363557 0
-0.270724 0.0153853 0
-0.276765 -0.00667209 0
-0.279722 -0.0297869 0
-0.279428 -0.053097 0
-0.275658 -0.075755 0
-0.268179 -0.0968254 0
-0.256798 -0.115299 0
-0.241419 -0.130126 0
-0.222129 -0.140284 0
-0.199286 -0.144884 0
-0.173577 -0.143305 0
-0.160019 -0.135323 0
-0.145984 -0.121268 0
-0.118902 -0.108127 0
-0.0939619 -0.0927739 0
-0.0719946 -0.0760827 0
-0.0533847 -0.0592485 0
-0.0381933 -0.0433165 0
-0.0262402 -0.0290757 0
-0.0171854 -0.0170504 0
-0.0106045 -0.00753402 0
-0.00604807 -0.000638881 0
-0.00308267 0.00365453 0
-0.00131509 0.00545694 0
-0.000403621 0.00494009 0
-6.13125e-05 0.00231571 0
-0.000467548 0.00700286 0
-0.00228009 0.019985 0
-0.00581974 0.0321238 0
-0.0110126 0.0432909 0
-0.0177559 0.0534719 0
-0.025934 0.0627579 0
-0.0354349 0.0713148 0
-0.0461635 0.0793351 0
-0.0580468 0.0869802 0
-0.0710322 0.0943262 0
-0.0850775 0.101327 0
-0.0919157 0.107804 0
-0.0997089 0.11345 0
-0.1166 0.118846 0
-0.134243 0.123179 0
-0.152436 0.125808 0
-0.170915 0.126213 0
-0.189365 0.123963 0
-0.207436 0.118723 0
-0.224763 0.110277 0
-0.240994 0.0985459 0
-0.255815 0.0835979 0
-0.268967 0.0656438 0
-0.276071 0.0450176 0
-0.281223 0.0222001 0
-0.288175 -0.00235552 0
-0.292317 -0.0280061 0
-0.293556 -0.054052 0
-0.291665 -0.0797053 0
-0.286358 -0.104092 0
-0.277309 -0.126222 0
-0.26422 -0.145001 0
-0.246909 -0.159267 0
-0.225415 -0.16789 0
-0.200102 -0.169907 0
-0.187237 -0.164692 0
-0.172489 -0.152113 0
-0.142255 -0.138556 0
-0.113879 -0.121469 0
-0.0883758 -0.10213 0
-0.066349 -0.0820466 0
-0.0480504 -0.0625714 0
-0.0334217 -0.0447642 0
-0.0221744 -0.0293581 0
-0.0138794 -0.0167862 0
-0.00804618 -0.0072399 0
-0.00418206 -0.000732664 0
-0.00182841 0.00284414 0
-0.000580117 0.00367894 0
-9.26921e-05 0.00201049 0
-0.000495362 0.00896207 0
-0.00241294 0.0252899 0
-0.00615184 0.0402844 0
-0.0116276 0.0538169 0
-0.0187242 0.0659043 0
-0.0273113 0.0766955 0
-0.0372619 0.0864309 0
-0.0484664 0.0953814 0
-0.0608393 0.103778 0
-0.0743177 0.111747 0
-0.0888514 0.119271 0
-0.095934 0.126178 0
-0.103959 0.132158 0
-0.121281 0.137767 0
-0.139283 0.142137 0
-0.157743 0.144587 0
-0.176382 0.144561 0
-0.194874 0.141612 0
-0.212866 0.135406 0
-0.230005 0.125747 0
-0.245968 0.112594 0
-0.260488 0.0960712 0
-0.273383 0.0764548 0
-0.280226 0.0541454 0
-0.285351 0.0296773 0
-0.292741 0.00280781 0
-0.297739 -0.0250972 0
-0.300324 -0.0535619 0
-0.300302 -0.0818946 0
-0.297368 -0.10934 0
-0.291109 -0.134999 0
-0.281052 -0.15781 0
-0.266753 -0.176554 0
-0.247908 -0.189924 0
-0.224482 -0.19665 0
-0.213193 -0.195691 0