# vtk DataFile Version 2.0
Velocidades
ASCII

DATASET STRUCTURED_GRID
DIMENSIONS   50   50   20

POINTS   50000   double
0.00568455   0.00568455   0.025
0.0174023   0.00568455   0.025
0.0298294   0.00568455   0.025
0.0429888   0.00568455   0.025
0.0569012   0.00568455   0.025
0.0715849   0.00568455   0.025
0.0870549   0.00568455   0.025
0.103323   0.00568455   0.025
0.120395   0.00568455   0.025
0.138275   0.00568455   0.025
0.156961   0.00568455   0.025
0.176443   0.00568455   0.025
0.196707   0.00568455   0.025
0.217734   0.00568455   0.025
0.239496   0.00568455   0.025
0.261959   0.00568455   0.025
0.285082   0.00568455   0.025
0.308818   0.00568455   0.025
0.333113   0.00568455   0.025
0.357906   0.00568455   0.025
0.383132   0.00568455   0.025
0.408719   0.00568455   0.025
0.434592   0.00568455   0.025
0.460672   0.00568455   0.025
0.486877   0.00568455   0.025
0.513123   0.00568455   0.025
0.539328   0.00568455   0.025
0.565408   0.00568455   0.025
0.591281   0.00568455   0.025
0.616868   0.00568455   0.025
0.642094   0.00568455   0.025
0.666887   0.00568455   0.025
0.691182   0.00568455   0.025
0.714918   0.00568455   0.025
0.738041   0.00568455   0.025
0.760504   0.00568455   0.025
0.782266   0.00568455   0.025
0.803293   0.00568455   0.025
0.823557   0.00568455   0.025
0.843039   0.00568455   0.025
0.861725   0.00568455   0.025
0.879605   0.00568455   0.025
0.896677   0.00568455   0.025
0.912945   0.00568455   0.025
0.928415   0.00568455   0.025
0.943099   0.00568455   0.025
0.957011   0.00568455   0.025
0.970171   0.00568455   0.025
0.982598   0.00568455   0.025
0.994315   0.00568455   0.025
0.00568455   0.0174023   0.025
0.0174023   0.0174023   0.025
0.0298294   0.0174023   0.025
0.0429888   0.0174023   0.025
0.0569012   0.0174023   0.025
0.0715849   0.0174023   0.025
0.0870549   0.0174023   0.025
0.103323   0.0174023   0.025
0.120395   0.0174023   0.025
0.138275   0.0174023   0.025
0.156961   0.0174023   0.025
0.176443   0.0174023   0.025
0.196707   0.0174023   0.025
0.217734   0.0174023   0.025
0.239496   0.0174023   0.025
0.261959   0.0174023   0.025
0.285082   0.0174023   0.025
0.308818   0.0174023   0.025
0.333113   0.0174023   0.025
0.357906   0.0174023   0.025
0.383132   0.0174023   0.025
0.408719   0.0174023   0.025
0.434592   0.0174023   0.025
0.460672   0.0174023   0.025
0.486877   0.0174023   0.025
0.513123   0.0174023   0.025
0.539328   0.0174023   0.025
0.565408   0.0174023   0.025
0.591281   0.0174023   0.025
0.616868   0.0174023   0.025
0.642094   0.0174023   0.025
0.666887   0.0174023   0.025
0.691182   0.0174023   0.025
0.714918   0.0174023   0.025
0.738041   0.0174023   0.025
0.760504   0.0174023   0.025
0.782266   0.0174023   0.025
0.803293   0.0174023   0.025
0.823557   0.0174023   0.025
0.843039   0.0174023   0.025
0.861725   0.0174023   0.025
0.879605   0.0174023   0.025
0.896677   0.0174023   0.025
0.912945   0.0174023   0.025
0.928415   0.0174023   0.025
0.943099   0.0174023   0.025
0.957011   0.0174023   0.025
0.970171   0.0174023   0.025
0.982598   0.0174023   0.025
0.994315   0.0174023   0.025
0.00568455   0.0298294   0.025
0.0174023   0.0298294   0.025
0.0298294   0.0298294   0.025
0.0429888   0.0298294   0.025
0.0569012   0.0298294   0.025
0.0715849   0.0298294   0.025
0.0870549   0.0298294   0.025
0.103323   0.0298294   0.025
0.120395   0.0298294   0.025
0.138275   0.0298294   0.025
0.156961   0.0298294   0.025
0.176443   0.0298294   0.025
0.196707   0.0298294   0.025
0.217734   0.0298294   0.025
0.239496   0.0298294   0.025
0.261959   0.0298294   0.025
0.285082   0.0298294   0.025
0.308818   0.0298294   0.025
0.333113   0.0298294   0.025
0.357906   0.0298294   0.025
0.383132   0.0298294   0.025
0.408719   0.0298294   0.025
0.434592   0.0298294   0.025
0.460672   0.0298294   0.025
0.486877   0.0298294   0.025
0.513123   0.0298294   0.025
0.539328   0.0298294   0.025
0.565408   0.0298294   0.025
0.591281   0.0298294   0.025
0.616868   0.0298294   0.025
0.642094   0.0298294   0.025
0.666887   0.0298294   0.025
0.691182   0.0298294   0.025
0.714918   0.0298294   0.025
0.738041   0.0298294   0.025
0.760504   0.0298294   0.025
0.782266   0.0298294   0.025
0.803293   0.0298294   0.025
0.823557   0.0298294   0.025
0.843039   0.0298294   0.025
0.861725   0.0298294   0.025
0.879605   0.0298294   0.025
0.896677   0.0298294   0.025
0.912945   0.0298294   0.025
0.928415   0.0298294   0.025
0.943099   0.0298294   0.025
0.957011   0.0298294   0.025
0.970171   0.0298294   0.025
0.982598   0.0298294   0.025
0.994315   0.0298294   0.025
0.00568455   0.0429888   0.025
0.0174023   0.0429888   0.025
0.0298294   0.0429888   0.025
0.0429888   0.0429888   0.025
0.0569012   0.0429888   0.025
0.0715849   0.0429888   0.025
0.0870549   0.0429888   0.025
0.103323   0.0429888   0.025
0.120395   0.0429888   0.025
0.138275   0.0429888   0.025
0.156961   0.0429888   0.025
0.176443   0.0429888   0.025
0.196707   0.0429888   0.025
0.217734   0.0429888   0.025
0.239496   0.0429888   0.025
0.261959   0.0429888   0.025
0.285082   0.0429888   0.025
0.308818   0.0429888   0.025
0.333113   0.0429888   0.025
0.357906   0.0429888   0.025
0.383132   0.0429888   0.025
0.408719   0.0429888   0.025
0.434592   0.0429888   0.025
0.460672   0.0429888   0.025
0.486877   0.0429888   0.025
0.513123   0.0429888   0.025
0.539328   0.0429888   0.025
0.565408   0.0429888   0.025
0.591281   0.0429888   0.025
0.616868   0.0429888   0.025
0.642094   0.0429888   0.025
0.666887   0.0429888   0.025
0.691182   0.0429888   0.025
0.714918   0.0429888   0.025
0.738041   0.0429888   0.025
0.760504   0.0429888   0.025
0.782266   0.0429888   0.025
0.803293   0.0429888   0.025
0.823557   0.0429888   0.025
0.843039   0.0429888   0.025
0.861725   0.0429888   0.025
0.879605   0.0429888   0.025
0.896677   0.0429888   0.025
0.912945   0.0429888   0.025
0.928415   0.0429888   0.025
0.943099   0.0429888   0.025
0.957011   0.0429888   0.025
0.970171   0.0429888   0.025
0.982598   0.0429888   0.025
0.994315   0.0429888   0.025
0.00568455   0.0569012   0.025
0.0174023   0.0569012   0.025
0.0298294   0.0569012   0.025
0.0429888   0.0569012   0.025
0.0569012   0.0569012   0.025
0.0715849   0.0569012   0.025
0.0870549   0.0569012   0.025
0.103323   0.0569012   0.025
0.120395   0.0569012   0.025
0.138275   0.0569012   0.025
0.156961   0.0569012   0.025
0.176443   0.0569012   0.025
0.196707   0.0569012   0.025
0.217734   0.0569012   0.025
0.239496   0.0569012   0.025
0.261959   0.0569012   0.025
0.285082   0.0569012   0.025
0.308818   0.0569012   0.025
0.333113   0.0569012   0.025
0.357906   0.0569012   0.025
0.383132   0.0569012   0.025
0.408719   0.0569012   0.025
0.434592   0.0569012   0.025
0.460672   0.0569012   0.025
0.486877   0.0569012   0.025
0.513123   0.0569012   0.025
0.539328   0.0569012   0.025
0.565408   0.0569012   0.025
0.591281   0.0569012   0.025
0.616868   0.0569012   0.025
0.642094   0.0569012   0.025
0.666887   0.0569012   0.025
0.691182   0.0569012   0.025
0.714918   0.0569012   0.025
0.738041   0.0569012   0.025
0.760504   0.0569012   0.025
0.782266   0.0569012   0.025
0.803293   0.0569012   0.025
0.823557   0.0569012   0.025
0.843039   0.0569012   0.025
0.861725   0.0569012   0.025
0.879605   0.0569012   0.025
0.896677   0.0569012   0.025
0.912945   0.0569012   0.025
0.928415   0.0569012   0.025
0.943099   0.0569012   0.025
0.957011   0.0569012   0.025
0.970171   0.0569012   0.025
0.982598   0.0569012   0.025
0.994315   0.0569012   0.025
0.00568455   0.0715849   0.025
0.0174023   0.0715849   0.025
0.0298294   0.0715849   0.025
0.0429888   0.0715849   0.025
0.0569012   0.0715849   0.025
0.0715849   0.0715849   0.025
0.0870549   0.0715849   0.025
0.103323   0.0715849   0.025
0.120395   0.0715849   0.025
0.138275   0.0715849   0.025
0.156961   0.0715849   0.025
0.176443   0.0715849   0.025
0.196707   0.0715849   0.025
0.217734   0.0715849   0.025
0.239496   0.0715849   0.025
0.261959   0.0715849   0.025
0.285082   0.0715849   0.025
0.308818   0.0715849   0.025
0.333113   0.0715849   0.025
0.357906   0.0715849   0.025
0.383132   0.0715849   0.025
0.408719   0.0715849   0.025
0.434592   0.0715849   0.025
0.460672   0.0715849   0.025
0.486877   0.0715849   0.025
0.513123   0.0715849   0.025
0.539328   0.0715849   0.025
0.565408   0.0715849   0.025
0.591281   0.0715849   0.025
0.616868   0.0715849   0.025
0.642094   0.0715849   0.025
0.666887   0.0715849   0.025
0.691182   0.0715849   0.025
0.714918   0.0715849   0.025
0.738041   0.0715849   0.025
0.760504   0.0715849   0.025
0.782266   0.0715849   0.025
0.803293   0.0715849   0.025
0.823557   0.0715849   0.025
0.843039   0.0715849   0.025
0.861725   0.0715849   0.025
0.879605   0.0715849   0.025
0.896677   0.0715849   0.025
0.912945   0.0715849   0.025
0.928415   0.0715849   0.025
0.943099   0.0715849   0.025
0.957011   0.0715849   0.025
0.970171   0.0715849   0.025
0.982598   0.0715849   0.025
0.994315   0.0715849   0.025
0.00568455   0.0870549   0.025
0.0174023   0.0870549   0.025
0.0298294   0.0870549   0.025
0.0429888   0.0870549   0.025
0.0569012   0.0870549   0.025
0.0715849   0.0870549   0.025
0.0870549   0.0870549   0.025
0.103323   0.0870549   0.025
0.120395   0.0870549   0.025
0.138275   0.0870549   0.025
0.156961   0.0870549   0.025
0.176443   0.0870549   0.025
0.196707   0.0870549   0.025
0.217734   0.0870549   0.025
0.239496   0.0870549   0.025
0.261959   0.0870549   0.025
0.285082   0.0870549   0.025
0.308818   0.0870549   0.025
0.333113   0.0870549   0.025
0.357906   0.0870549   0.025
0.383132   0.0870549   0.025
0.408719   0.0870549   0.025
0.434592   0.0870549   0.025
0.460672   0.0870549   0.025
0.486877   0.0870549   0.025
0.513123   0.0870549   0.025
0.539328   0.0870549   0.025
0.565408   0.0870549   0.025
0.591281   0.0870549   0.025
0.616868   0.0870549   0.025
0.642094   0.0870549   0.025
0.666887   0.0870549   0.025
0.691182   0.0870549   0.025
0.714918   0.0870549   0.025
0.738041   0.0870549   0.025
0.760504   0.0870549   0.025
0.782266   0.0870549   0.025
[...]
POINT_DATA   50000
VECTORS Velocidades double

-7.35482e-05 -0.00161588 0
-0.0001992 -0.0031709 0
-0.000274279 -0.00404394 0
-0.000303253 -0.00453268 0
-0.000312778 -0.00475809 0
-0.000328838 -0.00478154 0
-0.000371074 -0.00464068 0
-0.000453189 -0.00436207 0
-0.000584372 -0.00396567 0
-0.000770837 -0.00346551 0
-0.00101786 -0.00286683 0
-0.00114088 -0.00215281 0
-0.00131623 -0.00122602 0
-0.00174676 -0.000533009 0
-0.00225036 4.21841e-05 0
-0.00280023 0.000526241 0
-0.00338723 0.000916886 0
-0.00400254 0.00119835 0
-0.00463339 0.00134931 0
-0.00526127 0.00134925 0
-0.00586139 0.00118414 0
-0.00640317 0.000851313 0
-0.00685295 0.000362906 0
-0.00716759 -0.000251845 0
-0.00730558 -0.000936373 0
-0.00723844 -0.00162323 0
-0.00695065 -0.00223602 0
-0.00644617 -0.00270275 0
-0.00574854 -0.00296167 0
-0.00490136 -0.00296968 0
-0.00396434 -0.00270952 0
-0.00300539 -0.00219325 0
-0.00209084 -0.00146144 0
-0.00127577 -0.000579081 0
-0.000595724 0.000369281 0
-0.000214795 0.00127781 0
1.94029e-05 0.00199131 0
0.000282748 0.0028175 0
0.000443218 0.00360226 0
0.000506603 0.00428746 0
0.000492181 0.00484731 0
0.000419386 0.00526985 0
0.000306176 0.00554893 0
0.000169476 0.00567978 0
2.61922e-05 0.00565578 0
-0.000105369 0.00546456 0
-0.000203757 0.00508115 0
-0.000243457 0.00445229 0
-0.000200521 0.00345399 0
-7.79242e-05 0.00175659 0
-0.000246088 -0.00297059 0
-0.000649021 -0.00618496 0
-0.000859716 -0.00803709 0
-0.000918873 -0.00906063 0
-0.000927244 -0.00951361 0
-0.000964121 -0.00953602 0
-0.00108553 -0.00921474 0
-0.00133044 -0.00861028 0
-0.0017257 -0.00776706 0
-0.00229032 -0.00671544 0
-0.0030416 -0.00546523 0
-0.00337031 -0.00397816 0
-0.00391943 -0.00207517 0
-0.00530979 -0.000645789 0
-0.00687783 0.000533105 0
-0.00858794 0.00152205 0
-0.0104157 0.00231777 0
-0.0123315 0.00288658 0
-0.0142915 0.00318225 0
-0.0162324 0.00315967 0
-0.0180711 0.00278702 0
-0.0197083 0.00205636 0
-0.0210358 0.000991623 0
-0.0219322 -0.000346499 0
-0.0222784 -0.00186238 0
-0.0219942 -0.00338751 0
-0.0210514 -0.00476532 0
-0.0194751 -0.00584202 0
-0.017342 -0.0064822 0
-0.0147819 -0.00658837 0
-0.0119658 -0.00611744 0
-0.00908647 -0.00508946 0
-0.00633307 -0.00358702 0
-0.00386627 -0.00174711 0
-0.00179543 0.00024824 0
-0.000670099 0.00216749 0
5.13611e-05 0.00368788 0
0.000911862 0.00543768 0
0.00141941 0.00710144 0
0.00162083 0.00855496 0
0.00157642 0.00974477 0
0.00134553 0.0106466 0
0.000983758 0.0112476 0
0.000544173 0.0115365 0
7.99406e-05 0.0114969 0
-0.000351887 0.0110982 0
-0.000684744 0.0102805 0
-0.000835159 0.00892143 0
-0.000705236 0.0067602 0
-0.000278729 0.00321735 0
-0.00017794 -0.00250929 0
-0.000566576 -0.00580486 0
-0.000928452 -0.00783512 0
-0.00118609 -0.00895532 0
-0.00139842 -0.00941633 0
-0.00165341 -0.00938248 0
-0.0020306 -0.00896433 0
-0.00259292 -0.00824 0
-0.00338789 -0.00726567 0
-0.00445181 -0.006078 0
-0.00581575 -0.00468712 0
-0.00643312 -0.00305032 0
-0.00738043 -0.00102294 0
-0.00971696 0.000518826 0
-0.012341 0.00177851 0
-0.0152085 0.00282683 0
-0.0182745 0.00366176 0
-0.0214807 0.00424372 0
-0.0247448 0.00451692 0
-0.0279544 0.00442565 0
-0.0309665 0.00392851 0
-0.0336137 0.00301114 0
-0.0357166 0.00169652 0
-0.0371142 4.96265e-05 0
-0.0376106 -0.00185619 0
-0.0370682 -0.00378864 0
-0.0354798 -0.00557408 0
-0.0328915 -0.00703294 0
-0.0294276 -0.00799968 0
-0.025289 -0.00834813 0
-0.0207367 -0.00801347 0
-0.0160636 -0.00700518 0
-0.0115591 -0.00540877 0
-0.00747281 -0.0033785 0
-0.00398187 -0.00112806 0
-0.00206233 0.00106555 0
-0.000811635 0.00284874 0
0.000707223 0.00486404 0
0.00165453 0.00677991 0
0.00211119 0.00845655 0
0.00217049 0.00983536 0
0.00192648 0.0108899 0
0.00147095 0.011604 0
0.000894417 0.0119611 0
0.000288497 0.0119357 0
-0.000251407 0.0114831 0
-0.000625689 0.0105245 0
-0.000740551 0.00892008 0
-0.000552057 0.00643197 0
-0.000190887 0.00270683 0
-0.000113091 -0.00217459 0
-0.000436114 -0.00534619 0
-0.000875943 -0.00744071 0
-0.00134173 -0.00861886 0
-0.00184348 -0.00906996 0
-0.002443 -0.00895649 0
-0.00321639 -0.00840553 0
-0.00423535 -0.00751341 0
-0.00556077 -0.00635083 0
-0.00724254 -0.00496379 0
-0.00932118 -0.00336708 0
-0.0102901 -0.0015243 0
-0.0116689 0.000669951 0
-0.0149767 0.0023726 0
-0.0186696 0.00376072 0
-0.0227016 0.00490437 0
-0.0270067 0.00579813 0
-0.0314938 0.00639247 0
-0.0360378 0.00661755 0
-0.0404737 0.00640252 0
-0.0445985 0.0056928 0
-0.0481801 0.00446587 0
-0.0509735 0.00274398 0
-0.0528116 0.000598765 0
-0.0534213 -0.00189106 0
-0.0526053 -0.00443867 0
-0.0504039 -0.00683688 0
-0.0468808 -0.00886896 0
-0.0421976 -0.0103273 0
-0.0366103 -0.0110459 0
-0.0304497 -0.0109296 0
-0.0240877 -0.00997182 0
-0.0178962 -0.0082602 0
-0.0122032 -0.00597068 0
-0.0072543 -0.00335741 0
-0.00450782 -0.000750628 0
-0.00268305 0.00145571 0
-0.000411344 0.00387878 0
0.00108911 0.00617275 0
0.00193248 0.00818504 0
0.00223984 0.00984987 0
0.00213434 0.0111349 0
0.00173942 0.0120171 0
0.00117821 0.0124704 0
0.000572695 0.0124572 0
4.0624e-05 0.0119198 0
-0.000313981 0.0107715 0
-0.000423755 0.00888977 0
-0.000301606 0.0061274 0
-9.54566e-05 0.00237853 0
-8.18407e-05 -0.00193713 0
-0.000372504 -0.00486344 0
-0.000879706 -0.00686396 0
-0.00155033 -0.00798976 0
-0.00237834 -0.00836255 0
-0.00339946 -0.00812088 0
-0.00467265 -0.00739288 0
-0.00626385 -0.00628574 0
-0.00823617 -0.00488246 0
-0.010645 -0.0032396 0
-0.013534 -0.00138163 0
-0.0149066 0.000711395 0
-0.0167524 0.00310103 0
-0.0210769 0.00500625 0
-0.025869 0.006568 0
-0.0310829 0.00784168 0
-0.0366333 0.00881003 0
-0.042395 0.00940812 0
-0.0481975 0.00954753 0
-0.0538232 0.00913864 0
-0.0590113 0.00811149 0
-0.0634704 0.00643508 0
-0.0668998 0.00413305 0
-0.0691411 0.00129039 0
-0.0698519 -0.00198207 0
-0.068785 -0.00534934 0
-0.0660368 -0.00856328 0
-0.0616805 -0.0113605 0
-0.0559011 -0.013481 0
-0.0489925 -0.0147095 0
-0.0413363 -0.0149114 0
-0.0333663 -0.0140579 0
-0.0255244 -0.0122351 0
-0.0182122 -0.00964081 0
-0.011748 -0.00657286 0
-0.0081413 -0.00341739 0
-0.00569075 -0.000615473 0
-0.00254425 0.00235898 0
-0.000353395 0.00515495 0
0.00102616 0.007614 0
0.0017374 0.00966251 0
0.00192589 0.0112585 0
0.00173959 0.0123679 0
0.00132574 0.0129533 0
0.000825287 0.012967 0
0.000363786 0.0123474 0
3.70723e-05 0.0110196 0
-0.000109088 0.00890681 0
-9.96194e-05 0.00596119 0
-3.2039e-05 0.00222465 0
-7.66665e-05 -0.00173263 0
-0.000384335 -0.00432753 0
-0.000993851 -0.0060843 0
-0.00189282 -0.00701677 0
-0.00308085 -0.00720285 0
-0.00457979 -0.00675341 0
-0.006431 -0.00578637 0
-0.00868733 -0.00441011 0
-0.011405 -0.00271428 0
-0.0146366 -0.000764741 0
-0.0184226 0.00140107 0
-0.0202433 0.00377959 0
-0.0225906 0.00638462 0
-0.0279867 0.00852655 0
-0.033919 0.0103008 0
-0.0403412 0.0117338 0
-0.0471489 0.0127857 0
-0.054183 0.0133693 0
-0.0612288 0.0133733 0
-0.0680184 0.0126867 0
-0.0742385 0.0112234 0
-0.0795474 0.00894553 0
-0.0836001 0.00588197 0
-0.0862342 0.00213954 0
-0.0870618 -0.00212083 0
-0.085816 -0.00650709 0
-0.0826301 -0.0107388 0
-0.0775735 -0.0144984 0
-0.0708379 -0.0174642 0
-0.0627371 -0.0193622 0
-0.0536857 -0.0200092 0
-0.0441657 -0.0193446 0
-0.034681 -0.017446 0
-0.0257067 -0.0145284 0
-0.0176415 -0.0109313 0
-0.0131289 -0.00709701 0
-0.00998817 -0.00352119 0
-0.00581581 0.000147076 0
-0.00276946 0.00356748 0
-0.00068218 0.00658572 0
0.000602585 0.00912074 0
0.00124476 0.0111173 0
0.00140903 0.0125272 0
0.00125867 0.0133017 0
0.000945677 0.013388 0
0.000598587 0.0127311 0
0.00030942 0.0112816 0
0.000122734 0.00901305 0
3.38054e-05 0.00594851 0
5.13348e-06 0.00219118 0
-8.88486e-05 -0.00150704 0
-0.000458271 -0.00367007 0
-0.00122184 -0.00503888 0
-0.00239484 -0.00562791 0
-0.00398765 -0.00549678 0
-0.00601704 -0.00473621 0
-0.00851094 -0.00345023 0
-0.0115076 -0.00174103 0
-0.0150515 0.000301395 0
-0.0191863 0.00260497 0
-0.0239443 0.00511831 0
-0.0262501 0.00781057 0
-0.0291303 0.0106458 0
-0.0356547 0.0130522 0
-0.042773 0.0150701 0
-0.0504347 0.0166831 0
-0.0585164 0.0178183 0
-0.0668263 0.018359 0
-0.0751092 0.0181667 0
-0.0830522 0.0171078 0
-0.0902984 0.0150812 0
-0.0964667 0.012045 0
-0.10118 0.00803825 0
-0.104223 0.00319613 0
-0.105214 -0.00226381 0
-0.103919 -0.00786233 0
-0.100454 -0.0133159 0
-0.0948669 -0.0182465 0
-0.0873384 -0.022262 0
-0.0781827 -0.0250195 0
-0.0678315 -0.026276 0
-0.0568027 -0.0259265 0
-0.0456573 -0.0240276 0
-0.0349466 -0.0208017 0
-0.0251598 -0.016623 0
-0.0196773 -0.0119882 0
-0.0157637 -0.0074565 0
-0.0103788 -0.00295719 0
-0.00627758 0.00120891 0
-0.00328325 0.00490447 0
-0.00123709 0.008041 0
2.6658e-05 0.0105457 0
0.000682938 0.0123533 0
0.000906407 0.0134038 0
0.000858329 0.0136441 0
0.000673837 0.0130318 0
0.000452394 0.0115457 0
0.000254535 0.00919918 0
0.0001081 0.00605494 0
2.477e-05 0.00223256 0
-0.00011292 -0.00121753 0
-0.000580757 -0.00281089 0
-0.00155119 -0.00363732 0
-0.00305329 -0.00372664 0
-0.0051043 -0.0031368 0
-0.00771813 -0.00194755 0
-0.0109124 -0.000249906 0
-0.0147116 0.00186431 0
-0.0191466 0.00431014 0
-0.0242491 0.00701307 0
-0.0300404 0.00990869 0
-0.03286 0.0129379 0
-0.0363 0.0160153 0
-0.0440054 0.0187092 0
-0.0523542 0.0209935 0
-0.0612877 0.0227979 0
-0.0706624 0.024006 0
-0.0802571 0.0244653 0
-0.0897813 0.0240074 0
-0.0988862 0.0224761 0
-0.107182 0.0197578 0
-0.11426 0.0158103 0
-0.119721 0.0106868 0
-0.123216 0.00455297 0
-0.124444 -0.00232137 0
-0.123291 -0.00931981 0
-0.119757 -0.0162064 0
-0.113851 -0.0225347 0
-0.105722 -0.0278338 0
-0.0956681 -0.0316818 0
-0.0841202 -0.0337616 0
-0.0716207 -0.033907 0
-0.0587826 -0.0321357 0
-0.0462365 -0.0286608 0
-0.034573 -0.023879 0
-0.028037 -0.0183367 0
-0.0232462 -0.0126655 0
-0.0164171 -0.00720821 0
-0.0110185 -0.00217526 0
-0.00688263 0.00232775 0
-0.00386261 0.00620196 0
-0.00179478 0.00935014 0
-0.000497592 0.0116849 0
0.000214742 0.0131342 0
0.000516242 0.0136451 0
0.000556335 0.0131888 0
0.00045285 0.0117671 0
0.000292095 0.00942002 0
0.000135838 0.00622935 0
3.26687e-05 0.00231504 0
-0.000145674 -0.000828101 0
-0.000741344 -0.0016689 0
-0.00196604 -0.00177629 0
-0.00385179 -0.00119946 0
-0.00641586 -2.42421e-06 0
-0.00966713 0.00174016 0
-0.0136132 0.00394884 0
-0.0182657 0.00654471 0
-0.0236418 0.00945216 0
-0.0297602 0.0125981 0
-0.0366308 0.0159073 0
-0.039984 0.0192934 0
-0.0440044 0.0226246 0
-0.0529345 0.0256251 0
-0.0625515 0.028191 0
-0.0727847 0.0301882 0
-0.0834706 0.0314492 0
-0.0943624 0.0317811 0
-0.105142 0.0309843 0
-0.115436 0.0288816 0
-0.124832 0.0253501 0
-0.132906 0.0203509 0
-0.139246 0.013953 0
-0.143252 0.00634928 0
-0.144818 -0.00215037 0
-0.144052 -0.0107329 0
-0.140707 -0.0192747 0
-0.134732 -0.0272504 0
-0.126233 -0.0341033 0
-0.11547 -0.0393219 0
-0.102857 -0.042499 0
-0.0889457 -0.0433863 0
-0.074391 -0.0419382 0
-0.0599034 -0.0383343 0
-0.0461839 -0.0329745 0
-0.0384984 -0.0264445 0
-0.0327035 -0.0194538 0
-0.0241439 -0.0129289 0
-0.0171528 -0.00690553 0
-0.0115978 -0.00144431 0
-0.00735993 0.00333567 0
-0.0042839 0.00730059 0
-0.00218176 0.0103326 0
-0.000852954 0.0123429 0
-0.000104073 0.0132764 0
0.00023722 0.0131136 0
0.000315504 0.0118729 0
0.00024762 0.00961043 0
0.000127438 0.00641753 0
3.23861e-05 0.00241273 0
-0.000185018 -0.000306685 0
-0.00093177 -0.000166022 0
-0.00245017 0.000650261 0
-0.0047673 0.00207385 0
-0.00789368 0.00403294 0
-0.011829 0.00645648 0
-0.0165693 0.00927716 0
-0.0221132 0.0124318 0
-0.0284647 0.0158582 0
-0.0356301 0.0194886 0
-0.0436081 0.02324 0
-0.0475056 0.0270015 0
-0.0521185 0.0305994 0
-0.062303 0.0339228 0
-0.0732135 0.0367786 0
-0.0847643 0.0389612 0
-0.0967729 0.0402476 0
-0.108973 0.0404019 0
-0.121027 0.0391942 0
-0.132547 0.0364289 0
-0.143111 0.0319771 0
-0.152291 0.0258058 0
-0.159664 0.0179979 0
-0.164242 0.00876626 0
-0.166258 -0.00155428 0
-0.166163 -0.0119048 0
-0.163296 -0.0223368 0
-0.157542 -0.0322321 0
-0.148947 -0.0409454 0
-0.137717 -0.0478663 0
-0.124227 -0.0524817 0
-0.109016 -0.0544373 0
-0.0927656 -0.0535936 0
-0.0762562 -0.0500641 0
-0.0603023 -0.0442221 0
-0.0513759 -0.0366725 0
-0.0444315 -0.0282012 0
-0.0337933 -0.0205257 0
-0.0248548 -0.0133813 0
-0.0175548 -0.00677959 0
-0.0118185 -0.000881805 0
-0.00750276 0.00412179 0
-0.00441055 0.00806963 0
-0.0023203 0.010848 0
-0.00101117 0.0123937 0
-0.000279715 0.0126915 0
5.18189e-05 0.0117697 0
0.000133725 0.00969529 0
9.09077e-05 0.00656659 0
2.6224e-05 0.0025047 0
-0.000229268 0.000375691 0
-0.00114453 0.00177019 0
-0.00298661 0.00374357 0
-0.00577181 0.00621013 0
-0.00949822 0.00909226 0
-0.014152 0.012325 0
-0.0197153 0.0158566 0
-0.0261729 0.0196442 0
-0.0335161 0.0236436 0
-0.0417398 0.027797 0
-0.0508334 0.032017 0
-0.0552753 0.036172 0
-0.0604828 0.0400521 0
-0.0719316 0.0437123 0
-0.0841414 0.0468599 0
-0.09701 0.0492135 0
-0.110339 0.0504926 0
-0.123846 0.0504191 0
-0.137187 0.0487345 0
-0.149965 0.0452283 0
-0.161762 0.0397686 0
-0.172147 0.0323281 0
-0.180697 0.0230012 0
-0.185897 0.012011 0
-0.188469 -0.000295095 0
-0.189335 -0.0126 0
-0.18725 -0.0251642 0
-0.182031 -0.0372649 0
-0.173662 -0.0481713 0
-0.162276 -0.0571708 0
-0.148185 -0.0636309 0
-0.131886 -0.0670673 0
-0.114055 -0.0672125 0
-0.0955197 -0.0640716 0
-0.077198 -0.0579488 0
-0.0669741 -0.0494327 0
-0.058728 -0.0393701 0
-0.0456031 -0.0304995 0
-0.0343049 -0.0220895 0
-0.0248869 -0.0141216 0
-0.0173339 -0.00683826 0
-0.0115164 -0.000515066 0
-0.00722393 0.00462429 0
-0.00420681 0.00842949 0
-0.0022087 0.0108215 0
-0.000987515 0.0117833 0
-0.000326609 0.011349 0
-3.90581e-05 0.00959424 0
3.21653e-05 0.00662597 0
1.57456e-05 0.00257331 0
-0.000276737 0.00124436 0
-0.00137174 0.00420319 0
-0.00355633 0.00759287 0
-0.00683186 0.0113128 0
-0.0111796 0.0152838 0
-0.0165686 0.0194529 0
-0.0229646 0.0237901 0
-0.030338 0.0282794 0
-0.0386675 0.032901 0
-0.0479381 0.0376117 0
-0.0581316 0.0423244 0
-0.0631066 0.0468911 0
-0.0688987 0.0510724 0
-0.0815947 0.0550801 0
-0.095082 0.0585155 0
-0.109241 0.0610198 0
-0.123861 0.0622561 0
-0.138651 0.0619066 0
-0.153262 0.0596876 0
-0.167302 0.0553766 0
-0.180356 0.0488406 0
-0.192002 0.040058 0
-0.201821 0.029131 0
-0.207653 0.0162867 0
-0.210862 0.00187942 0
-0.212945 -0.0125674 0
-0.21192 -0.0274968 0
-0.207562 -0.0420811 0
-0.199784 -0.055517 0
-0.188636 -0.0669937 0
-0.174337 -0.0757548 0
-0.157303 -0.081167 0
-0.13816 -0.0827998 0
-0.117738 -0.080501 0
-0.0970262 -0.0744484 0
-0.0855287 -0.0651593 0
-0.0758453 -0.053502 0
-0.0597863 -0.0434413 0
-0.0456785 -0.0335999 0
-0.0337365 -0.023989 0
-0.0240166 -0.0149893 0
-0.0164043 -0.00699889 0
-0.0106732 -0.000327083 0
-0.00654021 0.00482403 0
-0.00370653 0.00834985 0
-0.0018846 0.0102255 0
-0.000813122 0.0104883 0
-0.000264136 0.00922245 0
-4.50534e-05 0.00654648 0
1.93294e-06 0.00260314 0
-0.000325501 0.00231938 0
-0.00160432 0.00718269 0
-0.00413716 0.0122675 0
-0.00790763 0.0174614 0
-0.0128774 0.0226897 0
-0.0189957 0.027919 0
-0.0262105 0.0331506 0
-0.0344768 0.0384036 0
-0.0437615 0.0436901 0
-0.0540405 0.0489879 0
-0.0652901 0.0542148 0
-0.0707742 0.0592112 0
-0.0771254 0.0637151 0
-0.0910167 0.0680768 0
-0.105722 0.071789 0
-0.121106 0.0744179 0
-0.136946 0.0755733 0
-0.152947 0.0749012 0
-0.168761 0.0720965 0
-0.184001 0.0669273 0
-0.198263 0.0592611 0
-0.211135 0.0490827 0
-0.222215 0.0365019 0
-0.228633 0.0217501 0
-0.232507 0.00519192 0
-0.235973 -0.0115754 0
-0.236231 -0.0290664 0
-0.233036 -0.0463718 0
-0.226242 -0.0626387 0
-0.215803 -0.0769758 0
-0.201819 -0.0885104 0
-0.184578 -0.0964528 0
-0.1646 -0.100182 0
-0.142649 -0.0993372 0
-0.119722 -0.0939025 0
-0.107113 -0.0842462 0
-0.0959135 -0.0711853 0
-0.0764892 -0.0599969 0
-0.0591336 -0.0485387 0
-0.044259 -0.0369624 0
-0.0320033 -0.0258564 0
-0.0222752 -0.0157833 0
-0.0148365 -0.00716738 0
-0.00937042 -0.000282213 0
-0.00553209 0.00472917 0
-0.00298285 0.00782698 0
-0.0014107 0.00904866 0
-0.000540861 0.00848775 0
-0.000139704 0.00627767 0
-1.48558e-05 0.00257954 0
-0.00037328 0.00361325 0
-0.00183158 0.0107387 0
-0.00470306 0.0178082 0
-0.00895237 0.0247008 0
-0.0145202 0.0313534 0
-0.0213353 0.0377621 0
-0.0293267 0.0439695 0
-0.0384342 0.0500403 0
-0.0486128 0.0560275 0
-0.0598307 0.0619364 0
-0.0720596 0.0676953 0
-0.0780139 0.0731382 0
-0.0848803 0.0779864 0
-0.099871 0.0827008 0
-0.115687 0.0866699 0
-0.132175 0.089389 0
-0.149105 0.0904195 0
-0.166177 0.089375 0
-0.183045 0.0859321 0
-0.19933 0.0798528 0
-0.214638 0.0710077 0
-0.228574 0.0593918 0
-0.240765 0.0451286 0
-0.247654 0.0284623 0
-0.252146 0.00977915 0
-0.257025 -0.00945636 0
-0.258684 -0.0296314 0
-0.256896 -0.0498124 0
-0.251466 -0.0691279 0
-0.242252 -0.0866386 0
-0.229217 -0.101381 0
-0.21248 -0.11242 0
-0.192382 -0.118931 0
-0.169541 -0.120308 0
-0.144864 -0.116268 0
-0.131503 -0.106937 0
-0.118826 -0.0929713 0
-0.0957286 -0.08078 0
-0.0747847 -0.0675277 0
-0.056617 -0.0536525 0
-0.0414626 -0.0400152 0
-0.0292774 -0.0273879 0
-0.0198304 -0.016346 0
-0.0127808 -0.00726295 0
-0.00773969 -0.000339126 0
-0.00431418 0.00435971 0
-0.00213587 0.00686656 0
-0.000876382 0.00728408 0
-0.000254054 0.00576299 0
-3.49937e-05 0.0024867 0
-0.000417415 0.00512805 0
-0.00204121 0.0148748 0
-0.00522424 0.0242174 0
-0.00991284 0.0330299 0
-0.0160274 0.0412684 0
-0.0234766 0.0489683 0
-0.032171 0.0562249 0
-0.0420354 0.0631595 0
-0.0530133 0.0698752 0
-0.0650651 0.0764124 0
-0.0781585 0.0827159 0
-0.0845282 0.0886176 0
-0.0918446 0.093828 0
-0.107785 0.0988821 0
-0.124544 0.103075 0
-0.141951 0.105836 0
-0.159764 0.106685 0
-0.17768 0.105206 0
-0.195353 0.10106 0
-0.212407 0.0940079 0
-0.228462 0.0839291 0
-0.243153 0.0708381 0
-0.256147 0.0548846 0
-0.26332 0.0363421 0
-0.268295 0.015634 0
-0.274443 -0.00615095 0
-0.27748 -0.029022 0
-0.277234 -0.0521064 0
-0.27348 -0.0745507 0
-0.265995 -0.0954147 0
-0.254595 -0.113689 0
-0.239202 -0.128328 0
-0.219923 -0.13832 0
-0.197134 -0.142792 0
-0.171539 -0.141142 0
-0.158015 -0.133165 0
-0.144089 -0.119208 0
-0.117301 -0.106221 0
-0.0926457 -0.0910845 0
-0.070945 -0.0746426 0
-0.0525748 -0.0580686 0
-0.0375902 -0.04239 0
-0.0258084 -0.0283824 0
-0.01689 -0.0165611 0
-0.0104133 -0.00721442 0
-0.00593301 -0.000452767 0
-0.00302028 0.00374303 0
-0.00128643 0.00548191 0
-0.000393957 0.00493297 0
-5.96358e-05 0.0023048 0
-0.000454946 0.00685269 0
-0.0022196 0.0195616 0
-0.00566804 0.0314508 0
-0.0107311 0.0423921 0
-0.0173116 0.0523674 0
-0.0253001 0.0614609 0
-0.0345905 0.0698313 0
-0.0450929 0.0776671 0
-0.0567394 0.0851306 0
-0.0694822 0.0923052 0
-0.0832841 0.0991571 0
-0.089997 0.105522 0
-0.0976742 0.111102 0
-0.114356 0.116465 0
-0.131824 0.120828 0
-0.149889 0.123565 0
-0.168295 0.124154 0
-0.186732 0.122154 0
-0.204848 0.117217 0
-0.222275 0.109107 0
-0.238651 0.0977244 0
-0.253646 0.083118 0
-0.266988 0.0654822 0
-0.274201 0.0451397 0
-0.279443 0.0225645 0
-0.286529 -0.00174337 0
-0.290763 -0.0271848 0
-0.292044 -0.0530406 0
-0.290147 -0.0785125 0
-0.284792 -0.102717 0
-0.275668 -0.124661 0
-0.262491 -0.143247 0
-0.2451 -0.157324 0
-0.223557 -0.165773 0
-0.198251 -0.167653 0
-0.185356 -0.162359 0
-0.170667 -0.149784 0
-0.140659 -0.136364 0
-0.112524 -0.119484 0
-0.0872643 -0.100397 0
-0.0654714 -0.0805905 0
-0.0473842 -0.061396 0
-0.0329371 -0.0438561 0
-0.0218382 -0.0286909 0
-0.013659 -0.0163255 0
-0.00791203 -0.00694718 0
-0.00410845 -0.000568567 0
-0.00179416 0.00291776 0
-0.000568394 0.00369775 0
-9.06191e-05 0.00200701 0
-0.000482796 0.00876063 0
-0.00235266 0.0247315 0
-0.00600081 0.0394096 0
-0.0113477 0.0526666 0
-0.0182834 0.0645143 0
-0.0266843 0.0750926 0
-0.0364299 0.0846323 0
-0.0474166 0.0933977 0
-0.0595649 0.101619 0
-0.0728173 0.109429 0
-0.0871295 0.116822 0
-0.0940957 0.123639 0
-0.10202 0.12958 0
-0.119174 0.135199 0
-0.137051 0.139655 0
-0.15544 0.142271 0
-0.174068 0.142491 0
-0.192614 0.139853 0
-0.210721 0.134004 0
-0.22803 0.124725 0
-0.244203 0.111951 0
-0.258959 0.0957848 0
-0.272096 0.0764862 0
-0.279075 0.0544454 0
-0.284311 0.0301934 0
-0.291862 0.00352963 0
-0.296963 -0.0242143 0
-0.299589 -0.0525382 0
-0.299548 -0.0807365 0
-0.29654 -0.10804 0
-0.290162 -0.133542 0
-0.279956 -0.156174 0
-0.265497 -0.174721 0
-0.246506 -0.187887 0
-0.222972 -0.194418 0