# vtk DataFile Version 2.0
Velocidades
ASCII

DATASET STRUCTURED_GRID
DIMENSIONS   50   50   20

POINTS   50000   double
0.00568455   0.00568455   0.025
0.0174023   0.00568455   0.025
0.0298294   0.00568455   0.025
0.0429888   0.00568455   0.025
0.0569012   0.00568455   0.025
0.0715849   0.00568455   0.025
0.0870549   0.00568455   0.025
0.103323   0.00568455   0.025
0.120395   0.00568455   0.025
0.138275   0.00568455   0.025
0.156961   0.00568455   0.025
0.176443   0.00568455   0.025
0.196707   0.00568455   0.025
0.217734   0.00568455   0.025
0.239496   0.00568455   0.025
0.261959   0.00568455   0.025
0.285082   0.00568455   0.025
0.308818   0.00568455   0.025
0.333113   0.00568455   0.025
0.357906   0.00568455   0.025
0.383132   0.00568455   0.025
0.408719   0.00568455   0.025
0.434592   0.00568455   0.025
0.460672   0.00568455   0.025
0.486877   0.00568455   0.025
0.513123   0.00568455   0.025
0.539328   0.00568455   0.025
0.565408   0.00568455   0.025
0.591281   0.00568455   0.025
0.616868   0.00568455   0.025
0.642094   0.00568455   0.025
0.666887   0.00568455   0.025
0.691182   0.00568455   0.025
0.714918   0.00568455   0.025
0.738041   0.00568455   0.025
0.760504   0.00568455   0.025
0.782266   0.00568455   0.025
0.803293   0.00568455   0.025
0.823557   0.00568455   0.025
0.843039   0.00568455   0.025
0.861725   0.00568455   0.025
0.879605   0.00568455   0.025
0.896677   0.00568455   0.025
0.912945   0.00568455   0.025
0.928415   0.00568455   0.025
0.943099   0.00568455   0.025
0.957011   0.00568455   0.025
0.970171   0.00568455   0.025
0.982598   0.00568455   0.025
0.994315   0.00568455   0.025
0.00568455   0.0174023   0.025
0.0174023   0.0174023   0.025
0.0298294   0.0174023   0.025
0.0429888   0.0174023   0.025
0.0569012   0.0174023   0.025
0.0715849   0.0174023   0.025
0.0870549   0.0174023   0.025
0.103323   0.0174023   0.025
0.120395   0.0174023   0.025
0.138275   0.0174023   0.025
0.156961   0.0174023   0.025
0.176443   0.0174023   0.025
0.196707   0.0174023   0.025
0.217734   0.0174023   0.025
0.239496   0.0174023   0.025
0.261959   0.0174023   0.025
0.285082   0.0174023   0.025
0.308818   0.0174023   0.025
0.333113   0.0174023   0.025
0.357906   0.0174023   0.025
0.383132   0.0174023   0.025
0.408719   0.0174023   0.025
0.434592   0.0174023   0.025
0.460672   0.0174023   0.025
0.486877   0.0174023   0.025
0.513123   0.0174023   0.025
0.539328   0.0174023   0.025
0.565408   0.0174023   0.025
0.591281   0.0174023   0.025
0.616868   0.0174023   0.025
0.642094   0.0174023   0.025
0.666887   0.0174023   0.025
0.691182   0.0174023   0.025
0.714918   0.0174023   0.025
0.738041   0.0174023   0.025
0.760504   0.0174023   0.025
0.782266   0.0174023   0.025
0.803293   0.0174023   0.025
0.823557   0.0174023   0.025
0.843039   0.0174023   0.025
0.861725   0.0174023   0.025
0.879605   0.0174023   0.025
0.896677   0.0174023   0.025
0.912945   0.0174023   0.025
0.928415   0.0174023   0.025
0.943099   0.0174023   0.025
0.957011   0.0174023   0.025
0.970171   0.0174023   0.025
0.982598   0.0174023   0.025
0.994315   0.0174023   0.025
0.00568455   0.0298294   0.025
0.0174023   0.0298294   0.025
0.0298294   0.0298294   0.025
0.0429888   0.0298294   0.025
0.0569012   0.0298294   0.025
0.0715849   0.0298294   0.025
0.0870549   0.0298294   0.025
0.103323   0.0298294   0.025
0.120395   0.0298294   0.025
0.138275   0.0298294   0.025
0.156961   0.0298294   0.025
0.176443   0.0298294   0.025
0.196707   0.0298294   0.025
0.217734   0.0298294   0.025
0.239496   0.0298294   0.025
0.261959   0.0298294   0.025
0.285082   0.0298294   0.025
0.308818   0.0298294   0.025
0.333113   0.0298294   0.025
0.357906   0.0298294   0.025
0.383132   0.0298294   0.025
0.408719   0.0298294   0.025
0.434592   0.0298294   0.025
0.460672   0.0298294   0.025
0.486877   0.0298294   0.025
0.513123   0.0298294   0.025
0.539328   0.0298294   0.025
0.565408   0.0298294   0.025
0.591281   0.0298294   0.025
0.616868   0.0298294   0.025
0.642094   0.0298294   0.025
0.666887   0.0298294   0.025
0.691182   0.0298294   0.025
0.714918   0.0298294   0.025
0.738041   0.0298294   0.025
0.760504   0.0298294   0.025
0.782266   0.0298294   0.025
0.803293   0.0298294   0.025
0.823557   0.0298294   0.025
0.843039   0.0298294   0.025
0.861725   0.0298294   0.025
0.879605   0.0298294   0.025
0.896677   0.0298294   0.025
0.912945   0.0298294   0.025
0.928415   0.0298294   0.025
0.943099   0.0298294   0.025
0.957011   0.0298294   0.025
0.970171   0.0298294   0.025
0.982598   0.0298294   0.025
0.994315   0.0298294   0.025
0.00568455   0.0429888   0.025
0.0174023   0.0429888   0.025
0.0298294   0.0429888   0.025
0.0429888   0.0429888   0.025
0.0569012   0.0429888   0.025
0.0715849   0.0429888   0.025
0.0870549   0.0429888   0.025
0.103323   0.0429888   0.025
0.120395   0.0429888   0.025
0.138275   0.0429888   0.025
0.156961   0.0429888   0.025
0.176443   0.0429888   0.025
0.196707   0.0429888   0.025
0.217734   0.0429888   0.025
0.239496   0.0429888   0.025
0.261959   0.0429888   0.025
0.285082   0.0429888   0.025
0.308818   0.0429888   0.025
0.333113   0.0429888   0.025
0.357906   0.0429888   0.025
0.383132   0.0429888   0.025
0.408719   0.0429888   0.025
0.434592   0.0429888   0.025
0.460672   0.0429888   0.025
0.486877   0.0429888   0.025
0.513123   0.0429888   0.025
0.539328   0.0429888   0.025
0.565408   0.0429888   0.025
0.591281   0.0429888   0.025
0.616868   0.0429888   0.025
0.642094   0.0429888   0.025
0.666887   0.0429888   0.025
0.691182   0.0429888   0.025
0.714918   0.0429888   0.025
0.738041   0.0429888   0.025
0.760504   0.0429888   0.025
0.782266   0.0429888   0.025
0.803293   0.0429888   0.025
0.823557   0.0429888   0.025
0.843039   0.0429888   0.025
0.861725   0.0429888   0.025
0.879605   0.0429888   0.025
0.896677   0.0429888   0.025
0.912945   0.0429888   0.025
0.928415   0.0429888   0.025
0.943099   0.0429888   0.025
0.957011   0.0429888   0.025
0.970171   0.0429888   0.025
0.982598   0.0429888   0.025
0.994315   0.0429888   0.025
0.00568455   0.0569012   0.025
0.0174023   0.0569012   0.025
0.0298294   0.0569012   0.025
0.0429888   0.0569012   0.025
0.0569012   0.0569012   0.025
0.0715849   0.0569012   0.025
0.0870549   0.0569012   0.025
0.103323   0.0569012   0.025
0.120395   0.0569012   0.025
0.138275   0.0569012   0.025
0.156961   0.0569012   0.025
0.176443   0.0569012   0.025
0.196707   0.0569012   0.025
0.217734   0.0569012   0.025
0.239496   0.0569012   0.025
0.261959   0.0569012   0.025
0.285082   0.0569012   0.025
0.308818   0.0569012   0.025
0.333113   0.0569012   0.025
0.357906   0.0569012   0.025
0.383132   0.0569012   0.025
0.408719   0.0569012   0.025
0.434592   0.0569012   0.025
0.460672   0.0569012   0.025
0.486877   0.0569012   0.025
0.513123   0.0569012   0.025
0.539328   0.0569012   0.025
0.565408   0.0569012   0.025
0.591281   0.0569012   0.025
0.616868   0.0569012   0.025
0.642094   0.0569012   0.025
0.666887   0.0569012   0.025
0.691182   0.0569012   0.025
0.714918   0.0569012   0.025
0.738041   0.0569012   0.025
0.760504   0.0569012   0.025
0.782266   0.0569012   0.025
0.803293   0.0569012   0.025
0.823557   0.0569012   0.025
0.843039   0.0569012   0.025
0.861725   0.0569012   0.025
0.879605   0.0569012   0.025
0.896677   0.0569012   0.025
0.912945   0.0569012   0.025
0.928415   0.0569012   0.025
0.943099   0.0569012   0.025
0.957011   0.0569012   0.025
0.970171   0.0569012   0.025
0.982598   0.0569012   0.025
0.994315   0.0569012   0.025
0.00568455   0.0715849   0.025
0.0174023   0.0715849   0.025
0.0298294   0.0715849   0.025
0.0429888   0.0715849   0.025
0.0569012   0.0715849   0.025
0.0715849   0.0715849   0.025
0.0870549   0.0715849   0.025
0.103323   0.0715849   0.025
0.120395   0.0715849   0.025
0.138275   0.0715849   0.025
0.156961   0.0715849   0.025
0.176443   0.0715849   0.025
0.196707   0.0715849   0.025
0.217734   0.0715849   0.025
0.239496   0.0715849   0.025
0.261959   0.0715849   0.025
0.285082   0.0715849   0.025
0.308818   0.0715849   0.025
0.333113   0.0715849   0.025
0.357906   0.0715849   0.025
0.383132   0.0715849   0.025
0.408719   0.0715849   0.025
0.434592   0.0715849   0.025
0.460672   0.0715849   0.025
0.486877   0.0715849   0.025
0.513123   0.0715849   0.025
0.539328   0.0715849   0.025
0.565408   0.0715849   0.025
0.591281   0.0715849   0.025
0.616868   0.0715849   0.025
0.642094   0.0715849   0.025
0.666887   0.0715849   0.025
0.691182   0.0715849   0.025
0.714918   0.0715849   0.025
0.738041   0.0715849   0.025
0.760504   0.0715849   0.025
0.782266   0.0715849   0.025
0.803293   0.0715849   0.025
0.823557   0.0715849   0.025
0.843039   0.0715849   0.025
0.861725   0.0715849   0.025
0.879605   0.0715849   0.025
0.896677   0.0715849   0.025
0.912945   0.0715849   0.025
0.928415   0.0715849   0.025
0.943099   0.0715849   0.025
0.957011   0.0715849   0.025
0.970171   0.0715849   0.025
0.982598   0.0715849   0.025
0.994315   0.0715849   0.025
0.00568455   0.0870549   0.025
0.0174023   0.0870549   0.025
0.0298294   0.0870549   0.025
0.0429888   0.0870549   0.025
0.0569012   0.0870549   0.025
0.0715849   0.0870549   0.025
0.0870549   0.0870549   0.025
0.103323   0.0870549   0.025
0.120395   0.0870549   0.025
0.138275   0.0870549   0.025
0.156961   0.0870549   0.025
0.176443   0.0870549   0.025
0.196707   0.0870549   0.025
0.217734   0.0870549   0.025
0.239496   0.0870549   0.025
0.261959   0.0870549   0.025
0.285082   0.0870549   0.025
0.308818   0.0870549   0.025
0.333113   0.0870549   0.025
0.357906   0.0870549   0.025
0.383132   0.0870549   0.025
0.408719   0.0870549   0.025
0.434592   0.0870549   0.025
0.460672   0.0870549   0.025
0.486877   0.0870549   0.025
0.513123   0.0870549   0.025
0.539328   0.0870549   0.025
0.565408   0.0870549   0.025
0.591281   0.0870549   0.025
0.616868   0.0870549   0.025
0.642094   0.0870549   0.025
0.666887   0.0870549   0.025
0.691182   0.0870549   0.025
0.714918   0.0870549   0.025
0.738041   0.0870549   0.025
0.760504   0.0870549   0.025
0.782266   0.0870549   0.025
[...]
POINT_DATA   50000
VECTORS Velocidades double

6.27296e-05 0.00123857 0
0.000170534 0.00242748 0
0.000232571 0.00314027 0
0.000242794 0.00362322 0
0.000212089 0.00397268 0
0.00015178 0.00423233 0
6.99225e-05 0.00442415 0
-2.8126e-05 0.00456015 0
-0.000138768 0.00464769 0
-0.000259731 0.00469259 0
-0.000390371 0.00470232 0
-0.000464126 0.00469388 0
-0.000539541 0.0047271 0
-0.000686345 0.00464032 0
-0.000842085 0.00447717 0
-0.000998305 0.00425101 0
-0.0011527 0.00396783 0
-0.00130388 0.00363118 0
-0.00145048 0.003244 0
-0.00159085 0.00280941 0
-0.00172304 0.00233126 0
-0.00184484 0.00181448 0
-0.00195425 0.00126556 0
-0.002025 0.000694451 0
-0.00207226 0.000129165 0
-0.00211516 -0.000465595 0
-0.00212946 -0.00106237 0
-0.00211112 -0.00164491 0
-0.00205853 -0.00219926 0
-0.00197162 -0.00271303 0
-0.00185195 -0.00317573 0
-0.00170265 -0.00357952 0
-0.00152815 -0.00391996 0
-0.00133351 -0.00419707 0
-0.0011232 -0.00441755 0
-0.00100079 -0.00460332 0
-0.000884827 -0.00483266 0
-0.000677869 -0.00489791 0
-0.000475967 -0.00487248 0
-0.000292489 -0.00478281 0
-0.00013188 -0.00464397 0
3.71967e-06 -0.00446608 0
0.000113322 -0.00425585 0
0.000196531 -0.0040165 0
0.000252979 -0.00374706 0
0.000281586 -0.0034405 0
0.00027961 -0.00307986 0
0.000242165 -0.00262904 0
0.000165257 -0.00200806 0
5.83414e-05 -0.00101479 0
0.000214856 0.00224911 0
0.000577078 0.00470759 0
0.000771282 0.00623634 0
0.00079058 0.00727099 0
0.00068356 0.00801247 0
0.000487112 0.0085583 0
0.000225023 0.00895867 0
-8.70002e-05 0.00924112 0
-0.000438095 0.00942255 0
-0.000821043 0.00951634 0
-0.00123319 0.00953955 0
-0.00144669 0.00952915 0
-0.00168508 0.00959342 0
-0.00216909 0.00941919 0
-0.00266106 0.00908865 0
-0.00315039 0.00863065 0
-0.00363107 0.00805795 0
-0.00409866 0.00737785 0
-0.00454857 0.00659606 0
-0.00497549 0.00571862 0
-0.00537321 0.00475303 0
-0.00573489 0.00370906 0
-0.00605387 0.00259983 0
-0.00624859 0.00144569 0
-0.0063735 0.000294283 0
-0.00648591 -0.00091548 0
-0.0065058 -0.00213135 0
-0.00642608 -0.00332019 0
-0.00624352 -0.00445342 0
-0.00595937 -0.00550534 0
-0.00557949 -0.00645408 0
-0.0051142 -0.00728307 0
-0.00457729 -0.00798277 0
-0.00398421 -0.00855301 0
-0.00334862 -0.00900811 0
-0.00299999 -0.00939424 0
-0.00264974 -0.00985058 0
-0.00200589 -0.00998001 0
-0.00140089 -0.00992083 0
-0.000853885 -0.00972827 0
-0.000375602 -0.00943379 0
2.83028e-05 -0.00905843 0
0.000355265 -0.00861598 0
0.000604439 -0.00811292 0
0.00077521 -0.00754667 0
0.000865142 -0.00690147 0
0.000866805 -0.00613955 0
0.000763507 -0.00518191 0
0.00053045 -0.00386376 0
0.000189047 -0.00182893 0
0.000161408 0.00183953 0
0.00050504 0.00436712 0
0.000783657 0.00609575 0
0.000876057 0.00729933 0
0.000781335 0.00816074 0
0.000530529 0.00878774 0
0.000155769 0.00924206 0
-0.000316818 0.00955979 0
-0.000867444 0.00976392 0
-0.00148221 0.00987275 0
-0.00215355 0.00990849 0
-0.00250064 0.00991278 0
-0.0028845 0.00997169 0
-0.00366744 0.00979488 0
-0.00446421 0.00945411 0
-0.00526046 0.00898155 0
-0.00604489 0.00839193 0
-0.00680826 0.00769306 0
-0.0075416 0.00689051 0
-0.00823517 0.00598987 0
-0.00887818 0.00499817 0
-0.0094589 0.00392487 0
-0.00996537 0.00278322 0
-0.0102701 0.00159336 0
-0.0104582 0.000387015 0
-0.0106195 -0.00087797 0
-0.0106308 -0.0021543 0
-0.0104818 -0.00340742 0
-0.0101681 -0.00460672 0
-0.00969249 -0.0057242 0
-0.00906503 -0.00673553 0
-0.00830264 -0.00762185 0
-0.00742734 -0.00837194 0
-0.00646351 -0.00898513 0
-0.00543436 -0.00947732 0
-0.00487349 -0.00989633 0
-0.00432101 -0.0103464 0
-0.00330723 -0.0104701 0
-0.00235991 -0.0103884 0
-0.00150472 -0.0101601 0
-0.000759321 -0.00981991 0
-0.000134359 -0.00939059 0
0.00036419 -0.00888683 0
0.000732828 -0.00831492 0
0.00096839 -0.00767054 0
0.00106595 -0.00693399 0
0.00101792 -0.00606123 0
0.000818941 -0.00496828 0
0.000490043 -0.00350849 0
0.000149301 -0.00146034 0
9.81953e-05 0.00154112 0
0.000344668 0.00400773 0
0.000592128 0.00589442 0
0.000697956 0.00729646 0
0.000611003 0.00833051 0
0.000331868 0.0090901 0
-0.000118 0.00964051 0
-0.000712362 0.0100256 0
-0.00142698 0.0102759 0
-0.00224225 0.0104167 0
-0.00314389 0.0104764 0
-0.00361035 0.0104987 0
-0.00412435 0.0105505 0
-0.00517603 0.0103691 0
-0.00624875 0.0100153 0
-0.00732547 0.00952255 0
-0.00838969 0.00890782 0
-0.0094267 0.00817993 0
-0.0104223 0.00734449 0
-0.0113618 0.00640669 0
-0.0122294 0.00537297 0
-0.013008 0.00425235 0
-0.0136799 0.00305764 0
-0.014081 0.00180688 0
-0.0143206 0.000518762 0
-0.0145141 -0.000831392 0
-0.0145048 -0.00220032 0
-0.0142798 -0.00355154 0
-0.013834 -0.00485131 0
-0.013172 -0.00606808 0
-0.0123082 -0.00717386 0
-0.0112658 -0.00814648 0
-0.0100747 -0.00897226 0
-0.00876849 -0.00964951 0
-0.00738179 -0.0101943 0
-0.00662869 -0.0106503 0
-0.00589981 -0.01109 0
-0.00456877 -0.0111993 0
-0.00333171 -0.0110822 0
-0.002219 -0.0107993 0
-0.00125392 -0.0103882 0
-0.000451663 -0.00987441 0
0.000178698 -0.00927368 0
0.000632052 -0.00859217 0
0.000905707 -0.00782412 0
0.000999358 -0.00694788 0
0.000918756 -0.00592048 0
0.000687103 -0.00467303 0
0.00036862 -0.0031156 0
9.96088e-05 -0.00117384 0
5.30472e-05 0.00135756 0
0.00019841 0.00373211 0
0.000354431 0.00571826 0
0.00040617 0.00730247 0
0.000284547 0.00852878 0
-3.61828e-05 0.00945681 0
-0.000553288 0.0101416 0
-0.00124957 0.0106281 0
-0.00210279 0.0109523 0
-0.0030909 0.011146 0
-0.00419387 0.011243 0
-0.0047634 0.0112875 0
-0.00539304 0.0113317 0
-0.00668743 0.0111446 0
-0.0080102 0.0107759 0
-0.00934208 0.0102585 0
-0.0106622 0.00961113 0
-0.0119503 0.00884397 0
-0.0131868 0.00796295 0
-0.0143516 0.00697295 0
-0.0154234 0.00587983 0
-0.0163798 0.00469192 0
-0.0171966 0.00342102 0
-0.0176819 0.00208205 0
-0.0179638 0.000684677 0
-0.0181767 -0.000781664 0
-0.0181376 -0.00227639 0
-0.0178317 -0.00376038 0
-0.0172536 -0.00519568 0
-0.0164101 -0.0065459 0
-0.0153199 -0.00777814 0
-0.0140128 -0.00886579 0
-0.0125268 -0.00979174 0
-0.0109054 -0.0105521 0
-0.00919607 -0.0111607 0
-0.00827095 -0.0116531 0
-0.00738718 -0.0120768 0
-0.00578122 -0.0121603 0
-0.00429787 -0.0119925 0
-0.00297069 -0.0116339 0
-0.00182642 -0.0111256 0
-0.000882858 -0.0104958 0
-0.00015 -0.00976229 0
0.000368602 -0.00893259 0
0.000675514 -0.00800239 0
0.000781299 -0.00695423 0
0.000709842 -0.00575759 0
0.000507676 -0.0043742 0
0.0002544 -0.00277502 0
6.36504e-05 -0.000975243 0
2.2423e-05 0.00126115 0
8.1963e-05 0.00357639 0
0.000129705 0.00563453 0
8.6351e-05 0.00737524 0
-0.000111879 0.00879055 0
-0.000502404 0.00990325 0
-0.00109771 0.0107489 0
-0.0018923 0.0113657 0
-0.00287016 0.0117901 0
-0.00401035 0.0120577 0
-0.0052897 0.0122061 0
-0.00594756 0.0122786 0
-0.00667967 0.0123176 0
-0.00819365 0.0121242 0
-0.00974334 0.0117388 0
-0.0113072 0.0111928 0
-0.0128604 0.0105059 0
-0.0143781 0.0096893 0
-0.0158349 0.00874966 0
-0.0172055 0.00769162 0
-0.0184629 0.00652045 0
-0.019579 0.00524359 0
-0.0205236 0.00387142 0
-0.0210832 0.00241574 0
-0.0214006 0.000880987 0
-0.0216241 -0.000733769 0
-0.0215496 -0.00238875 0
-0.0211602 -0.00404136 0
-0.0204508 -0.00564821 0
-0.0194306 -0.00716673 0
-0.0181229 -0.00855772 0
-0.0165642 -0.00978879 0
-0.0148015 -0.0108381 0
-0.012889 -0.0116979 0
-0.010887 -0.0123776 0
-0.00980702 -0.0129031 0
-0.00878551 -0.0133046 0
-0.00693775 -0.013348 0
-0.00524199 -0.0131111 0
-0.003734 -0.0126538 0
-0.00244171 -0.0120208 0
-0.0013829 -0.0112441 0
-0.000565527 -0.0103452 0
1.16784e-05 -0.00933566 0
0.000359708 -0.00821709 0
0.000501339 -0.00698286 0
0.000474743 -0.00562213 0
0.000337022 -0.0041291 0
0.000163805 -0.00251823 0
3.94106e-05 -0.00084294 0
7.80154e-07 0.00123033 0
-9.25106e-06 0.00354424 0
-6.63259e-05 0.00567941 0
-0.00022122 0.00756276 0
-0.000523526 0.00915766 0
-0.00101033 0.0104581 0
-0.00170152 0.0114786 0
-0.00260066 0.0122455 0
-0.0036987 0.0127911 0
-0.00497801 0.0131509 0
-0.00641499 0.0133637 0
-0.00714991 0.0134713 0
-0.00797343 0.0135097 0
-0.00968679 0.0133103 0
-0.0114432 0.012907 0
-0.0132185 0.0123285 0
-0.0149847 0.0115952 0
-0.0167123 0.0107193 0
-0.0183712 0.00970777 0
-0.0199304 0.00856532 0
-0.0213576 0.00729654 0
-0.022619 0.00590786 0
-0.0236789 0.00440806 0
-0.0243055 0.00280655 0
-0.0246544 0.0011056 0
-0.0248844 -0.000691049 0
-0.0247728 -0.00254231 0
-0.0243005 -0.00440091 0
-0.0234626 -0.00621681 0
-0.0222705 -0.00793969 0
-0.0207526 -0.00952242 0
-0.0189527 -0.0109252 0
-0.0169272 -0.0121198 0
-0.0147418 -0.0130929 0
-0.0124694 -0.013848 0
-0.0112469 -0.0144019 0
-0.0100998 -0.0147743 0
-0.00803393 -0.0147608 0
-0.0061497 -0.0144331 0
-0.0044844 -0.0138522 0
-0.00306519 -0.0130667 0
-0.0019073 -0.0121142 0
-0.00101413 -0.0110222 0
-0.000377541 -0.00980932 0
2.24268e-05 -0.00848744 0
0.000218387 -0.00706452 0
0.000256217 -0.00555046 0
0.000193772 -0.00396498 0
9.56513e-05 -0.00234661 0
2.29629e-05 -0.000758612 0
-1.54045e-05 0.00125183 0
-8.19007e-05 0.00362903 0
-0.000233441 0.00586775 0
-0.000501322 0.0078964 0
-0.000920456 0.00966617 0
-0.00152138 0.0111528 0
-0.00232455 0.0123536 0
-0.00333799 0.013282 0
-0.00455779 0.0139629 0
-0.00597 0.0144286 0
-0.00755242 0.0147163 0
-0.00835713 0.0148663 0
-0.00926369 0.0149101 0
-0.0111597 0.0147059 0
-0.013106 0.0142831 0
-0.0150757 0.0136685 0
-0.0170377 0.0128822 0
-0.018959 0.0119371 0
-0.0208048 0.0108407 0
-0.0225393 0.00959727 0
-0.0241248 0.00821089 0
-0.0255222 0.00668684 0
-0.0266905 0.00503248 0
-0.0273803 0.00325572 0
-0.0277597 0.00135903 0
-0.0279977 -0.000654343 0
-0.0278519 -0.00273977 0
-0.0273007 -0.00484394 0
-0.0263388 -0.00690859 0
-0.0249799 -0.00887394 0
-0.0232573 -0.010683 0
-0.0212225 -0.0122864 0
-0.0189423 -0.0136477 0
-0.0164944 -0.0147464 0
-0.0139637 -0.0155791 0
-0.012605 -0.0161557 0
-0.0113387 -0.0164908 0
-0.00906829 -0.0164016 0
-0.00700933 -0.015959 0
-0.00520016 -0.0152274 0
-0.00366565 -0.0142616 0
-0.00241666 -0.0131065 0
-0.00145047 -0.011798 0
-0.000751547 -0.0103649 0
-0.000292161 -0.00883147 0
-3.33186e-05 -0.00722096 0
7.33611e-05 -0.00556084 0
8.19246e-05 -0.00388753 0
4.60916e-05 -0.00225001 0
1.1774e-05 -0.000709271 0
-2.81035e-05 0.00131761 0
-0.000141126 0.0038226 0
-0.000375676 0.00620318 0
-0.00075063 0.00839369 0
-0.00128886 0.0103423 0
-0.00201252 0.0120152 0
-0.00293846 0.0133979 0
-0.00407504 0.014493 0
-0.00542076 0.015317 0
-0.0069644 0.0158972 0
-0.00868578 0.0162676 0
-0.00955662 0.0164661 0
-0.0105406 0.0165218 0
-0.0126065 0.0163144 0
-0.0147297 0.0158708 0
-0.0168805 0.0152164 0
-0.0190255 0.0143707 0
-0.0211284 0.0133471 0
-0.0231507 0.0121529 0
-0.0250521 0.0107924 0
-0.02679 0.00926855 0
-0.0283202 0.0075856 0
-0.0295971 0.00574974 0
-0.0303501 0.00376831 0
-0.0307626 0.00164555 0
-0.0310162 -0.000620924 0
-0.0308447 -0.0029808 0
-0.0302226 -0.00537307 0
-0.0291434 -0.00772954 0
-0.0276226 -0.00997884 0
-0.0256982 -0.0120516 0
-0.0234301 -0.0138868 0
-0.0208957 -0.015437 0
-0.0181856 -0.0166733 0
-0.015397 -0.0175852 0
-0.0139013 -0.018178 0
-0.0125162 -0.0184659 0
-0.0100436 -0.0182797 0
-0.00781337 -0.0176951 0
-0.00586424 -0.0167839 0
-0.00421792 -0.0156093 0
-0.00287984 -0.0142258 0
-0.00184059 -0.0126801 0
-0.00107763 -0.0110127 0
-0.000557122 -0.00926094 0
-0.000236355 -0.00746195 0
-6.70319e-05 -0.00565622 0
4.16612e-07 -0.00388978 0
1.17981e-05 -0.00221443 0
4.40012e-06 -0.00068521 0
-3.84386e-05 0.00142263 0
-0.000190482 0.00411774 0
-0.000497541 0.00668428 0
-0.000970822 0.00906283 0
-0.00162427 0.0112027 0
-0.00247212 0.0130667 0
-0.00352589 0.0146332 0
-0.0047915 0.015897 0
-0.00626739 0.0168677 0
-0.00794361 0.0175667 0
-0.00980177 0.0180245 0
-0.0107378 0.0182762 0
-0.0117961 0.0183496 0
-0.0140235 0.0181406 0
-0.0163146 0.017675 0
-0.0186378 0.0169772 0
-0.0209577 0.0160663 0
-0.0232353 0.0149554 0
-0.0254293 0.0136517 0
-0.0274952 0.0121586 0
-0.0293864 0.0104783 0
-0.0310539 0.00861365 0
-0.0324474 0.00656992 0
-0.0332679 0.00435463 0
-0.0337201 0.00197461 0
-0.0340044 -0.000583181 0
-0.0338219 -0.00326082 0
-0.0331417 -0.00598787 0
-0.0319548 -0.00868412 0
-0.0302771 -0.011264 0
-0.028151 -0.013643 0
-0.0256448 -0.0157449 0
-0.0228478 -0.0175093 0
-0.0198641 -0.0188966 0
-0.0168046 -0.0198898 0
-0.0151637 -0.0204915 0
-0.013653 -0.0207199 0
-0.0109691 -0.0204123 0
-0.00856057 -0.0196556 0
-0.00646655 -0.0185327 0
-0.00470507 -0.0171187 0
-0.00327575 -0.01548 0
-0.0021625 -0.0136757 0
-0.00133634 -0.011759 0
-0.000758495 -0.00977964 0
-0.000383736 -0.00778634 0
-0.000164187 -0.00582871 0
-5.33254e-05 -0.00395775 0
-9.74276e-06 -0.00222471 0
-1.17578e-08 -0.000678428 0
-4.70913e-05 0.0015635 0
-0.000232431 0.00450855 0
-0.000603017 0.00730765 0
-0.00116541 0.00990651 0
-0.00192725 0.0122572 0
-0.00289621 0.0143221 0
-0.00407823 0.0160767 0
-0.0054755 0.0175111 0
-0.00708467 0.0186296 0
-0.00889566 0.0194492 0
-0.0108912 0.0199967 0
-0.0118932 0.0203048 0
-0.0130248 0.0204003 0
-0.0154094 0.0201911 0
-0.017864 0.0197026 0
-0.0203556 0.0189584 0
-0.0228474 0.0179772 0
-0.0252988 0.0167714 0
-0.027666 0.0153477 0
-0.0299014 0.0137084 0
-0.0319546 0.0118541 0
-0.0337723 0.00978647 0
-0.0352997 0.00750971 0
-0.0361967 0.00503186 0
-0.0367 0.0023626 0
-0.0370387 -0.000526951 0
-0.0368677 -0.00356958 0
-0.0361484 -0.0066836 0
-0.0348669 -0.00977447 0
-0.0330379 -0.0127394 0
-0.0307075 -0.0154747 0
-0.0279521 -0.0178856 0
-0.0248738 -0.0198948 0
-0.0215923 -0.0214503 0
-0.0182343 -0.0225282 0
-0.0164317 -0.0231309 0
-0.0147813 -0.0232843 0
-0.0118641 -0.0228269 0
-0.00925949 -0.0218633 0
-0.00700683 -0.0204921 0
-0.00512054 -0.0188037 0
-0.00359436 -0.0168791 0
-0.0024056 -0.014791 0
-0.00151913 -0.0126056 0
-0.000891473 -0.0103841 0
-0.00047468 -0.00818467 0
-0.000220171 -0.00606338 0
-8.21673e-05 -0.0040737 0
-2.04282e-05 -0.00226528 0
-2.0065e-06 -0.000681773 0
-5.45095e-05 0.00173785 0
-0.000268749 0.00499036 0
-0.000695441 0.0080694 0
-0.00133838 0.0109244 0
-0.0022009 0.0135104 0
-0.00328555 0.015791 0
-0.00459326 0.0177414 0
-0.00612215 0.0193497 0
-0.00786623 0.0206172 0
-0.00981428 0.0215578 0
-0.0119493 0.0221958 0
-0.0130188 0.0225623 0
-0.0142243 0.0226834 0
-0.0167659 0.0224752 0
-0.0193839 0.0219632 0
-0.0220449 0.0211704 0
-0.0247113 0.0201151 0
-0.0273417 0.0188088 0
-0.0298906 0.0172568 0
-0.0323083 0.0154599 0
-0.034541 0.0134169 0
-0.0365315 0.0111273 0
-0.0382202 0.0085942 0
-0.0392079 0.00582603 0
-0.0397791 0.00283496 0
-0.0402066 -0.00042931 0
-0.0400794 -0.00388895 0
-0.0393483 -0.00744934 0
-0.0379912 -0.010999 0
-0.0360192 -0.014414 0
-0.0334803 -0.0175673 0
-0.0304589 -0.02034 0
-0.0270708 -0.0226338 0
-0.0234538 -0.0243813 0
-0.0197539 -0.0255508 0
-0.0177642 -0.026146 0
-0.0159518 -0.0262045 0
-0.0127653 -0.0255636 0
-0.00993445 -0.0243517 0
-0.00749949 -0.0226889 0
-0.00547144 -0.0206842 0
-0.00383826 -0.0184358 0
-0.00257055 -0.0160316 0
-0.00162676 -0.0135508 0
-0.000957994 -0.0110655 0
-0.000512328 -0.00864207 0
-0.000238514 -0.00634119 0
-8.89478e-05 -0.00421795 0
-2.17533e-05 -0.00232047 0
-1.96149e-06 -0.000688524 0
-6.10091e-05 0.00194397 0
-0.000300769 0.00555942 0
-0.000777585 0.00896574 0
-0.00149366 0.0121147 0
-0.0024494 0.0149639 0
-0.00364353 0.0174791 0
-0.00507286 0.0196365 0
-0.00673167 0.0214242 0
-0.00861107 0.022843 0
-0.0106982 0.0239054 0
-0.0129756 0.0246345 0
-0.0141146 0.025061 0
-0.0153956 0.0252103 0
-0.0180973 0.0250044 0
-0.0208827 0.0244691 0
-0.0237187 0.0236273 0
-0.026568 0.0224962 0
-0.0293891 0.0210863 0
-0.0321357 0.019401 0
-0.0347568 0.0174389 0
-0.037196 0.0151958 0
-0.0393923 0.0126688 0
-0.0412812 0.009859 0
-0.0423795 0.00677441 0
-0.0430415 0.00342893 0
-0.0436059 -0.000255518 0
-0.0435681 -0.00418974 0
-0.0428645 -0.00826471 0
-0.0414608 -0.0123492 0
-0.0393609 -0.016294 0
-0.0366117 -0.0199426 0
-0.0333045 -0.0231458 0
-0.0295701 -0.0257781 0
-0.0255671 -0.0277517 0
-0.0214658 -0.0290252 0
-0.0192545 -0.029605 0
-0.0172485 -0.029544 0
-0.0137395 -0.0286788 0
-0.0106368 -0.0271694 0
-0.00798247 -0.0251621 0
-0.00578495 -0.0227892 0
-0.00402667 -0.0201687 0
-0.00267122 -0.0174056 0
-0.00166969 -0.014593 0
-0.000966344 -0.0118138 0
-0.000503246 -0.00914159 0
-0.000224039 -0.0066416 0
-7.66458e-05 -0.00437029 0
-1.50369e-05 -0.00237482 0
-1.71576e-07 -0.000692213 0
-6.68232e-05 0.00218059 0
-0.000329523 0.00621277 0
-0.000851743 0.00999329 0
-0.00163481 0.0134751 0
-0.00267719 0.0166177 0
-0.00397483 0.0193893 0
-0.00552124 0.0217681 0
-0.00730746 0.0237438 0
-0.00932183 0.0253183 0
-0.0115496 0.0265046 0
-0.0139728 0.0273261 0
-0.015183 0.0278141 0
-0.016542 0.0279942 0
-0.0194098 0.0277927 0
-0.0223703 0.027236 0
-0.0253913 0.0263467 0
-0.0284369 0.0251413 0
-0.0314665 0.0236285 0
-0.0344342 0.0218094 0
-0.0372884 0.0196791 0
-0.039971 0.01723 0
-0.0424176 0.0144552 0
-0.0445585 0.0113526 0
-0.0457934 0.00792852 0
-0.0465772 0.00419723 0
-0.0473439 4.53684e-05 0
-0.0474598 -0.00442659 0
-0.0468416 -0.00909434 0
-0.0454377 -0.0138042 0
-0.0432393 -0.0183767 0
-0.0402881 -0.0226191 0
-0.0366798 -0.0263436 0
-0.0325597 -0.0293887 0
-0.0281104 -0.0316392 0
-0.0235323 -0.0330397 0
-0.021056 -0.0335986 0
-0.018814 -0.0333891 0
-0.0149068 -0.0322521 0
-0.0114646 -0.0303864 0
-0.00853337 -0.0279703 0
-0.00612065 -0.0251638 0
-0.00420423 -0.0221088 0
-0.00274043 -0.01893 0
-0.0016717 -0.0157363 0
-0.000933331 -0.012622 0
-0.000458808 -0.00966854 0
-0.000183816 -0.00694569 0
-4.90143e-05 -0.0045118 0
-1.7422e-06 -0.00241375 0
3.06907e-06 -0.000686687 0
-7.21255e-05 0.00244672 0
-0.000355809 0.00694805 0
-0.000919768 0.0111491 0
-0.0017649 0.015003 0
-0.00288843 0.0184709 0
-0.00428428 0.0215229 0
-0.00594348 0.0241403 0
-0.00785441 0.0263153 0
-0.010003 0.0280522 0
-0.0123729 0.0293663 0
-0.0149451 0.030283 0
-0.016228 0.0308353 0
-0.0176681 0.0310496 0
-0.0207099 0.0308562 0
-0.0238558 0.0302823 0
-0.0270757 0.0293504 0
-0.0303355 0.0280762 0
-0.0335971 0.0264662 0
-0.0368161 0.0245185 0
-0.0399417 0.0222241 0
-0.0429149 0.0195701 0
-0.0456689 0.0165442 0
-0.0481287 0.0131392 0
-0.0495326 0.00935792 0
-0.0504784 0.00521302 0
-0.0515369 0.000546866 0
-0.0518973 -0.00453016 0
-0.0514514 -0.00987857 0
-0.0501234 -0.0153201 0
-0.0478845 -0.0206401 0
-0.0447642 -0.0256016 0
-0.0408571 -0.029968 0
-0.0363204 -0.0335302 0
-0.031362 -0.0361349 0
-0.0262182 -0.0377045 0
-0.0234258 -0.0382463 0
-0.0208924 -0.0378574 0
-0.0164799 -0.0363969 0
-0.0125966 -0.0341079 0
-0.00929705 -0.0312055 0
-0.00659204 -0.0278833 0
-0.00445713 -0.0243126 0
-0.00284162 -0.0206426 0
-0.0016779 -0.0170009 0
-0.00088972 -0.0134956 0
-0.000398755 -0.0102172 0
-0.000129374 -0.00724102 0
-1.17968e-05 -0.00462788 0
1.60179e-05 -0.0024251 0
7.35697e-06 -0.000666527 0
-7.70404e-05 0.0027416 0
-0.00038021 0.00776327 0
-0.000983069 0.0124305 0
-0.00188638 0.0166961 0
-0.00308656 0.0205218 0
-0.00457615 0.0238802 0
-0.00634431 0.0267554 0
-0.00837737 0.0291434 0
-0.0106594 0.0310521 0
-0.0131724 0.0325005 0
-0.0158968 0.0335171 0
-0.0172538 0.0341382 0
-0.0187779 0.0343915 0
-0.022003 0.0342121 0
-0.0253465 0.0336282 0
-0.0287813 0.0326629 0
-0.032277 0.0313307 0
-0.0357987 0.0296359 0
-0.0393055 0.0275728 0
-0.0427486 0.0251269 0
-0.0460703 0.0222789 0
-0.049202 0.019009 0
-0.0520647 0.0153022 0
-0.053677 0.0111551 0
-0.0548371 0.00657658 0
-0.0563089 0.00135418 0
-0.0570434 -0.00439516 0
-0.0569012 -0.0105186 0
-0.0557745 -0.0168125 0
-0.0536041 -0.0230232 0
-0.0503965 -0.0288615 0
-0.0462341 -0.0340301 0
-0.0412785 -0.0382577 0
-0.0357596 -0.0413366 0
-0.029954 -0.0431526 0
-0.0267907 -0.0437032 0
-0.0238943 -0.0431104 0
-0.018823 -0.0412791 0
-0.0143433 -0.0384964 0
-0.0105278 -0.0350177 0
-0.00740001 -0.0310773 0
-0.00493855 -0.0268848 0
-0.00308755 -0.0226216 0
-0.00176814 -0.0184402 0
-0.000889402 -0.0144663 0
-0.000357186 -0.0108021 0
-8.0317e-05 -0.00752975 0
2.53784e-05 -0.00471374 0
3.47355e-05 -0.00240223 0
1.20247e-05 -0.000628015 0
-8.16465e-05 0.0030645 0
-0.000403111 0.00865656 0
-0.00104259 0.013835 0
-0.00200091 0.0185514 0
-0.00327404 0.0227682 0
-0.00485355 0.02646 0
-0.00672727 0.0296142 0
-0.00887999 0.0322311 0
-0.0112943 0.0343233 0
-0.0139511 0.0359145 0
-0.0168304 0.0370381 0
-0.0182621 0.0377347 0
-0.0198731 0.038034 0
-0.0232908 0.0378773 0