# vtk DataFile Version 2.0
Velocidades
ASCII

DATASET STRUCTURED_GRID
DIMENSIONS   50   50   20

POINTS   50000   double
0.00568455   0.00568455   0.025
0.0174023   0.00568455   0.025
0.0298294   0.00568455   0.025
0.0429888   0.00568455   0.025
0.0569012   0.00568455   0.025
0.0715849   0.00568455   0.025
0.0870549   0.00568455   0.025
0.103323   0.00568455   0.025
0.120395   0.00568455   0.025
0.138275   0.00568455   0.025
0.156961   0.00568455   0.025
0.176443   0.00568455   0.025
0.196707   0.00568455   0.025
0.217734   0.00568455   0.025
0.239496   0.00568455   0.025
0.261959   0.00568455   0.025
0.285082   0.00568455   0.025
0.308818   0.00568455   0.025
0.333113   0.00568455   0.025
0.357906   0.00568455   0.025
0.383132   0.00568455   0.025
0.408719   0.00568455   0.025
0.434592   0.00568455   0.025
0.460672   0.00568455   0.025
0.486877   0.00568455   0.025
0.513123   0.00568455   0.025
0.539328   0.00568455   0.025
0.565408   0.00568455   0.025
0.591281   0.00568455   0.025
0.616868   0.00568455   0.025
0.642094   0.00568455   0.025
0.666887   0.00568455   0.025
0.691182   0.00568455   0.025
0.714918   0.00568455   0.025
0.738041   0.00568455   0.025
0.760504   0.00568455   0.025
0.782266   0.00568455   0.025
0.803293   0.00568455   0.025
0.823557   0.00568455   0.025
0.843039   0.00568455   0.025
0.861725   0.00568455   0.025
0.879605   0.00568455   0.025
0.896677   0.00568455   0.025
0.912945   0.00568455   0.025
0.928415   0.00568455   0.025
0.943099   0.00568455   0.025
0.957011   0.00568455   0.025
0.970171   0.00568455   0.025
0.982598   0.00568455   0.025
0.994315   0.00568455   0.025
0.00568455   0.0174023   0.025
0.0174023   0.0174023   0.025
0.0298294   0.0174023   0.025
0.0429888   0.0174023   0.025
0.0569012   0.0174023   0.025
0.0715849   0.0174023   0.025
0.0870549   0.0174023   0.025
0.103323   0.0174023   0.025
0.120395   0.0174023   0.025
0.138275   0.0174023   0.025
0.156961   0.0174023   0.025
0.176443   0.0174023   0.025
0.196707   0.0174023   0.025
0.217734   0.0174023   0.025
0.239496   0.0174023   0.025
0.261959   0.0174023   0.025
0.285082   0.0174023   0.025
0.308818   0.0174023   0.025
0.333113   0.0174023   0.025
0.357906   0.0174023   0.025
0.383132   0.0174023   0.025
0.408719   0.0174023   0.025
0.434592   0.0174023   0.025
0.460672   0.0174023   0.025
0.486877   0.0174023   0.025
0.513123   0.0174023   0.025
0.539328   0.0174023   0.025
0.565408   0.0174023   0.025
0.591281   0.0174023   0.025
0.616868   0.0174023   0.025
0.642094   0.0174023   0.025
0.666887   0.0174023   0.025
0.691182   0.0174023   0.025
0.714918   0.0174023   0.025
0.738041   0.0174023   0.025
0.760504   0.0174023   0.025
0.782266   0.0174023   0.025
0.803293   0.0174023   0.025
0.823557   0.0174023   0.025
0.843039   0.0174023   0.025
0.861725   0.0174023   0.025
0.879605   0.0174023   0.025
0.896677   0.0174023   0.025
0.912945   0.0174023   0.025
0.928415   0.0174023   0.025
0.943099   0.0174023   0.025
0.957011   0.0174023   0.025
0.970171   0.0174023   0.025
0.982598   0.0174023   0.025
0.994315   0.0174023   0.025
0.00568455   0.0298294   0.025
0.0174023   0.0298294   0.025
0.0298294   0.0298294   0.025
0.0429888   0.0298294   0.025
0.0569012   0.0298294   0.025
0.0715849   0.0298294   0.025
0.0870549   0.0298294   0.025
0.103323   0.0298294   0.025
0.120395   0.0298294   0.025
0.138275   0.0298294   0.025
0.156961   0.0298294   0.025
0.176443   0.0298294   0.025
0.196707   0.0298294   0.025
0.217734   0.0298294   0.025
0.239496   0.0298294   0.025
0.261959   0.0298294   0.025
0.285082   0.0298294   0.025
0.308818   0.0298294   0.025
0.333113   0.0298294   0.025
0.357906   0.0298294   0.025
0.383132   0.0298294   0.025
0.408719   0.0298294   0.025
0.434592   0.0298294   0.025
0.460672   0.0298294   0.025
0.486877   0.0298294   0.025
0.513123   0.0298294   0.025
0.539328   0.0298294   0.025
0.565408   0.0298294   0.025
0.591281   0.0298294   0.025
0.616868   0.0298294   0.025
0.642094   0.0298294   0.025
0.666887   0.0298294   0.025
0.691182   0.0298294   0.025
0.714918   0.0298294   0.025
0.738041   0.0298294   0.025
0.760504   0.0298294   0.025
0.782266   0.0298294   0.025
0.803293   0.0298294   0.025
0.823557   0.0298294   0.025
0.843039   0.0298294   0.025
0.861725   0.0298294   0.025
0.879605   0.0298294   0.025
0.896677   0.0298294   0.025
0.912945   0.0298294   0.025
0.928415   0.0298294   0.025
0.943099   0.0298294   0.025
0.957011   0.0298294   0.025
0.970171   0.0298294   0.025
0.982598   0.0298294   0.025
0.994315   0.0298294   0.025
0.00568455   0.0429888   0.025
0.0174023   0.0429888   0.025
0.0298294   0.0429888   0.025
0.0429888   0.0429888   0.025
0.0569012   0.0429888   0.025
0.0715849   0.0429888   0.025
0.0870549   0.0429888   0.025
0.103323   0.0429888   0.025
0.120395   0.0429888   0.025
0.138275   0.0429888   0.025
0.156961   0.0429888   0.025
0.176443   0.0429888   0.025
0.196707   0.0429888   0.025
0.217734   0.0429888   0.025
0.239496   0.0429888   0.025
0.261959   0.0429888   0.025
0.285082   0.0429888   0.025
0.308818   0.0429888   0.025
0.333113   0.0429888   0.025
0.357906   0.0429888   0.025
0.383132   0.0429888   0.025
0.408719   0.0429888   0.025
0.434592   0.0429888   0.025
0.460672   0.0429888   0.025
0.486877   0.0429888   0.025
0.513123   0.0429888   0.025
0.539328   0.0429888   0.025
0.565408   0.0429888   0.025
0.591281   0.0429888   0.025
0.616868   0.0429888   0.025
0.642094   0.0429888   0.025
0.666887   0.0429888   0.025
0.691182   0.0429888   0.025
0.714918   0.0429888   0.025
0.738041   0.0429888   0.025
0.760504   0.0429888   0.025
0.782266   0.0429888   0.025
0.803293   0.0429888   0.025
0.823557   0.0429888   0.025
0.843039   0.0429888   0.025
0.861725   0.0429888   0.025
0.879605   0.0429888   0.025
0.896677   0.0429888   0.025
0.912945   0.0429888   0.025
0.928415   0.0429888   0.025
0.943099   0.0429888   0.025
0.957011   0.0429888   0.025
0.970171   0.0429888   0.025
0.982598   0.0429888   0.025
0.994315   0.0429888   0.025
0.00568455   0.0569012   0.025
0.0174023   0.0569012   0.025
0.0298294   0.0569012   0.025
0.0429888   0.0569012   0.025
0.0569012   0.0569012   0.025
0.0715849   0.0569012   0.025
0.0870549   0.0569012   0.025
0.103323   0.0569012   0.025
0.120395   0.0569012   0.025
0.138275   0.0569012   0.025
0.156961   0.0569012   0.025
0.176443   0.0569012   0.025
0.196707   0.0569012   0.025
0.217734   0.0569012   0.025
0.239496   0.0569012   0.025
0.261959   0.0569012   0.025
0.285082   0.0569012   0.025
0.308818   0.0569012   0.025
0.333113   0.0569012   0.025
0.357906   0.0569012   0.025
0.383132   0.0569012   0.025
0.408719   0.0569012   0.025
0.434592   0.0569012   0.025
0.460672   0.0569012   0.025
0.486877   0.0569012   0.025
0.513123   0.0569012   0.025
0.539328   0.0569012   0.025
0.565408   0.0569012   0.025
0.591281   0.0569012   0.025
0.616868   0.0569012   0.025
0.642094   0.0569012   0.025
0.666887   0.0569012   0.025
0.691182   0.0569012   0.025
0.714918   0.0569012   0.025
0.738041   0.0569012   0.025
0.760504   0.0569012   0.025
0.782266   0.0569012   0.025
0.803293   0.0569012   0.025
0.823557   0.0569012   0.025
0.843039   0.0569012   0.025
0.861725   0.0569012   0.025
0.879605   0.0569012   0.025
0.896677   0.0569012   0.025
0.912945   0.0569012   0.025
0.928415   0.0569012   0.025
0.943099   0.0569012   0.025
0.957011   0.0569012   0.025
0.970171   0.0569012   0.025
0.982598   0.0569012   0.025
0.994315   0.0569012   0.025
0.00568455   0.0715849   0.025
0.0174023   0.0715849   0.025
0.0298294   0.0715849   0.025
0.0429888   0.0715849   0.025
0.0569012   0.0715849   0.025
0.0715849   0.0715849   0.025
0.0870549   0.0715849   0.025
0.103323   0.0715849   0.025
0.120395   0.0715849   0.025
0.138275   0.0715849   0.025
0.156961   0.0715849   0.025
0.176443   0.0715849   0.025
0.196707   0.0715849   0.025
0.217734   0.0715849   0.025
0.239496   0.0715849   0.025
0.261959   0.0715849   0.025
0.285082   0.0715849   0.025
0.308818   0.0715849   0.025
0.333113   0.0715849   0.025
0.357906   0.0715849   0.025
0.383132   0.0715849   0.025
0.408719   0.0715849   0.025
0.434592   0.0715849   0.025
0.460672   0.0715849   0.025
0.486877   0.0715849   0.025
0.513123   0.0715849   0.025
0.539328   0.0715849   0.025
0.565408   0.0715849   0.025
0.591281   0.0715849   0.025
0.616868   0.0715849   0.025
0.642094   0.0715849   0.025
0.666887   0.0715849   0.025
0.691182   0.0715849   0.025
0.714918   0.0715849   0.025
0.738041   0.0715849   0.025
0.760504   0.0715849   0.025
0.782266   0.0715849   0.025
0.803293   0.0715849   0.025
0.823557   0.0715849   0.025
0.843039   0.0715849   0.025
0.861725   0.0715849   0.025
0.879605   0.0715849   0.025
0.896677   0.0715849   0.025
0.912945   0.0715849   0.025
0.928415   0.0715849   0.025
0.943099   0.0715849   0.025
0.957011   0.0715849   0.025
0.970171   0.0715849   0.025
0.982598   0.0715849   0.025
0.994315   0.0715849   0.025
0.00568455   0.0870549   0.025
0.0174023   0.0870549   0.025
0.0298294   0.0870549   0.025
0.0429888   0.0870549   0.025
0.0569012   0.0870549   0.025
0.0715849   0.0870549   0.025
0.0870549   0.0870549   0.025
0.103323   0.0870549   0.025
0.120395   0.0870549   0.025
0.138275   0.0870549   0.025
0.156961   0.0870549   0.025
0.176443   0.0870549   0.025
0.196707   0.0870549   0.025
0.217734   0.0870549   0.025
0.239496   0.0870549   0.025
0.261959   0.0870549   0.025
0.285082   0.0870549   0.025
0.308818   0.0870549   0.025
0.333113   0.0870549   0.025
0.357906   0.0870549   0.025
0.383132   0.0870549   0.025
0.408719   0.0870549   0.025
0.434592   0.0870549   0.025
0.460672   0.0870549   0.025
0.486877   0.0870549   0.025
0.513123   0.0870549   0.025
0.539328   0.0870549   0.025
0.565408   0.0870549   0.025
0.591281   0.0870549   0.025
0.616868   0.0870549   0.025
0.642094   0.0870549   0.025
0.666887   0.0870549   0.025
0.691182   0.0870549   0.025
0.714918   0.0870549   0.025
0.738041   0.0870549   0.025
0.760504   0.0870549   0.025
0.782266   0.0870549   0.025
[...]
POINT_DATA   50000
VECTORS Velocidades double

-7.68553e-05 -0.00168911 0
-0.000207939 -0.00331771 0
-0.000285519 -0.00423471 0
-0.000313955 -0.00475 0
-0.000321017 -0.0049891 0
-0.000333962 -0.00501544 0
-0.000373535 -0.00486803 0
-0.00045432 -0.00457455 0
-0.000586153 -0.00415612 0
-0.000775651 -0.00362804 0
-0.00102825 -0.00299676 0
-0.00115406 -0.00224624 0
-0.00133394 -0.00127786 0
-0.0017762 -0.000549352 0
-0.0022938 5.82378e-05 0
-0.00285928 0.000571692 0
-0.00346324 0.00098789 0
-0.00409661 0.00128987 0
-0.00474627 0.00145515 0
-0.00539324 0.00146226 0
-0.00601216 0.00129663 0
-0.00657174 0.000955628 0
-0.00703758 0.000452009 0
-0.00736382 -0.000183593 0
-0.00750863 -0.000890809 0
-0.00744397 -0.00160258 0
-0.00715232 -0.00223945 0
-0.00663742 -0.00272695 0
-0.00592324 -0.0030012 0
-0.00505453 -0.00301771 0
-0.00409267 -0.00275855 0
-0.00310763 -0.00223599 0
-0.00216775 -0.0014916 0
-0.00132985 -0.000592006 0
-0.000630637 0.00037609 0
-0.000238747 0.00130411 0
2.02881e-06 0.00203253 0
0.000272501 0.00287549 0
0.00043775 0.00367522 0
0.00050397 0.00437278 0
0.000490936 0.00494233 0
0.000418457 0.00537201 0
0.000304781 0.00565576 0
0.000167082 0.00578881 0
2.25202e-05 0.00576441 0
-0.000110305 0.00556989 0
-0.000209566 0.00517969 0
-0.00024926 0.00453933 0
-0.000204944 0.00352216 0
-7.95914e-05 0.00179165 0
-0.000257137 -0.00310532 0
-0.000677374 -0.00647231 0
-0.000894648 -0.00841831 0
-0.000950726 -0.0094983 0
-0.000950668 -0.00997985 0
-0.000977581 -0.0100078 0
-0.00109059 -0.00967208 0
-0.00133116 -0.00903586 0
-0.00172804 -0.00814623 0
-0.00230151 -0.00703629 0
-0.00306953 -0.00571851 0
-0.00340578 -0.00415627 0
-0.0039695 -0.00216866 0
-0.00539803 -0.000666787 0
-0.00701039 0.000578088 0
-0.00877029 0.00162681 0
-0.0106525 0.00247436 0
-0.0126266 0.00308463 0
-0.014647 0.00340893 0
-0.0166485 0.00340019 0
-0.0185458 0.00302549 0
-0.0202368 0.00227689 0
-0.0216108 0.0011796 0
-0.0225383 -0.00020277 0
-0.0229006 -0.00176857 0
-0.0226186 -0.00334784 0
-0.0216593 -0.00477822 0
-0.0200478 -0.00590064 0
-0.017863 -0.00657519 0
-0.0152379 -0.00670118 0
-0.0123483 -0.00623395 0
-0.00939222 -0.00519385 0
-0.00656421 -0.00366546 0
-0.00402963 -0.00178926 0
-0.00190126 0.000248169 0
-0.000743861 0.00220933 0
-2.4107e-06 0.00376254 0
0.00088111 0.00554826 0
0.00140364 0.00724386 0
0.00161396 0.00872361 0
0.00157385 0.00993404 0
0.0013438 0.0108512 0
0.000980286 0.0114623 0
0.000537168 0.0117562 0
6.84416e-05 0.0117161 0
-0.000367891 0.0113107 0
-0.000704055 0.0104786 0
-0.000854949 0.00909484 0
-0.000720679 0.0068929 0
-0.000284628 0.00328122 0
-0.000185442 -0.00262383 0
-0.000589099 -0.00607796 0
-0.00096141 -0.00821309 0
-0.00122066 -0.00939722 0
-0.00142817 -0.00988994 0
-0.00167605 -0.00986119 0
-0.0020481 -0.00942554 0
-0.00261096 -0.00866458 0
-0.00341516 -0.00763789 0
-0.00449916 -0.00638557 0
-0.00589523 -0.00492097 0
-0.00652757 -0.0032035 0
-0.00750038 -0.00108785 0
-0.00990144 0.000530339 0
-0.0126 0.00185934 0
-0.0155514 0.00297014 0
-0.0187089 0.00385884 0
-0.0220121 0.00448316 0
-0.025376 0.00478467 0
-0.0286843 0.00470553 0
-0.03179 0.00420307 0
-0.034521 0.00326289 0
-0.0366934 0.00190934 0
-0.0381365 0.000210449 0
-0.0386535 -0.00175688 0
-0.038108 -0.0037549 0
-0.0364875 -0.00560437 0
-0.0338393 -0.00711982 0
-0.0302909 -0.00813037 0
-0.0260483 -0.00850587 0
-0.0213794 -0.00817937 0
-0.0165847 -0.00716029 0
-0.0119612 -0.00553617 0
-0.00776537 -0.00346508 0
-0.00417974 -0.001166 0
-0.0022069 0.00107716 0
-0.000922136 0.00290136 0
0.000637178 0.00495895 0
0.00161214 0.00691171 0
0.00208666 0.00861864 0
0.00215626 0.0100214 0
0.00191669 0.0110939 0
0.00146125 0.0118204 0
0.000881895 0.012184 0
0.000271776 0.0121586 0
-0.000272035 0.0116988 0
-0.000648089 0.0107238 0
-0.000760783 0.00909054 0
-0.00056535 0.00655608 0
-0.000195204 0.00275957 0
-0.000117117 -0.00227586 0
-0.000450301 -0.0056044 0
-0.000900758 -0.00781099 0
-0.00137305 -0.00905994 0
-0.00187743 -0.00954612 0
-0.0024787 -0.00943719 0
-0.00325698 -0.00886478 0
-0.00428806 -0.00792956 0
-0.00563644 -0.00670653 0
-0.00735474 -0.00524604 0
-0.00948506 -0.00356699 0
-0.0104787 -0.00163597 0
-0.0118952 0.000651312 0
-0.0152947 0.00243606 0
-0.0190927 0.00389867 0
-0.023242 0.00510893 0
-0.0276745 0.00605909 0
-0.0322955 0.00669661 0
-0.0369751 0.00694869 0
-0.0415433 0.0067421 0
-0.0457907 0.00602088 0
-0.049479 0.00476245 0
-0.052357 0.00299064 0
-0.0542496 0.00078025 0
-0.0548806 -0.0017874 0
-0.0540521 -0.00441725 0
-0.0518014 -0.00689596 0
-0.0481946 -0.00899996 0
-0.0433973 -0.0105153 0
-0.0376722 -0.0112712 0
-0.0313578 -0.0111696 0
-0.0248352 -0.0102033 0
-0.0184852 -0.00846207 0
-0.0126445 -0.00612593 0
-0.00756538 -0.00345511 0
-0.00474507 -0.00078779 0
-0.00287186 0.00147218 0
-0.000540487 0.00394699 0
0.00100284 0.00628529 0
0.0018761 0.00833401 0
0.00220298 0.010028 0
0.00210878 0.0113353 0
0.00171899 0.0122331 0
0.00115878 0.012695 0
0.000552244 0.0126827 0
1.92401e-05 0.0121372 0
-0.000334315 0.0109696 0
-0.000439859 0.00905476 0
-0.000310726 0.00624207 0
-9.80219e-05 0.00242335 0
-8.39432e-05 -0.00203093 0
-0.000381467 -0.0051091 0
-0.000899009 -0.00722321 0
-0.00158083 -0.00842287 0
-0.00242054 -0.00883201 0
-0.00345575 -0.00859298 0
-0.00474858 -0.00783838 0
-0.00636872 -0.00668026 0
-0.00838286 -0.00520676 0
-0.0108493 -0.00347979 0
-0.0138132 -0.001529 0
-0.0152224 0.000661182 0
-0.017119 0.00314914 0
-0.0215636 0.00514353 0
-0.0264914 0.00678649 0
-0.0318556 0.00813191 0
-0.0375673 0.00915951 0
-0.0434962 0.00980081 0
-0.0494659 0.00996407 0
-0.0552513 0.00955709 0
-0.060584 0.00850847 0
-0.065165 0.00678735 0
-0.0686865 0.00441927 0
-0.0709867 0.00149282 0
-0.0717166 -0.00187792 0
-0.0706248 -0.00534847 0
-0.0678103 -0.00866344 0
-0.0633488 -0.0115516 0
-0.0574305 -0.0137455 0
-0.0503559 -0.0150241 0
-0.0425151 -0.0152493 0
-0.0343514 -0.0143909 0
-0.0263166 -0.0125371 0
-0.0188218 -0.00988997 0
-0.0121938 -0.00675398 0
-0.00849392 -0.00352409 0
-0.00598045 -0.000651633 0
-0.00275317 0.0023867 0
-0.000501452 0.00523658 0
0.000923214 0.00774018 0
0.00166655 0.00982483 0
0.00187647 0.011449 0
0.00170339 0.0125787 0
0.00129705 0.0131758 0
0.000800872 0.0131917 0
0.000342653 0.0125633 0
1.99135e-05 0.011214 0
-0.000120896 0.00906523 0
-0.000105453 0.00606788 0
-3.34817e-05 0.00226459 0
-7.80879e-05 -0.00182186 0
-0.000391701 -0.00456187 0
-0.00101301 -0.00642871 0
-0.00192899 -0.00743307 0
-0.00313929 -0.00765295 0
-0.00466703 -0.00720165 0
-0.00655593 -0.00620099 0
-0.00886185 -0.00476432 0
-0.0116442 -0.00298706 0
-0.014958 -0.000941346 0
-0.0188452 0.00132898 0
-0.0207159 0.00381433 0
-0.023128 0.00652299 0
-0.0286734 0.00876205 0
-0.0347719 0.0106252 0
-0.0413755 0.0121354 0
-0.0483755 0.0132487 0
-0.0556059 0.0138739 0
-0.0628445 0.0138958 0
-0.0698142 0.0132008 0
-0.0761931 0.0117017 0
-0.0816313 0.00936088 0
-0.0857767 0.00621005 0
-0.08847 0.0023604 0
-0.0893127 -0.00202227 0
-0.0880289 -0.006536 0
-0.0847615 -0.0108922 0
-0.0795826 -0.0147644 0
-0.072689 -0.0178226 0
-0.0644007 -0.019786 0
-0.0551406 -0.0204671 0
-0.0454 -0.0198035 0
-0.0356929 -0.0178737 0
-0.0265047 -0.0148975 0
-0.018244 -0.0112211 0
-0.0136203 -0.0072962 0
-0.0104021 -0.00362911 0
-0.00612572 0.000117314 0
-0.0029975 0.00360297 0
-0.000846491 0.00667581 0
0.000486311 0.00925602 0
0.00116321 0.0112886 0
0.00135155 0.012725 0
0.00121741 0.0135156 0
0.000915484 0.0136065 0
0.000576592 0.0129414 0
0.000294315 0.0114699 0
0.000113813 0.00916462 0
2.99772e-05 0.00604898 0
4.30274e-06 0.0022282 0
-9.04308e-05 -0.00159213 0
-0.000467062 -0.00389132 0
-0.00124638 -0.00536214 0
-0.00244435 -0.00601591 0
-0.00407193 -0.00591152 0
-0.00614692 -0.00514111 0
-0.00869896 -0.00381201 0
-0.0117686 -0.00203122 0
-0.0154026 0.000105137 0
-0.0196467 0.00251793 0
-0.0245342 0.00514811 0
-0.0269042 0.00795702 0
-0.0298638 0.0109008 0
-0.0365667 0.0134126 0
-0.0438804 0.0155271 0
-0.0517523 0.0172223 0
-0.060053 0.0184195 0
-0.0685826 0.0189972 0
-0.0770765 0.0188131 0
-0.0852122 0.017731 0
-0.0926234 0.0156492 0
-0.0989211 0.0125271 0
-0.103722 0.00840737 0
-0.106822 0.00343088 0
-0.107822 -0.00217817 0
-0.106478 -0.00793009 0
-0.10292 -0.0135337 0
-0.0971995 -0.0186004 0
-0.0895006 -0.0227293 0
-0.0801434 -0.02557 0
-0.0695667 -0.026874 0
-0.0582969 -0.0265337 0
-0.0469049 -0.0246061 0
-0.035953 -0.0213171 0
-0.0259412 -0.0170481 0
-0.020331 -0.0123051 0
-0.0163254 -0.00765828 0
-0.0108108 -0.00306525 0
-0.00660339 0.0011789 0
-0.00352322 0.00494106 0
-0.00140977 0.00813411 0
-9.51122e-05 0.010685 0
0.000598457 0.0125274 0
0.000848628 0.0136004 0
0.000819547 0.0138497 0
0.000648743 0.0132319 0
0.000437356 0.0117254 0
0.000246813 0.00934352 0
0.000105208 0.00615032 0
2.42215e-05 0.00226771 0
-0.00011524 -0.00129697 0
-0.000593308 -0.00301377 0
-0.00158593 -0.00392936 0
-0.00312342 -0.00407119 0
-0.00522386 -0.00349636 0
-0.00790204 -0.00228556 0
-0.0111767 -0.000532585 0
-0.0150738 0.00166621 0
-0.0196259 0.00421959 0
-0.024866 0.00704533 0
-0.0308157 0.0100702 0
-0.033714 0.0132254 0
-0.0372478 0.0164156 0
-0.0451597 0.0192226 0
-0.053731 0.0216104 0
-0.0628994 0.0234999 0
-0.0725142 0.0247676 0
-0.0823447 0.0252555 0
-0.0920902 0.0247915 0
-0.101392 0.0232173 0
-0.109851 0.0204197 0
-0.117052 0.016359 0
-0.122591 0.0110935 0
-0.126138 0.00479596 0
-0.127371 -0.00225595 0
-0.12616 -0.00943405 0
-0.122527 -0.0164968 0
-0.116482 -0.0229859 0
-0.108179 -0.0284211 0
-0.0979177 -0.0323724 0
-0.0861357 -0.0345162 0
-0.0733824 -0.0346826 0
-0.0602798 -0.0328883 0
-0.0474696 -0.0293488 0
-0.0355543 -0.0244671 0
-0.0288759 -0.0187989 0
-0.0239785 -0.0129866 0
-0.0169912 -0.00741986 0
-0.0114585 -0.00229489 0
-0.00721118 0.00228892 0
-0.00410156 0.00623369 0
-0.00196413 0.009441 0
-0.000614484 0.0118218 0
0.000136432 0.0133026 0
0.000465775 0.0138295 0
0.00052563 0.013373 0
0.00043584 0.0119349 0
0.000284099 0.00955604 0
0.000133106 0.00631988 0
3.2198e-05 0.00234872 0
-0.000149137 -0.000898758 0
-0.000759411 -0.00184466 0
-0.00201483 -0.00202292 0
-0.00394864 -0.00148119 0
-0.00657881 -0.000282902 0
-0.00991473 0.00149653 0
-0.0139646 0.00377531 0
-0.0187407 0.00647032 0
-0.0242612 0.0094997 0
-0.0305452 0.0127821 0
-0.0376021 0.0162323 0
-0.0410483 0.019753 0
-0.0451756 0.0231999 0
-0.0543379 0.02632 0
-0.0642007 0.0289941 0
-0.074688 0.0310761 0
-0.0856279 0.0323901 0
-0.0967634 0.0327373 0
-0.107766 0.0319147 0
-0.118251 0.0297444 0
-0.127802 0.0261052 0
-0.135987 0.0209626 0
-0.142393 0.014392 0
-0.146442 0.00659452 0
-0.148008 -0.00211126 0
-0.147181 -0.0108988 0
-0.143736 -0.0196425 0
-0.137626 -0.0278038 0
-0.128956 -0.0348165 0
-0.11799 -0.0401607 0
-0.105144 -0.0434218 0
-0.0909742 -0.0443462 0
-0.0761452 -0.0428855 0
-0.0613768 -0.0392198 0
-0.0473828 -0.033754 0
-0.0395428 -0.0270817 0
-0.0336267 -0.0199237 0
-0.0248775 -0.0132745 0
-0.0177208 -0.00714405 0
-0.0120255 -0.00158515 0
-0.00767321 0.00328277 0
-0.0045069 0.0073233 0
-0.00233565 0.010416 0
-0.000955328 0.0124703 0
-0.000169022 0.0134298 0
0.000198674 0.0132751 0
0.000294831 0.0120247 0
0.000238249 0.00973614 0
0.000124347 0.00650258 0
3.18705e-05 0.00244492 0
-0.000189907 -0.000364095 0
-0.000956593 -0.000302794 0
-0.00251578 0.000467246 0
-0.00489529 0.00187847 0
-0.00810586 0.00385933 0
-0.0121471 0.00633818 0
-0.0170148 0.00924581 0
-0.0227078 0.0125152 0
-0.0292299 0.0160781 0
-0.0365872 0.0198581 0
-0.0447773 0.0237612 0
-0.0487805 0.0276641 0
-0.0535121 0.0313793 0
-0.0639502 0.0348265 0
-0.075124 0.0377916 0
-0.0869411 0.0400539 0
-0.0992094 0.0413811 0
-0.111651 0.0415317 0
-0.12392 0.0402732 0
-0.135619 0.0374108 0
-0.146321 0.0328197 0
-0.155594 0.0264729 0
-0.163017 0.0184616 0
-0.167629 0.00900753 0
-0.16964 -0.00154572 0
-0.169483 -0.0121248 0
-0.166522 -0.0227829 0
-0.160641 -0.0328874 0
-0.151887 -0.0417841 0
-0.140467 -0.0488545 0
-0.126757 -0.0535771 0
-0.111296 -0.0555906 0
-0.0947717 -0.0547507 0
-0.0779739 -0.0511687 0
-0.061729 -0.0452202 0
-0.0526403 -0.0375163 0
-0.045561 -0.0288535 0
-0.034699 -0.0210409 0
-0.0255605 -0.0137731 0
-0.0180891 -0.00705348 0
-0.0122118 -0.00104633 0
-0.00778382 0.00405354 0
-0.00460489 0.0080808 0
-0.00244948 0.0109194 0
-0.00109278 0.012505 0
-0.000327795 0.0128223 0
2.62735e-05 0.0119004 0
0.00012225 0.00980776 0
8.71447e-05 0.00664484 0
2.55955e-05 0.00253508 0
-0.000235753 0.000337097 0
-0.00117685 0.00168687 0
-0.00307063 0.00364572 0
-0.00593339 0.00612807 0
-0.00976259 0.00905639 0
-0.0145435 0.0123655 0
-0.0202571 0.0160023 0
-0.0268876 0.0199206 0
-0.0344253 0.0240705 0
-0.0428642 0.0283852 0
-0.0521917 0.0327657 0
-0.0567503 0.0370667 0
-0.0620858 0.041064 0
-0.0738036 0.0448487 0
-0.086287 0.0481015 0
-0.0994255 0.0505238 0
-0.11301 0.051825 0
-0.126748 0.0517223 0
-0.140285 0.0499565 0
-0.153221 0.0463199 0
-0.16513 0.0406869 0
-0.175585 0.0330387 0
-0.184166 0.0234792 0
-0.189385 0.012241 0
-0.191948 -0.000320002 0
-0.192753 -0.0128743 0
-0.19058 -0.0256856 0
-0.185249 -0.0380161 0
-0.176742 -0.049128 0
-0.165191 -0.0583006 0
-0.150904 -0.0648934 0
-0.134376 -0.0684135 0
-0.116287 -0.0685857 0
-0.0974688 -0.0654099 0
-0.0788498 -0.0591889 0
-0.0684628 -0.0505144 0
-0.0600702 -0.0402422 0
-0.0466861 -0.0312248 0
-0.0351525 -0.0226729 0
-0.0255315 -0.014563 0
-0.0178105 -0.00714437 0
-0.0118584 -0.000699642 0
-0.00746116 0.00454233 0
-0.0043648 0.00842827 0
-0.00230858 0.0108779 0
-0.00104633 0.0118742 0
-0.000357833 0.0114524 0
-5.30829e-05 0.00968975 0
2.75555e-05 0.00669555 0
1.49708e-05 0.00260138 0
-0.00028487 0.00123094 0
-0.00141173 0.00418962 0
-0.00365906 0.00760404 0
-0.0070272 0.0113732 0
-0.0114958 0.0154184 0
-0.0170318 0.0196866 0
-0.0235991 0.0241478 0
-0.0311663 0.0287832 0
-0.0397107 0.0335679 0
-0.0492152 0.0384496 0
-0.0596592 0.0433289 0
-0.0647595 0.0480434 0
-0.0706855 0.0523394 0
-0.0836584 0.0564675 0
-0.0974207 0.0599976 0
-0.111844 0.0625522 0
-0.126704 0.0637849 0
-0.141703 0.0633743 0
-0.156483 0.0610384 0
-0.170648 0.0565604 0
-0.183782 0.0498159 0
-0.195467 0.0407941 0
-0.205289 0.0296081 0
-0.211123 0.016495 0
-0.214314 0.00181747 0
-0.216335 -0.0128959 0
-0.215231 -0.0280878 0
-0.210778 -0.042917 0
-0.20289 -0.0565758 0
-0.191611 -0.0682471 0
-0.177154 -0.0771666 0
-0.15993 -0.0826917 0
-0.140562 -0.0843818 0
-0.119881 -0.0820757 0
-0.0988813 -0.0759454 0
-0.0872302 -0.0665065 0
-0.0773931 -0.054633 0
-0.0610419 -0.0444192 0
-0.0466659 -0.0344152 0
-0.0344915 -0.0246341 0
-0.0245779 -0.0154688 0
-0.0168092 -0.00732704 0
-0.0109553 -0.000524858 0
-0.00672878 0.00473194 0
-0.00382607 0.00833722 0
-0.00195515 0.0102662 0
-0.000850656 0.0105573 0
-0.000281034 0.00929658 0
-5.06243e-05 0.00660511 0
9.92631e-07 0.00262825 0
-0.000335207 0.0023379 0
-0.00165159 0.00725596 0
-0.00425749 0.0124124 0
-0.00813439 0.0176941 0
-0.0132411 0.0230272 0
-0.0195239 0.0283796 0
-0.0269276 0.0337534 0
-0.0354047 0.0391665 0
-0.0449195 0.0446263 0
-0.0554456 0.0501017 0
-0.0669558 0.0554979 0
-0.0725705 0.0606405 0
-0.0790578 0.0652535 0
-0.0932248 0.0697254 0
-0.108197 0.0735142 0
-0.123827 0.076167 0
-0.139881 0.0772852 0
-0.156058 0.0765137 0
-0.172002 0.0735517 0
-0.187326 0.0681761 0
-0.201625 0.0602658 0
-0.214496 0.0498183 0
-0.225543 0.036956 0
-0.23194 0.0219208 0
-0.235784 0.0050855 0
-0.239182 -0.0119603 0
-0.239366 -0.0297202 0
-0.236095 -0.047277 0
-0.229222 -0.0637764 0
-0.218695 -0.0783235 0
-0.204604 -0.0900392 0
-0.18723 -0.0981246 0
-0.167081 -0.101947 0
-0.144916 -0.101133 0
-0.121732 -0.0956558 0
-0.108993 -0.0858764 0
-0.0976405 -0.0726114 0
-0.0779 -0.0612665 0
-0.0602519 -0.0496231 0
-0.0451213 -0.0378463 0
-0.0326496 -0.0265413 0
-0.0227448 -0.0162834 0
-0.0151658 -0.00750516 0
-0.0095917 -0.000485018 0
-0.00567302 0.00463194 0
-0.00306637 0.00780574 0
-0.0014553 0.00907501 0
-0.000561019 0.00853533 0
-0.000146376 0.00632265 0
-1.5987e-05 0.00260094 0
-0.000384347 0.00367031 0
-0.00188511 0.0109154 0
-0.00483838 0.0181105 0
-0.00920562 0.0251338 0
-0.0149236 0.031924 0
-0.0219167 0.0384798 0
-0.0301102 0.0448465 0
-0.0394401 0.051089 0
-0.0498582 0.0572564 0
-0.0613293 0.0633457 0
-0.0738213 0.0692725 0
-0.0799082 0.0748555 0
-0.0869087 0.0798034 0
-0.102164 0.0846107 0
-0.118226 0.0886297 0
-0.134932 0.0913376 0
-0.152039 0.0922895 0
-0.169243 0.0911009 0
-0.186192 0.087456 0
-0.202508 0.0811285 0
-0.2178 0.0720036 0
-0.231684 0.0600911 0
-0.243796 0.0455284 0
-0.250637 0.028571 0
-0.255082 0.00961352 0
-0.259879 -0.00990372 0
-0.261463 -0.0303425 0
-0.259616 -0.0507693 0
-0.254139 -0.0703153 0
-0.244886 -0.0880412 0
-0.231805 -0.10298 0
-0.215004 -0.114189 0
-0.194809 -0.120832 0
-0.171823 -0.122286 0
-0.146947 -0.118253 0
-0.133496 -0.108849 0
-0.12068 -0.0947166 0
-0.0972616 -0.0823677 0
-0.0760167 -0.0689096 0
-0.05758 -0.0548051 0
-0.0421931 -0.0409356 0
-0.0298137 -0.0280883 0
-0.0202098 -0.0168491 0
-0.0130377 -0.00759791 0
-0.00790441 -0.000538249 0
-0.00441242 0.00426337 0
-0.00218866 0.0068409 0
-0.000900393 0.00729899 0
-0.000262058 0.00579103 0
-3.63626e-05 0.00250345 0
-0.000429493 0.00522952 0
-0.00209935 0.0151695 0
-0.00537049 0.0246978 0
-0.0101852 0.0336875 0
-0.0164588 0.0420975 0
-0.0240947 0.0499679 0
-0.0329987 0.0573988 0
-0.0430909 0.0645135 0
-0.0543107 0.0714124 0
-0.0666144 0.0781284 0
-0.0799653 0.084593 0
-0.0864659 0.090624 0
-0.0939097 0.0959198 0
-0.110093 0.101041 0
-0.127067 0.105248 0
-0.144652 0.107955 0
-0.162595 0.108676 0
-0.180588 0.107002 0
-0.198281 0.102605 0
-0.215304 0.095261 0
-0.231282 0.0848672 0
-0.245861 0.0714549 0
-0.258723 0.0551893 0
-0.265818 0.0363555 0
-0.270725 0.015385 0
-0.276766 -0.00667267 0
-0.279723 -0.0297877 0
-0.279429 -0.0530979 0
-0.275659 -0.0757561 0
-0.268181 -0.0968267 0
-0.256799 -0.115301 0
-0.24142 -0.130128 0
-0.22213 -0.140285 0
-0.199287 -0.144885 0
-0.173579 -0.143307 0
-0.160021 -0.135325 0
-0.145986 -0.12127 0
-0.118904 -0.108129 0
-0.0939629 -0.0927756 0
-0.0719955 -0.0760841 0
-0.0533854 -0.0592498 0
-0.0381938 -0.0433175 0
-0.0262406 -0.0290765 0
-0.0171857 -0.017051 0
-0.0106047 -0.00753444 0
-0.00604819 -0.000639165 0
-0.00308274 0.00365435 0
-0.00131512 0.00545684 0
-0.000403631 0.00494005 0
-6.13145e-05 0.0023157 0
-0.000467559 0.00700304 0
-0.00228014 0.0199855 0
-0.00581988 0.0321246 0
-0.0110129 0.0432919 0
-0.0177563 0.0534732 0
-0.0259345 0.0627594 0
-0.0354357 0.0713165 0
-0.0461644 0.0793369 0
-0.0580479 0.0869822 0
-0.0710335 0.0943283 0
-0.085079 0.101329 0
-0.0919173 0.107807 0
-0.0997106 0.113452 0
-0.116602 0.118849 0
-0.134245 0.123181 0
-0.152438 0.12581 0
-0.170917 0.126215 0
-0.189367 0.123964 0
-0.207437 0.118724 0
-0.224764 0.110278 0
-0.240995 0.0985463 0
-0.255815 0.083598 0
-0.268968 0.0656436 0
-0.276072 0.0450173 0
-0.281223 0.0221996 0
-0.288175 -0.0023562 0
-0.292318 -0.0280069 0
-0.293557 -0.0540529 0
-0.291666 -0.0797063 0
-0.286358 -0.104093 0
-0.277309 -0.126224 0
-0.264221 -0.145002 0
-0.24691 -0.159269 0
-0.225416 -0.167891 0
-0.200103 -0.169909 0
-0.187239 -0.164694 0
-0.17249 -0.152115 0
-0.142256 -0.138558 0
-0.11388 -0.121471 0
-0.0883766 -0.102131 0
-0.0663497 -0.082048 0
-0.0480509 -0.0625726 0
-0.0334221 -0.0447651 0
-0.0221747 -0.0293588 0
-0.0138796 -0.0167867 0
-0.0080463 -0.00724028 0
-0.00418213 -0.000732909 0
-0.00182844 0.002844 0
-0.000580129 0.00367888 0
-9.26943e-05 0.00201048 0
-0.000495373 0.0089623 0
-0.00241299 0.0252905 0
-0.00615197 0.0402854 0
-0.0116278 0.0538181 0
-0.0187245 0.0659059 0
-0.0273118 0.0766973 0
-0.0372626 0.0864328 0
-0.0484673 0.0953835 0
-0.0608404 0.10378 0
-0.0743189 0.111749 0
-0.0888528 0.119273 0
-0.0959354 0.12618 0
-0.10396 0.13216 0
-0.121283 0.137769 0
-0.139285 0.142139 0
-0.157745 0.144589 0
-0.176383 0.144562 0
-0.194875 0.141613 0
-0.212867 0.135407 0
-0.230006 0.125748 0
-0.245968 0.112594 0
-0.260488 0.0960711 0
-0.273383 0.0764544 0
-0.280226 0.0541449 0
-0.285351 0.0296766 0
-0.292741 0.00280702 0
-0.297738 -0.025098 0
-0.300323 -0.0535628 0
-0.300301 -0.0818955 0
-0.297368 -0.109341 0
-0.291109 -0.135 0
-0.281052 -0.157811 0
-0.266753 -0.176555 0
-0.247908 -0.189925 0
-0.224483 -0.196652 0
-0.213194 -0.195693 0