# vtk DataFile Version 2.0
Presion
ASCII

DATASET STRUCTURED_GRID
DIMENSIONS   50   50   20

POINTS   50000   double
0.00568455   0.00568455   0.025
0.0174023   0.00568455   0.025
0.0298294   0.00568455   0.025
0.0429888   0.00568455   0.025
0.0569012   0.00568455   0.025
0.0715849   0.00568455   0.025
0.0870549   0.00568455   0.025
0.103323   0.00568455   0.025
0.120395   0.00568455   0.025
0.138275   0.00568455   0.025
0.156961   0.00568455   0.025
0.176443   0.00568455   0.025
0.196707   0.00568455   0.025
0.217734   0.00568455   0.025
0.239496   0.00568455   0.025
0.261959   0.00568455   0.025
0.285082   0.00568455   0.025
0.308818   0.00568455   0.025
0.333113   0.00568455   0.025
0.357906   0.00568455   0.025
0.383132   0.00568455   0.025
0.408719   0.00568455   0.025
0.434592   0.00568455   0.025
0.460672   0.00568455   0.025
0.486877   0.00568455   0.025
0.513123   0.00568455   0.025
0.539328   0.00568455   0.025
0.565408   0.00568455   0.025
0.591281   0.00568455   0.025
0.616868   0.00568455   0.025
0.642094   0.00568455   0.025
0.666887   0.00568455   0.025
0.691182   0.00568455   0.025
0.714918   0.00568455   0.025
0.738041   0.00568455   0.025
0.760504   0.00568455   0.025
0.782266   0.00568455   0.025
0.803293   0.00568455   0.025
0.823557   0.00568455   0.025
0.843039   0.00568455   0.025
0.861725   0.00568455   0.025
0.879605   0.00568455   0.025
0.896677   0.00568455   0.025
0.912945   0.00568455   0.025
0.928415   0.00568455   0.025
0.943099   0.00568455   0.025
0.957011   0.00568455   0.025
0.970171   0.00568455   0.025
0.982598   0.00568455   0.025
0.994315   0.00568455   0.025
0.00568455   0.0174023   0.025
0.0174023   0.0174023   0.025
0.0298294   0.0174023   0.025
0.0429888   0.0174023   0.025
0.0569012   0.0174023   0.025
0.0715849   0.0174023   0.025
0.0870549   0.0174023   0.025
0.103323   0.0174023   0.025
0.120395   0.0174023   0.025
0.138275   0.0174023   0.025
0.156961   0.0174023   0.025
0.176443   0.0174023   0.025
0.196707   0.0174023   0.025
0.217734   0.0174023   0.025
0.239496   0.0174023   0.025
0.261959   0.0174023   0.025
0.285082   0.0174023   0.025
0.308818   0.0174023   0.025
0.333113   0.0174023   0.025
0.357906   0.0174023   0.025
0.383132   0.0174023   0.025
0.408719   0.0174023   0.025
0.434592   0.0174023   0.025
0.460672   0.0174023   0.025
0.486877   0.0174023   0.025
0.513123   0.0174023   0.025
0.539328   0.0174023   0.025
0.565408   0.0174023   0.025
0.591281   0.0174023   0.025
0.616868   0.0174023   0.025
0.642094   0.0174023   0.025
0.666887   0.0174023   0.025
0.691182   0.0174023   0.025
0.714918   0.0174023   0.025
0.738041   0.0174023   0.025
0.760504   0.0174023   0.025
0.782266   0.0174023   0.025
0.803293   0.0174023   0.025
0.823557   0.0174023   0.025
0.843039   0.0174023   0.025
0.861725   0.0174023   0.025
0.879605   0.0174023   0.025
0.896677   0.0174023   0.025
0.912945   0.0174023   0.025
0.928415   0.0174023   0.025
0.943099   0.0174023   0.025
0.957011   0.0174023   0.025
0.970171   0.0174023   0.025
0.982598   0.0174023   0.025
0.994315   0.0174023   0.025
0.00568455   0.0298294   0.025
0.0174023   0.0298294   0.025
0.0298294   0.0298294   0.025
0.0429888   0.0298294   0.025
0.0569012   0.0298294   0.025
0.0715849   0.0298294   0.025
0.0870549   0.0298294   0.025
0.103323   0.0298294   0.025
0.120395   0.0298294   0.025
0.138275   0.0298294   0.025
0.156961   0.0298294   0.025
0.176443   0.0298294   0.025
0.196707   0.0298294   0.025
0.217734   0.0298294   0.025
0.239496   0.0298294   0.025
0.261959   0.0298294   0.025
0.285082   0.0298294   0.025
0.308818   0.0298294   0.025
0.333113   0.0298294   0.025
0.357906   0.0298294   0.025
0.383132   0.0298294   0.025
0.408719   0.0298294   0.025
0.434592   0.0298294   0.025
0.460672   0.0298294   0.025
0.486877   0.0298294   0.025
0.513123   0.0298294   0.025
0.539328   0.0298294   0.025
0.565408   0.0298294   0.025
0.591281   0.0298294   0.025
0.616868   0.0298294   0.025
0.642094   0.0298294   0.025
0.666887   0.0298294   0.025
0.691182   0.0298294   0.025
0.714918   0.0298294   0.025
0.738041   0.0298294   0.025
0.760504   0.0298294   0.025
0.782266   0.0298294   0.025
0.803293   0.0298294   0.025
0.823557   0.0298294   0.025
0.843039   0.0298294   0.025
0.861725   0.0298294   0.025
0.879605   0.0298294   0.025
0.896677   0.0298294   0.025
0.912945   0.0298294   0.025
0.928415   0.0298294   0.025
0.943099   0.0298294   0.025
0.957011   0.0298294   0.025
0.970171   0.0298294   0.025
0.982598   0.0298294   0.025
0.994315   0.0298294   0.025
0.00568455   0.0429888   0.025
0.0174023   0.0429888   0.025
0.0298294   0.0429888   0.025
0.0429888   0.0429888   0.025
0.0569012   0.0429888   0.025
0.0715849   0.0429888   0.025
0.0870549   0.0429888   0.025
0.103323   0.0429888   0.025
0.120395   0.0429888   0.025
0.138275   0.0429888   0.025
0.156961   0.0429888   0.025
0.176443   0.0429888   0.025
0.196707   0.0429888   0.025
0.217734   0.0429888   0.025
0.239496   0.0429888   0.025
0.261959   0.0429888   0.025
0.285082   0.0429888   0.025
0.308818   0.0429888   0.025
0.333113   0.0429888   0.025
0.357906   0.0429888   0.025
0.383132   0.0429888   0.025
0.408719   0.0429888   0.025
0.434592   0.0429888   0.025
0.460672   0.0429888   0.025
0.486877   0.0429888   0.025
0.513123   0.0429888   0.025
0.539328   0.0429888   0.025
0.565408   0.0429888   0.025
0.591281   0.0429888   0.025
0.616868   0.0429888   0.025
0.642094   0.0429888   0.025
0.666887   0.0429888   0.025
0.691182   0.0429888   0.025
0.714918   0.0429888   0.025
0.738041   0.0429888   0.025
0.760504   0.0429888   0.025
0.782266   0.0429888   0.025
0.803293   0.0429888   0.025
0.823557   0.0429888   0.025
0.843039   0.0429888   0.025
0.861725   0.0429888   0.025
0.879605   0.0429888   0.025
0.896677   0.0429888   0.025
0.912945   0.0429888   0.025
0.928415   0.0429888   0.025
0.943099   0.0429888   0.025
0.957011   0.0429888   0.025
0.970171   0.0429888   0.025
0.982598   0.0429888   0.025
0.994315   0.0429888   0.025
0.00568455   0.0569012   0.025
0.0174023   0.0569012   0.025
0.0298294   0.0569012   0.025
0.0429888   0.0569012   0.025
0.0569012   0.0569012   0.025
0.0715849   0.0569012   0.025
0.0870549   0.0569012   0.025
0.103323   0.0569012   0.025
0.120395   0.0569012   0.025
0.138275   0.0569012   0.025
0.156961   0.0569012   0.025
0.176443   0.0569012   0.025
0.196707   0.0569012   0.025
0.217734   0.0569012   0.025
0.239496   0.0569012   0.025
0.261959   0.0569012   0.025
0.285082   0.0569012   0.025
0.308818   0.0569012   0.025
0.333113   0.0569012   0.025
0.357906   0.0569012   0.025
0.383132   0.0569012   0.025
0.408719   0.0569012   0.025
0.434592   0.0569012   0.025
0.460672   0.0569012   0.025
0.486877   0.0569012   0.025
0.513123   0.0569012   0.025
0.539328   0.0569012   0.025
0.565408   0.0569012   0.025
0.591281   0.0569012   0.025
0.616868   0.0569012   0.025
0.642094   0.0569012   0.025
0.666887   0.0569012   0.025
0.691182   0.0569012   0.025
0.714918   0.0569012   0.025
0.738041   0.0569012   0.025
0.760504   0.0569012   0.025
0.782266   0.0569012   0.025
0.803293   0.0569012   0.025
0.823557   0.0569012   0.025
0.843039   0.0569012   0.025
0.861725   0.0569012   0.025
0.879605   0.0569012   0.025
0.896677   0.0569012   0.025
0.912945   0.0569012   0.025
0.928415   0.0569012   0.025
0.943099   0.0569012   0.025
0.957011   0.0569012   0.025
0.970171   0.0569012   0.025
0.982598   0.0569012   0.025
0.994315   0.0569012   0.025
0.00568455   0.0715849   0.025
0.0174023   0.0715849   0.025
0.0298294   0.0715849   0.025
0.0429888   0.0715849   0.025
0.0569012   0.0715849   0.025
0.0715849   0.0715849   0.025
0.0870549   0.0715849   0.025
0.103323   0.0715849   0.025
0.120395   0.0715849   0.025
0.138275   0.0715849   0.025
0.156961   0.0715849   0.025
0.176443   0.0715849   0.025
0.196707   0.0715849   0.025
0.217734   0.0715849   0.025
0.239496   0.0715849   0.025
0.261959   0.0715849   0.025
0.285082   0.0715849   0.025
0.308818   0.0715849   0.025
0.333113   0.0715849   0.025
0.357906   0.0715849   0.025
0.383132   0.0715849   0.025
0.408719   0.0715849   0.025
0.434592   0.0715849   0.025
0.460672   0.0715849   0.025
0.486877   0.0715849   0.025
0.513123   0.0715849   0.025
0.539328   0.0715849   0.025
0.565408   0.0715849   0.025
0.591281   0.0715849   0.025
0.616868   0.0715849   0.025
0.642094   0.0715849   0.025
0.666887   0.0715849   0.025
0.691182   0.0715849   0.025
0.714918   0.0715849   0.025
0.738041   0.0715849   0.025
0.760504   0.0715849   0.025
0.782266   0.0715849   0.025
0.803293   0.0715849   0.025
0.823557   0.0715849   0.025
0.843039   0.0715849   0.025
0.861725   0.0715849   0.025
0.879605   0.0715849   0.025
0.896677   0.0715849   0.025
0.912945   0.0715849   0.025
0.928415   0.0715849   0.025
0.943099   0.0715849   0.025
0.957011   0.0715849   0.025
0.970171   0.0715849   0.025
0.982598   0.0715849   0.025
0.994315   0.0715849   0.025
0.00568455   0.0870549   0.025
0.0174023   0.0870549   0.025
0.0298294   0.0870549   0.025
0.0429888   0.0870549   0.025
0.0569012   0.0870549   0.025
0.0715849   0.0870549   0.025
0.0870549   0.0870549   0.025
0.103323   0.0870549   0.025
0.120395   0.0870549   0.025
0.138275   0.0870549   0.025
0.156961   0.0870549   0.025
0.176443   0.0870549   0.025
0.196707   0.0870549   0.025
0.217734   0.0870549   0.025
0.239496   0.0870549   0.025
0.261959   0.0870549   0.025
0.285082   0.0870549   0.025
0.308818   0.0870549   0.025
0.333113   0.0870549   0.025
0.357906   0.0870549   0.025
0.383132   0.0870549   0.025
0.408719   0.0870549   0.025
0.434592   0.0870549   0.025
0.460672   0.0870549   0.025
0.486877   0.0870549   0.025
0.513123   0.0870549   0.025
0.539328   0.0870549   0.025
0.565408   0.0870549   0.025
0.591281   0.0870549   0.025
0.616868   0.0870549   0.025
0.642094   0.0870549   0.025
0.666887   0.0870549   0.025
0.691182   0.0870549   0.025
0.714918   0.0870549   0.025
0.738041   0.0870549   0.025
0.760504   0.0870549   0.025
0.782266   0.0870549   0.025
[...]
POINT_DATA   50000
SCALARS Presion double
LOOKUP_TABLE   Presion

0 0 0 0 0 0 0 0 0 0 0 0 0 0 0 0 0 0 0 0 0 0 0 0 0 0 0 0 0 0 0 0 0 0 0 0 0 0 0 0 0 0 0 0 0 0 0 0 0 0 0.00111859 0.00121429 0.00132728 0.00140549 0.00144061 0.00143478 0.00139219 0.001317 0.00121269 0.00108172 0.000925327 0.000742989 0.000412396 0.00023457 8.44292e-05 -3.84633e-05 -0.000132494 -0.000193499 -0.000215961 -0.000194665 -0.000126451 -1.17507e-05 0.000144552 0.000333034 0.00053653 0.000729444 0.000890564 0.000999085 0.00103834 0.000997561 0.000873373 0.000670456 0.000401379 8.56263e-05 -0.000252055 -0.000582994 -0.000797345 -0.00110682 -0.00139704 -0.00165233 -0.00186286 -0.00202306 -0.00213007 -0.00218252 -0.00217988 -0.00212197 -0.0020092 -0.00184494 -0.00164663 -0.00149182 0.00147998 0.00146901 0.00149679 0.00152395 0.00153169 0.0015129 0.00146604 0.00139194 0.00129233 0.00116915 0.00102474 0.000860678 0.000477386 0.000319246 0.000178748 5.96364e-05 -3.45476e-05 -9.90314e-05 -0.000128304 -0.000117375 -6.32786e-05 3.35247e-05 0.000168249 0.000330409 0.00051286 0.000681031 0.000818777 0.000906482 0.000928528 0.000874974 0.000742932 0.000537169 0.000269777 -4.10824e-05 -0.000373407 -0.000702122 -0.000856856 -0.00116451 -0.00144626 -0.00169134 -0.00189262 -0.00204627 -0.00215081 -0.00220653 -0.00221524 -0.00218074 -0.00211038 -0.00201897 -0.00193697 -0.00192261 0.00173345 0.00169456 0.00167835 0.00166788 0.00164959 0.00161523 0.00156077 0.00148489 0.00138784 0.00127096 0.00113687 0.000986637 0.000543295 0.000401892 0.000270353 0.00015412 5.80402e-05 -1.24884e-05 -5.17317e-05 -5.45888e-05 -1.78884e-05 5.83084e-05 0.000169664 0.00030479 0.000469277 0.00061745 0.000737361 0.000810272 0.000820852 0.000759072 0.000621743 0.000413206 0.000144942 -0.000165931 -0.000499226 -0.000830926 -0.000921282 -0.00123167 -0.00150999 -0.00174915 -0.00194485 -0.00209527 -0.0022006 -0.00226276 -0.00228549 -0.00227491 -0.00224073 -0.00219801 -0.00216864 -0.00217861 0.00194954 0.00190155 0.00186243 0.00182671 0.00178721 0.00173782 0.00167446 0.00159493 0.00149857 0.00138611 0.00125996 0.00111963 0.000611267 0.000482408 0.000357324 0.000241626 0.00014076 6.05999e-05 7.24879e-06 -1.37566e-05 1.41092e-06 5.36103e-05 0.000139508 0.000247382 0.000395419 0.00052839 0.000636207 0.000700792 0.000706399 0.000642021 0.000503327 0.00029361 2.34621e-05 -0.000290856 -0.000630177 -0.000969906 -0.000993916 -0.00131109 -0.0015903 -0.00182752 -0.00202116 -0.00217146 -0.00228021 -0.00235063 -0.00238746 -0.00239727 -0.00238883 -0.00237315 -0.00236226 -0.0023656 0.00215957 0.00210321 0.00204877 0.00199505 0.00193877 0.00187611 0.00180382 0.00171961 0.00162235 0.00151222 0.00139116 0.00125662 0.000680119 0.000558764 0.00043597 0.000316781 0.000206685 0.000111829 3.87842e-05 -6.15556e-06 -1.80123e-05 5.61227e-06 6.31279e-05 0.000143271 0.000275461 0.0003975 0.000498937 0.000562186 0.000570413 0.000510731 0.00037672 0.000169812 -0.000100789 -0.000419727 -0.000768327 -0.00112023 -0.00107837 -0.00140574 -0.00168931 -0.00192798 -0.00212275 -0.00227573 -0.00238999 -0.00246951 -0.00251923 -0.002545 -0.00255348 -0.00255163 -0.00254547 -0.00253819 0.00237507 0.00230665 0.00223809 0.00216942 0.00209915 0.0020249 0.00194415 0.00185471 0.00175512 0.00164504 0.00152576 0.00139242 0.000746157 0.000626342 0.000499995 0.000371341 0.000245556 0.000128899 2.84936e-05 -4.82743e-05 -9.47386e-05 -0.000106251 -8.1764e-05 -3.11625e-05 8.6088e-05 0.000200111 0.000300509 0.000370005 0.000390005 0.000344771 0.000224664 2.81613e-05 -0.00023778 -0.000559115 -0.000917495 -0.00128396 -0.00117929 -0.00151898 -0.00180908 -0.00205175 -0.00225037 -0.00240853 -0.00253012 -0.00261937 -0.00268084 -0.00271926 -0.00273934 -0.00274531 -0.00274032 -0.00272575 0.00259717 0.00251253 0.00242856 0.00234553 0.00226253 0.00217776 0.00208894 0.00199379 0.0018904 0.00177778 0.0016564 0.00151899 0.000802532 0.000677091 0.000539487 0.000393094 0.000242603 9.42908e-05 -4.40475e-05 -0.000163586 -0.000255388 -0.000311761 -0.000328006 -0.000311582 -0.000206293 -9.98887e-05 3.88008e-06 8.77834e-05 0.000130774 0.000113178 2.07447e-05 -0.000152516 -0.000403244 -0.000719628 -0.00108398 -0.00146428 -0.00130324 -0.00165476 -0.00195157 -0.00219963 -0.00240429 -0.00257003 -0.00270094 -0.002801 -0.00287407 -0.00292381 -0.00295351 -0.00296589 -0.00296295 -0.00294585 0.00282036 0.00271578 0.0026144 0.00251643 0.00242095 0.00232605 0.0022292 0.00212759 0.0020186 0.00190033 0.00177223 0.00162447 0.000838305 0.000698489 0.000539715 0.000364543 0.0001771 -1.63377e-05 -0.000207155 -0.000384703 -0.000537152 -0.000652904 -0.000722489 -0.000749727 -0.000649266 -0.000554175 -0.000444447 -0.00033765 -0.000257968 -0.000230219 -0.000274991 -0.000404783 -0.000621855 -0.00091827 -0.00127797 -0.00166603 -0.00146003 -0.00181841 -0.00211902 -0.00237216 -0.00258446 -0.00276027 -0.00290305 -0.00301596 -0.00310196 -0.00316373 -0.00320365 -0.00322369 -0.00322549 -0.00321044 0.00303358 0.00290595 0.00278517 0.00267129 0.00256302 0.00245787 0.00235252 0.00224322 0.00212623 0.0019984 0.00185787 0.00169217 0.000837299 0.000672321 0.00047979 0.000261424 2.07341e-05 -0.000235983 -0.000499112 -0.000755775 -0.000990583 -0.00118711 -0.00132992 -0.00141772 -0.00130899 -0.00123497 -0.00111989 -0.000982073 -0.000849419 -0.000753158 -0.000722265 -0.00077839 -0.00093227 -0.00118243 -0.00151634 -0.00189717 -0.00166503 -0.00201784 -0.00231465 -0.00257022 -0.00279094 -0.00297947 -0.00313746 -0.00326651 -0.00336836 -0.00344475 -0.00349736 -0.00352783 -0.00353778 -0.00352888 0.00322025 0.00306714 0.00292532 0.00279458 0.00267295 0.002557 0.00244216 0.00232325 0.00219498 0.00205259 0.00189251 0.00169956 0.000776888 0.000573417 0.000331273 5.1187e-05 -0.000264048 -0.00060811 -0.000970191 -0.00133475 -0.00168214 -0.0019901 -0.00223603 -0.00241158 -0.00227516 -0.00224028 -0.00212553 -0.00195029 -0.00174639 -0.00155263 -0.00140857 -0.00134822 -0.00139453 -0.00155625 -0.00182749 -0.00217208 -0.00194311 -0.00226619 -0.00254463 -0.00279641 -0.00302492 -0.00322877 -0.00340607 -0.00355583 -0.00367798 -0.00377313 -0.00384234 -0.00388699 -0.00390876 -0.00390965 0.00335801 0.0031777 0.00301369 0.00286535 0.00272976 0.00260212 0.00247619 0.0023449 0.00220099 0.0020376 0.00184904 0.00161735 0.000626872 0.000368504 5.69906e-05 -0.000308251 -0.000725357 -0.00118802 -0.00168406 -0.00219482 -0.00269559 -0.00315721 -0.00354866 -0.00385203 -0.00366512 -0.00369766 -0.00359633 -0.0033811 -0.0030874 -0.00276224 -0.00245778 -0.00222373 -0.00209981 -0.00210997 -0.0022596 -0.00251814 -0.00233486 -0.0025865 -0.00282171 -0.00305782 -0.00329079 -0.00351166 -0.00371267 -0.00388865 -0.00403683 -0.00415621 -0.00424702 -0.00431032 -0.00434786 -0.0043619 0.00341839 0.00321003 0.00302332 0.00285695 0.00270678 0.00256623 0.00242695 0.00227953 0.00211425 0.00192171 0.00169358 0.00140903 0.000348753 1.55465e-05 -0.000389578 -0.000869049 -0.00142227 -0.00204306 -0.00271768 -0.0034238 -0.00413077 -0.00480129 -0.00539457 -0.00587992 -0.0056243 -0.00576364 -0.00569824 -0.00544714 -0.00504801 -0.00455571 -0.00403612 -0.00355754 -0.0031811 -0.00295187 -0.00289278 -0.00298734 -0.00290564 -0.00301932 -0.0031714 -0.00337079 -0.00359949 -0.00383639 -0.00406457 -0.00427247 -0.0044532 -0.00460327 -0.00472159 -0.00480872 -0.0048663 -0.00489682 0.00336702 0.00313079 0.00292156 0.00273716 0.0025718 0.00241674 0.00226109 0.00209264 0.00189873 0.00166693 0.00138569 0.00103116 -0.000104188 -0.000535984 -0.0010638 -0.00169261 -0.00242356 -0.0032507 -0.00415846 -0.00512015 -0.00609801 -0.00704509 -0.0079093 -0.00864319 -0.00831909 -0.00861413 -0.00861746 -0.00834411 -0.00783153 -0.00714051 -0.00634992 -0.00554795 -0.00482076 -0.00424048 -0.00385504 -0.00367481 -0.00375654 -0.0036333 -0.0036408 -0.00376741 -0.00397318 -0.00421912 -0.00447481 -0.00471915 -0.00493888 -0.00512662 -0.00527914 -0.00539594 -0.0054784 -0.00552913 0.00316439 0.00290168 0.00267099 0.00246895 0.00228779 0.00211622 0.00194034 0.00174473 0.00151333 0.00123009 0.000879649 0.000434872 -0.000785466 -0.0013433 -0.00202756 -0.00284661 -0.00380376 -0.00489333 -0.00609744 -0.00738399 -0.00870648 -0.0100064 -0.0112185 -0.012274 -0.0119172 -0.0124214 -0.0125347 -0.0122641 -0.0116431 -0.0107345 -0.00962716 -0.00842737 -0.00724734 -0.00619059 -0.00533747 -0.00474218 -0.00503292 -0.00453609 -0.00430813 -0.00430285 -0.00445041 -0.00468749 -0.0049646 -0.00524657 -0.00551046 -0.00574275 -0.00593658 -0.00608968 -0.00620268 -0.00627817 0.00276767 0.00248131 0.00223114 0.00201231 0.00181475 0.00162419 0.00142339 0.00119329 0.000913947 0.00056519 0.00012713 -0.000431062 -0.00175206 -0.00246639 -0.00334458 -0.00439918 -0.00563594 -0.00704919 -0.00861779 -0.0103026 -0.0120462 -0.0137762 -0.0154113 -0.0168577 -0.016553 -0.0173155 -0.0175836 -0.0173512 -0.0166439 -0.0155214 -0.0140764 -0.012428 -0.0107113 -0.00906179 -0.00759772 -0.0064364 -0.00692121 -0.00587903 -0.00528891 -0.00506106 -0.00509067 -0.00528391 -0.00556549 -0.0058801 -0.00619029 -0.00647291 -0.00671532 -0.00691205 -0.00706235 -0.00716843 0.00213364 0.001828 0.00156135 0.00132709 0.00111252 0.000900129 0.000668992 0.000396053 5.70803e-05 -0.000372744 -0.000918475 -0.00161525 -0.00305877 -0.00396153 -0.00507286 -0.00640996 -0.00798094 -0.00977927 -0.011779 -0.0139315 -0.0161657 -0.0183922 -0.0205112 -0.0224007 -0.0222806 -0.0233364 -0.0237989 -0.0236466 -0.0228929 -0.0215892 -0.0198245 -0.0177221 -0.0154317 -0.0131164 -0.0109337 -0.00908087 -0.0096231 -0.00784665 -0.00673355 -0.00615628 -0.00597712 -0.00606801 -0.00632114 -0.00665358 -0.00700689 -0.00734334 -0.00764107 -0.00788939 -0.00808495 -0.00822909 0.00122268 0.000903725 0.000624641 0.000376842 0.000144793 -9.24847e-05 -0.000359814 -0.000684496 -0.00109537 -0.00162235 -0.0022962 -0.00315706 -0.00475034 -0.00587264 -0.00725485 -0.00891878 -0.0108742 -0.0131121 -0.0155991 -0.0182745 -0.02105 -0.0238161 -0.0264519 -0.0288076 -0.0290298 -0.0303908 -0.0310735 -0.0310412 -0.0302938 -0.0288701 -0.0268486 -0.0243467 -0.0215175 -0.0185413 -0.0156108 -0.0130105 -0.0133049 -0.010626 -0.00881274 -0.0077284 -0.00721658 -0.00711811 -0.00728856 -0.00760999 -0.00799501 -0.0083847 -0.00874311 -0.00905115 -0.0093011 -0.00949245 3.71544e-06 -0.000321111 -0.000607565 -0.000866401 -0.00111611 -0.00138121 -0.00169051 -0.00207568 -0.00257034 -0.00320975 -0.00403073 -0.00507909 -0.00685222 -0.00822124 -0.00990645 -0.0119336 -0.0143124 -0.0170292 -0.0200403 -0.0232688 -0.0266066 -0.0299217 -0.0330705 -0.0358789 -0.0365847 -0.0382366 -0.0391451 -0.0392617 -0.0385749 -0.0371106 -0.0349326 -0.0321442 -0.0288895 -0.0253524 -0.0217499 -0.0184443 -0.0180397 -0.0143624 -0.0116913 -0.00993041 -0.00893517 -0.00853055 -0.0085386 -0.00880158 -0.00919515 -0.009631 -0.0100526 -0.010428 -0.0107421 -0.0109914 -0.00154067 -0.00186268 -0.00215053 -0.00241724 -0.00268422 -0.0029795 -0.00333578 -0.00378904 -0.00437767 -0.00514229 -0.00612578 -0.00738004 -0.0093615 -0.0109971 -0.0130074 -0.0154206 -0.0182443 -0.0214569 -0.0250011 -0.028781 -0.032666 -0.0365008 -0.0401202 -0.0433332 -0.0446038 -0.0465104 -0.0476281 -0.0479045 -0.0473217 -0.0458964 -0.0436782 -0.0407518 -0.0372429 -0.0333251 -0.0292224 -0.0253439 -0.0237726 -0.0191161 -0.0154934 -0.0129061 -0.0112665 -0.0104146 -0.0101539 -0.0102889 -0.0106522 -0.0111178 -0.0116003 -0.0120487 -0.012437 -0.0127559 -0.00340957 -0.0037193 -0.00400186 -0.00427253 -0.00455556 -0.00488222 -0.00528891 -0.00581563 -0.00650529 -0.00740357 -0.00855902 -0.0100296 -0.0122406 -0.0141522 -0.0164957 -0.0192998 -0.0225672 -0.0262657 -0.0303211 -0.0346165 -0.038998 -0.0432885 -0.0473049 -0.0508478 -0.0526821 -0.0547928 -0.0560856 -0.0565122 -0.0560564 -0.0547318 -0.0525777 -0.0496614 -0.0460861 -0.0420027 -0.0376225 -0.0333529 -0.0303233 -0.0248333 -0.0202644 -0.0167572 -0.0143293 -0.0128795 -0.0122221 -0.0121365 -0.0124126 -0.012879 -0.013413 -0.0139368 -0.0144079 -0.0148084 -0.00558074 -0.00586849 -0.00613866 -0.00640866 -0.00670532 -0.00706288 -0.00752099 -0.00812323 -0.00891652 -0.00995097 -0.01128 -0.012967 -0.0154153 -0.0175995 -0.020268 -0.0234475 -0.0271335 -0.0312806 -0.0357962 -0.0405417 -0.0453415 -0.0499997 -0.0543208 -0.0581066 -0.0604296 -0.0626892 -0.064113 -0.0646639 -0.0643348 -0.0631426 -0.0611231 -0.058331 -0.0548475 -0.0507942 -0.0463514 -0.0418744 -0.0374141 -0.0313351 -0.0259366 -0.0215041 -0.0181947 -0.0160116 -0.0148214 -0.0144046 -0.0145176 -0.0149416 -0.0155083 -0.0161046 -0.0166648 -0.0171582 -0.00800987 -0.00826643 -0.008517 -0.00878102 -0.00908757 -0.00947337 -0.00998082 -0.0106565 -0.0115505 -0.0127166 -0.014212 -0.0161037 -0.018779 -0.0212188 -0.0241871 -0.0277067 -0.0317644 -0.0363 -0.0412026 -0.0463131 -0.0514373 -0.0563658 -0.0608964 -0.0648391 -0.0675352 -0.0698915 -0.0714007 -0.0720413 -0.0718197 -0.0707615 -0.0689049 -0.0662984 -0.0630062 -0.0591202 -0.0547783 -0.0502485 -0.0447046 -0.0383271 -0.0323107 -0.0270516 -0.0228494 -0.0198442 -0.017999 -0.017134 -0.0169939 -0.0173179 -0.0178877 -0.0185469 -0.0191989 -0.0197947 -0.0106329 -0.0108501 -0.0110743 -0.0113265 -0.0116377 -0.0120467 -0.0125979 -0.0133403 -0.0143263 -0.015612 -0.0172572 -0.0193309 -0.0222018 -0.024867 -0.0280947 -0.0319029 -0.0362684 -0.0411171 -0.0463209 -0.0517037 -0.0570569 -0.0621625 -0.0668173 -0.0708431 -0.0737936 -0.0762025 -0.0777571 -0.0784522 -0.0783089 -0.077364 -0.0756619 -0.0732513 -0.0701864 -0.0665343 -0.0623898 -0.0579243 -0.051827 -0.0454315 -0.0390666 -0.0331752 -0.0281672 -0.0243259 -0.0217449 -0.0203271 -0.0198393 -0.0199953 -0.0205285 -0.0212333 -0.0219746 -0.0226795 -0.0133708 -0.0135425 -0.0137342 -0.0139686 -0.014278 -0.0147026 -0.0152886 -0.0160861 -0.0171493 -0.0185356 -0.0203056 -0.0225285 -0.0255433 -0.0283925 -0.0318275 -0.0358608 -0.0404603 -0.0455396 -0.0509568 -0.0565225 -0.0620185 -0.0672228 -0.0719347 -0.0759884 -0.079098 -0.0815259 -0.0830958 -0.083816 -0.0837204 -0.0828566 -0.0812779 -0.0790374 -0.076186 -0.0727754 -0.0688653 -0.0645456 -0.058427 -0.0522418 -0.0458057 -0.0395385 -0.0339034 -0.0293013 -0.0259689 -0.023928 -0.023008 -0.0229248 -0.0233744 -0.0241004 -0.0249234 -0.0257404 -0.0161373 -0.0162593 -0.0164137 -0.0166243 -0.0169243 -0.017355 -0.0179633 -0.0188004 -0.0199207 -0.0213821 -0.023245 -0.0255765 -0.0286661 -0.0316493 -0.0352314 -0.0394205 -0.0441768 -0.0494051 -0.0549534 -0.0606239 -0.0661929 -0.0714373 -0.0761603 -0.0802071 -0.0834133 -0.085838 -0.0874041 -0.0881285 -0.0880546 -0.0872391 -0.0857438 -0.0836292 -0.0809493 -0.0777496 -0.0740691 -0.0699437 -0.0642064 -0.058385 -0.0521164 -0.0457433 -0.0397194 -0.0345139 -0.0304903 -0.0278087 -0.0263981 -0.0260117 -0.0263283 -0.0270461 -0.0279382 -0.0288661 -0.0188464 -0.0189172 -0.019031 -0.0192123 -0.019495 -0.0199206 -0.0205362 -0.0213932 -0.0225461 -0.0240521 -0.0259705 -0.0283649 -0.0314475 -0.0345091 -0.0381745 -0.0424483 -0.0472865 -0.0525884 -0.0581966 -0.0639088 -0.0694994 -0.0747457 -0.0794542 -0.0834776 -0.0867472 -0.0891574 -0.0907107 -0.0914277 -0.0913567 -0.0905614 -0.0891114 -0.0870755 -0.0845149 -0.081478 -0.0779971 -0.0740838 -0.0689539 -0.0635708 -0.057638 -0.0513946 -0.0452334 -0.0396343 -0.0350483 -0.0317679 -0.0298467 -0.0291108 -0.0292491 -0.0299274 -0.0308724 -0.0319063 -0.0214205 -0.0214412 -0.021513 -0.0216607 -0.0219179 -0.0223261 -0.022932 -0.0237867 -0.0249441 -0.0264603 -0.0283933 -0.0308017 -0.0337878 -0.0368698 -0.0405538 -0.0448438 -0.0496947 -0.0550041 -0.0606136 -0.0663203 -0.0718983 -0.0771261 -0.0818115 -0.0858101 -0.0891293 -0.0915231 -0.0930629 -0.0937684 -0.0936895 -0.0928938 -0.0914577 -0.0894585 -0.0869671 -0.0840405 -0.0807164 -0.0770058 -0.0725537 -0.0676146 -0.0621044 -0.0561582 -0.0500789 -0.044307 -0.03933 -0.0355449 -0.0331353 -0.0320283 -0.0319533 -0.0325626 -0.0335425 -0.034675 -0.023797 -0.023771 -0.0238014 -0.0239122 -0.0241366 -0.0245148 -0.0250928 -0.025921 -0.0270521 -0.0285415 -0.0304454 -0.0328177 -0.0356156 -0.0386591 -0.0422993 -0.0465417 -0.0513434 -0.0566046 -0.0621695 -0.067837 -0.073383 -0.0785858 -0.083252 -0.0872354 -0.0906001 -0.092983 -0.0945149 -0.095211 -0.0951196 -0.0943104 -0.0928651 -0.0908691 -0.0884039 -0.0855384 -0.0823228 -0.0787832 -0.0749755 -0.0704337 -0.0653576 -0.059795 -0.0539526 -0.0481991 -0.04301 -0.038846 -0.0360061 -0.0345324 -0.0342227 -0.0347382 -0.0357357 -0.0369584 -0.0259318 -0.0258649 -0.0258562 -0.0259287 -0.0261137 -0.0264497 -0.0269813 -0.0277573 -0.0288298 -0.0302532 -0.0320829 -0.0343687 -0.0368882 -0.0398358 -0.0433732 -0.0475102 -0.0522093 -0.0573767 -0.0628619 -0.0684682 -0.0739732 -0.0791544 -0.083814 -0.0877993 -0.0912073 -0.0935907 -0.0951247 -0.0958179 -0.0957148 -0.0948854 -0.0934153 -0.0913974 -0.0889232 -0.0860748 -0.0829176 -0.0795011 -0.0762533 -0.0720273 -0.0673373 -0.062168 -0.05664 -0.0510373 -0.0457887 -0.0413756 -0.0381834 -0.0363682 -0.0358157 -0.0362189 -0.0372187 -0.0385238 -0.0278012 -0.0277008 -0.0276573 -0.0276916 -0.0278322 -0.0281147 -0.0285811 -0.0292788 -0.030259 -0.0315759 -0.0332853 -0.0354345 -0.0375905 -0.0403869 -0.0437673 -0.047748 -0.0522997 -0.0573369 -0.062717 -0.0682487 -0.0737116 -0.0788808 -0.0835519 -0.0875611 -0.0910073 -0.0934071 -0.0949566 -0.0956568 -0.0955471 -0.0946957 -0.0931913 -0.091133 -0.0886217 -0.0857511 -0.0826023 -0.0792495 -0.0764641 -0.0724521 -0.068059 -0.0632298 -0.0580178 -0.0526262 -0.0474189 -0.0428627 -0.039396 -0.0372741 -0.0364798 -0.0367575 -0.0377472 -0.0391292 -0.0294005 -0.0292756 -0.0292033 -0.0292013 -0.0292938 -0.0295124 -0.0298956 -0.0304885 -0.0313417 -0.0325106 -0.0340529 -0.0360163 -0.0377307 -0.0403239 -0.0434987 -0.0472799 -0.0516479 -0.0565277 -0.0617855 -0.0672362 -0.0726611 -0.0778319 -0.0825356 -0.0865937 -0.0900666 -0.0925023 -0.0940841 -0.0948045 -0.0946966 -0.0938262 -0.092283 -0.0901711 -0.0875991 -0.0846708 -0.08148 -0.0781241 -0.0757116 -0.0718018 -0.06759 -0.063001 -0.0580417 -0.0528484 -0.0477172 -0.043079 -0.039394 -0.0369955 -0.035962 -0.036103 -0.0370725 -0.0385289 -0.0307419 -0.0306027 -0.0305091 -0.0304741 -0.0305164 -0.0306617 -0.0309438 -0.0314049 -0.0320957 -0.0330741 -0.0344026 -0.036132 -0.0373355 -0.0396779 -0.0426052 -0.0461519 -0.0503093 -0.0550133 -0.0601394 -0.0655086 -0.0709037 -0.0760921 -0.0808507 -0.0849848 -0.0884644 -0.0909586 -0.0925924 -0.0933495 -0.0932558 -0.0923732 -0.0907912 -0.0886169 -0.0859645 -0.0829452 -0.0796622 -0.0762306 -0.0741162 -0.0701912 -0.0660288 -0.0615471 -0.0567255 -0.0516511 -0.0465611 -0.0418428 -0.0379571 -0.0352923 -0.0340138 -0.0340044 -0.0349438 -0.0364751 -0.0318508 -0.0317085 -0.0316022 -0.0315389 -0.0315298 -0.0315929 -0.0317556 -0.0320573 -0.0325493 -0.0332941 -0.0343622 -0.0358114 -0.0364453 -0.0384948 -0.0411404 -0.044427 -0.0483568 -0.052876 -0.057869 -0.0631623 -0.0685393 -0.0737627 -0.0785989 -0.0828367 -0.0862928 -0.0888707 -0.0905792 -0.0913929 -0.0913296 -0.0904461 -0.0888297 -0.0865885 -0.0838393 -0.0806975 -0.0772715 -0.0736873 -0.0718078 -0.0677466 -0.0634901 -0.0589586 -0.0541187 -0.0490269 -0.0438761 -0.0390143 -0.0348932 -0.0319388 -0.0303915 -0.0302087 -0.0311052 -0.0327142 -0.0327617 -0.0326289 -0.0325199 -0.032434 -0.0323725 -0.0323437 -0.0323676 -0.0324804 -0.0327356 -0.0332032 -0.0339654 -0.0350916 -0.0351088 -0.0368305 -0.0391696 -0.0421812 -0.0458772 -0.0502128 -0.0550795 -0.0603082 -0.0656824 -0.0709597 -0.0758958 -0.0802647 -0.0836571 -0.0863453 -0.0881538 -0.0890471 -0.0890342 -0.0881654 -0.0865236 -0.084215 -0.0813561 -0.0780625 -0.0744428 -0.0706255 -0.0689205 -0.0645976 -0.0600932 -0.0553345 -0.050287 -0.0449924 -0.0396171 -0.0344816 -0.0300302 -0.0267181 -0.0248498 -0.0244551 -0.0252891 -0.0269795 -0.0335155 -0.0334067 -0.0333065 -0.0332039 -0.0330881 -0.0329556 -0.032818 -0.032709 -0.0326872 -0.032834 -0.0332473 -0.0340127 -0.03338 -0.034748 -0.0367664 -0.0394998 -0.0429677 -0.0471313 -0.0518872 -0.0570688 -0.062459 -0.0678101 -0.072868 -0.077394 -0.0806731 -0.0834984 -0.0854335 -0.0864319 -0.0864928 -0.0856579 -0.0840038 -0.0816314 -0.0786532 -0.0751809 -0.0713177 -0.0671845 -0.0655867 -0.0608705 -0.0559533 -0.0507711 -0.0452958 -0.0395695 -0.0337491 -0.0281442 -0.0232028 -0.0194114 -0.0171329 -0.0164648 -0.0172058 -0.0189