# vtk DataFile Version 2.0
Presion
ASCII

DATASET STRUCTURED_GRID
DIMENSIONS   50   50   20

POINTS   50000   double
0.00568455   0.00568455   0.025
0.0174023   0.00568455   0.025
0.0298294   0.00568455   0.025
0.0429888   0.00568455   0.025
0.0569012   0.00568455   0.025
0.0715849   0.00568455   0.025
0.0870549   0.00568455   0.025
0.103323   0.00568455   0.025
0.120395   0.00568455   0.025
0.138275   0.00568455   0.025
0.156961   0.00568455   0.025
0.176443   0.00568455   0.025
0.196707   0.00568455   0.025
0.217734   0.00568455   0.025
0.239496   0.00568455   0.025
0.261959   0.00568455   0.025
0.285082   0.00568455   0.025
0.308818   0.00568455   0.025
0.333113   0.00568455   0.025
0.357906   0.00568455   0.025
0.383132   0.00568455   0.025
0.408719   0.00568455   0.025
0.434592   0.00568455   0.025
0.460672   0.00568455   0.025
0.486877   0.00568455   0.025
0.513123   0.00568455   0.025
0.539328   0.00568455   0.025
0.565408   0.00568455   0.025
0.591281   0.00568455   0.025
0.616868   0.00568455   0.025
0.642094   0.00568455   0.025
0.666887   0.00568455   0.025
0.691182   0.00568455   0.025
0.714918   0.00568455   0.025
0.738041   0.00568455   0.025
0.760504   0.00568455   0.025
0.782266   0.00568455   0.025
0.803293   0.00568455   0.025
0.823557   0.00568455   0.025
0.843039   0.00568455   0.025
0.861725   0.00568455   0.025
0.879605   0.00568455   0.025
0.896677   0.00568455   0.025
0.912945   0.00568455   0.025
0.928415   0.00568455   0.025
0.943099   0.00568455   0.025
0.957011   0.00568455   0.025
0.970171   0.00568455   0.025
0.982598   0.00568455   0.025
0.994315   0.00568455   0.025
0.00568455   0.0174023   0.025
0.0174023   0.0174023   0.025
0.0298294   0.0174023   0.025
0.0429888   0.0174023   0.025
0.0569012   0.0174023   0.025
0.0715849   0.0174023   0.025
0.0870549   0.0174023   0.025
0.103323   0.0174023   0.025
0.120395   0.0174023   0.025
0.138275   0.0174023   0.025
0.156961   0.0174023   0.025
0.176443   0.0174023   0.025
0.196707   0.0174023   0.025
0.217734   0.0174023   0.025
0.239496   0.0174023   0.025
0.261959   0.0174023   0.025
0.285082   0.0174023   0.025
0.308818   0.0174023   0.025
0.333113   0.0174023   0.025
0.357906   0.0174023   0.025
0.383132   0.0174023   0.025
0.408719   0.0174023   0.025
0.434592   0.0174023   0.025
0.460672   0.0174023   0.025
0.486877   0.0174023   0.025
0.513123   0.0174023   0.025
0.539328   0.0174023   0.025
0.565408   0.0174023   0.025
0.591281   0.0174023   0.025
0.616868   0.0174023   0.025
0.642094   0.0174023   0.025
0.666887   0.0174023   0.025
0.691182   0.0174023   0.025
0.714918   0.0174023   0.025
0.738041   0.0174023   0.025
0.760504   0.0174023   0.025
0.782266   0.0174023   0.025
0.803293   0.0174023   0.025
0.823557   0.0174023   0.025
0.843039   0.0174023   0.025
0.861725   0.0174023   0.025
0.879605   0.0174023   0.025
0.896677   0.0174023   0.025
0.912945   0.0174023   0.025
0.928415   0.0174023   0.025
0.943099   0.0174023   0.025
0.957011   0.0174023   0.025
0.970171   0.0174023   0.025
0.982598   0.0174023   0.025
0.994315   0.0174023   0.025
0.00568455   0.0298294   0.025
0.0174023   0.0298294   0.025
0.0298294   0.0298294   0.025
0.0429888   0.0298294   0.025
0.0569012   0.0298294   0.025
0.0715849   0.0298294   0.025
0.0870549   0.0298294   0.025
0.103323   0.0298294   0.025
0.120395   0.0298294   0.025
0.138275   0.0298294   0.025
0.156961   0.0298294   0.025
0.176443   0.0298294   0.025
0.196707   0.0298294   0.025
0.217734   0.0298294   0.025
0.239496   0.0298294   0.025
0.261959   0.0298294   0.025
0.285082   0.0298294   0.025
0.308818   0.0298294   0.025
0.333113   0.0298294   0.025
0.357906   0.0298294   0.025
0.383132   0.0298294   0.025
0.408719   0.0298294   0.025
0.434592   0.0298294   0.025
0.460672   0.0298294   0.025
0.486877   0.0298294   0.025
0.513123   0.0298294   0.025
0.539328   0.0298294   0.025
0.565408   0.0298294   0.025
0.591281   0.0298294   0.025
0.616868   0.0298294   0.025
0.642094   0.0298294   0.025
0.666887   0.0298294   0.025
0.691182   0.0298294   0.025
0.714918   0.0298294   0.025
0.738041   0.0298294   0.025
0.760504   0.0298294   0.025
0.782266   0.0298294   0.025
0.803293   0.0298294   0.025
0.823557   0.0298294   0.025
0.843039   0.0298294   0.025
0.861725   0.0298294   0.025
0.879605   0.0298294   0.025
0.896677   0.0298294   0.025
0.912945   0.0298294   0.025
0.928415   0.0298294   0.025
0.943099   0.0298294   0.025
0.957011   0.0298294   0.025
0.970171   0.0298294   0.025
0.982598   0.0298294   0.025
0.994315   0.0298294   0.025
0.00568455   0.0429888   0.025
0.0174023   0.0429888   0.025
0.0298294   0.0429888   0.025
0.0429888   0.0429888   0.025
0.0569012   0.0429888   0.025
0.0715849   0.0429888   0.025
0.0870549   0.0429888   0.025
0.103323   0.0429888   0.025
0.120395   0.0429888   0.025
0.138275   0.0429888   0.025
0.156961   0.0429888   0.025
0.176443   0.0429888   0.025
0.196707   0.0429888   0.025
0.217734   0.0429888   0.025
0.239496   0.0429888   0.025
0.261959   0.0429888   0.025
0.285082   0.0429888   0.025
0.308818   0.0429888   0.025
0.333113   0.0429888   0.025
0.357906   0.0429888   0.025
0.383132   0.0429888   0.025
0.408719   0.0429888   0.025
0.434592   0.0429888   0.025
0.460672   0.0429888   0.025
0.486877   0.0429888   0.025
0.513123   0.0429888   0.025
0.539328   0.0429888   0.025
0.565408   0.0429888   0.025
0.591281   0.0429888   0.025
0.616868   0.0429888   0.025
0.642094   0.0429888   0.025
0.666887   0.0429888   0.025
0.691182   0.0429888   0.025
0.714918   0.0429888   0.025
0.738041   0.0429888   0.025
0.760504   0.0429888   0.025
0.782266   0.0429888   0.025
0.803293   0.0429888   0.025
0.823557   0.0429888   0.025
0.843039   0.0429888   0.025
0.861725   0.0429888   0.025
0.879605   0.0429888   0.025
0.896677   0.0429888   0.025
0.912945   0.0429888   0.025
0.928415   0.0429888   0.025
0.943099   0.0429888   0.025
0.957011   0.0429888   0.025
0.970171   0.0429888   0.025
0.982598   0.0429888   0.025
0.994315   0.0429888   0.025
0.00568455   0.0569012   0.025
0.0174023   0.0569012   0.025
0.0298294   0.0569012   0.025
0.0429888   0.0569012   0.025
0.0569012   0.0569012   0.025
0.0715849   0.0569012   0.025
0.0870549   0.0569012   0.025
0.103323   0.0569012   0.025
0.120395   0.0569012   0.025
0.138275   0.0569012   0.025
0.156961   0.0569012   0.025
0.176443   0.0569012   0.025
0.196707   0.0569012   0.025
0.217734   0.0569012   0.025
0.239496   0.0569012   0.025
0.261959   0.0569012   0.025
0.285082   0.0569012   0.025
0.308818   0.0569012   0.025
0.333113   0.0569012   0.025
0.357906   0.0569012   0.025
0.383132   0.0569012   0.025
0.408719   0.0569012   0.025
0.434592   0.0569012   0.025
0.460672   0.0569012   0.025
0.486877   0.0569012   0.025
0.513123   0.0569012   0.025
0.539328   0.0569012   0.025
0.565408   0.0569012   0.025
0.591281   0.0569012   0.025
0.616868   0.0569012   0.025
0.642094   0.0569012   0.025
0.666887   0.0569012   0.025
0.691182   0.0569012   0.025
0.714918   0.0569012   0.025
0.738041   0.0569012   0.025
0.760504   0.0569012   0.025
0.782266   0.0569012   0.025
0.803293   0.0569012   0.025
0.823557   0.0569012   0.025
0.843039   0.0569012   0.025
0.861725   0.0569012   0.025
0.879605   0.0569012   0.025
0.896677   0.0569012   0.025
0.912945   0.0569012   0.025
0.928415   0.0569012   0.025
0.943099   0.0569012   0.025
0.957011   0.0569012   0.025
0.970171   0.0569012   0.025
0.982598   0.0569012   0.025
0.994315   0.0569012   0.025
0.00568455   0.0715849   0.025
0.0174023   0.0715849   0.025
0.0298294   0.0715849   0.025
0.0429888   0.0715849   0.025
0.0569012   0.0715849   0.025
0.0715849   0.0715849   0.025
0.0870549   0.0715849   0.025
0.103323   0.0715849   0.025
0.120395   0.0715849   0.025
0.138275   0.0715849   0.025
0.156961   0.0715849   0.025
0.176443   0.0715849   0.025
0.196707   0.0715849   0.025
0.217734   0.0715849   0.025
0.239496   0.0715849   0.025
0.261959   0.0715849   0.025
0.285082   0.0715849   0.025
0.308818   0.0715849   0.025
0.333113   0.0715849   0.025
0.357906   0.0715849   0.025
0.383132   0.0715849   0.025
0.408719   0.0715849   0.025
0.434592   0.0715849   0.025
0.460672   0.0715849   0.025
0.486877   0.0715849   0.025
0.513123   0.0715849   0.025
0.539328   0.0715849   0.025
0.565408   0.0715849   0.025
0.591281   0.0715849   0.025
0.616868   0.0715849   0.025
0.642094   0.0715849   0.025
0.666887   0.0715849   0.025
0.691182   0.0715849   0.025
0.714918   0.0715849   0.025
0.738041   0.0715849   0.025
0.760504   0.0715849   0.025
0.782266   0.0715849   0.025
0.803293   0.0715849   0.025
0.823557   0.0715849   0.025
0.843039   0.0715849   0.025
0.861725   0.0715849   0.025
0.879605   0.0715849   0.025
0.896677   0.0715849   0.025
0.912945   0.0715849   0.025
0.928415   0.0715849   0.025
0.943099   0.0715849   0.025
0.957011   0.0715849   0.025
0.970171   0.0715849   0.025
0.982598   0.0715849   0.025
0.994315   0.0715849   0.025
0.00568455   0.0870549   0.025
0.0174023   0.0870549   0.025
0.0298294   0.0870549   0.025
0.0429888   0.0870549   0.025
0.0569012   0.0870549   0.025
0.0715849   0.0870549   0.025
0.0870549   0.0870549   0.025
0.103323   0.0870549   0.025
0.120395   0.0870549   0.025
0.138275   0.0870549   0.025
0.156961   0.0870549   0.025
0.176443   0.0870549   0.025
0.196707   0.0870549   0.025
0.217734   0.0870549   0.025
0.239496   0.0870549   0.025
0.261959   0.0870549   0.025
0.285082   0.0870549   0.025
0.308818   0.0870549   0.025
0.333113   0.0870549   0.025
0.357906   0.0870549   0.025
0.383132   0.0870549   0.025
0.408719   0.0870549   0.025
0.434592   0.0870549   0.025
0.460672   0.0870549   0.025
0.486877   0.0870549   0.025
0.513123   0.0870549   0.025
0.539328   0.0870549   0.025
0.565408   0.0870549   0.025
0.591281   0.0870549   0.025
0.616868   0.0870549   0.025
0.642094   0.0870549   0.025
0.666887   0.0870549   0.025
0.691182   0.0870549   0.025
0.714918   0.0870549   0.025
0.738041   0.0870549   0.025
0.760504   0.0870549   0.025
0.782266   0.0870549   0.025
[...]
POINT_DATA   50000
SCALARS Presion double
LOOKUP_TABLE   Presion

0 0 0 0 0 0 0 0 0 0 0 0 0 0 0 0 0 0 0 0 0 0 0 0 0 0 0 0 0 0 0 0 0 0 0 0 0 0 0 0 0 0 0 0 0 0 0 0 0 0 0.00166251 0.00180997 0.00198797 0.00211672 0.00218171 0.00218409 0.00212845 0.0020199 0.00186334 0.00166302 0.00142235 0.00114305 0.000683249 0.000403955 0.000154676 -6.25204e-05 -0.000242509 -0.000376883 -0.000455833 -0.000470548 -0.000415653 -0.000291234 -0.000103798 0.00013403 0.000385009 0.000634954 0.000850123 0.00100354 0.00107372 0.00104679 0.000918092 0.000692828 0.000385747 1.99808e-05 -0.000374839 -0.000763933 -0.00101269 -0.00137488 -0.00171201 -0.00200657 -0.00224808 -0.00243085 -0.00255199 -0.00261004 -0.00260425 -0.00253411 -0.00239969 -0.0022045 -0.00196898 -0.00178579 0.00218231 0.00217119 0.00222121 0.00227212 0.00229418 0.00227512 0.00221122 0.00210275 0.00195194 0.00176201 0.00153732 0.00128188 0.000761078 0.000508436 0.000273084 6.21973e-05 -0.000116821 -0.000254907 -0.000342306 -0.000370459 -0.000334122 -0.000233218 -7.38227e-05 0.000130347 0.000353423 0.000572039 0.000758151 0.000886231 0.000935973 0.000894352 0.000757155 0.000529574 0.00022572 -0.000132902 -0.000520039 -0.000905545 -0.00108243 -0.00144168 -0.00176792 -0.00204974 -0.00227989 -0.00245465 -0.00257273 -0.0026346 -0.00264237 -0.00260031 -0.00251688 -0.00240943 -0.00231413 -0.00230056 0.0025346 0.00248466 0.00247008 0.00246471 0.00244701 0.00240335 0.00232656 0.00221384 0.00206527 0.00188301 0.00167149 0.00143401 0.000843539 0.000613363 0.000390411 0.000183902 2.73962e-06 -0.000143354 -0.000244396 -0.000291632 -0.00027938 -0.000206774 -7.89818e-05 8.90953e-05 0.000288924 0.000482195 0.000646774 0.000758047 0.000795801 0.000746574 0.000605469 0.000376914 7.41426e-05 -0.000282643 -0.000669435 -0.00105757 -0.0011586 -0.00152 -0.00184093 -0.00211469 -0.00233748 -0.00250792 -0.00262665 -0.0026961 -0.00272063 -0.00270735 -0.00266757 -0.00261905 -0.00258772 -0.00260458 0.0028278 0.0027681 0.00272162 0.00267958 0.00263028 0.00256355 0.00247231 0.00235265 0.00220335 0.00202565 0.00182357 0.00159846 0.000933055 0.000719161 0.000504371 0.000298071 0.000109762 -5.03729e-05 -0.000171922 -0.000245473 -0.000264253 -0.000225843 -0.000133725 -3.26674e-06 0.000175243 0.000349283 0.000500114 0.000603716 0.000638991 0.000590822 0.000452446 0.000226622 -7.47412e-05 -0.000432604 -0.000824245 -0.0012204 -0.00124557 -0.00161317 -0.00193323 -0.00220313 -0.00242236 -0.00259194 -0.00271433 -0.00279343 -0.0028348 -0.00284609 -0.00283751 -0.00282195 -0.00281362 -0.00282366 0.0031114 0.00304339 0.00297704 0.00291 0.0028365 0.00274993 0.00264462 0.00251665 0.00236421 0.00218777 0.00199065 0.00177171 0.001029 0.000823591 0.000610097 0.000397163 0.000194184 1.15576e-05 -0.00013971 -0.000249059 -0.000307886 -0.00031132 -0.000260115 -0.000168948 -1.16464e-05 0.000148572 0.000293393 0.000399152 0.000442983 0.0004069 0.000280978 6.51613e-05 -0.000230752 -0.000589067 -0.000987758 -0.00139547 -0.0013483 -0.00172478 -0.00204705 -0.00231642 -0.00253545 -0.00270724 -0.00283564 -0.00292534 -0.00298208 -0.00301259 -0.00302459 -0.00302611 -0.00302417 -0.00302239 0.00340514 0.00332342 0.0032394 0.00315248 0.00305956 0.00295621 0.00283792 0.00270102 0.0025433 0.00236452 0.00216711 0.0019471 0.00112722 0.000920716 0.000698911 0.000469397 0.000241028 2.42557e-05 -0.000169126 -0.000326872 -0.00043774 -0.000493388 -0.0004906 -0.000442009 -0.00030581 -0.000155878 -9.85675e-06 0.000108649 0.000174151 0.000164541 6.52284e-05 -0.000128178 -0.00040923 -0.000762259 -0.00116584 -0.00158558 -0.00147317 -0.00185887 -0.00218445 -0.00245545 -0.00267704 -0.0028538 -0.00299025 -0.00309124 -0.00316191 -0.00320765 -0.00323376 -0.00324504 -0.00324502 -0.00323517 0.00371314 0.00361153 0.00350819 0.00340269 0.00329271 0.00317461 0.00304428 0.0028979 0.00273266 0.00254742 0.00234344 0.00211376 0.00121889 0.000999597 0.000756877 0.000497251 0.000228864 -3.77984e-05 -0.000289874 -0.000512837 -0.000691933 -0.000814251 -0.000871259 -0.000872096 -0.000754346 -0.000614576 -0.000461416 -0.000318901 -0.000215984 -0.000180256 -0.000232762 -0.000384233 -0.000633439 -0.000968089 -0.00136793 -0.00179516 -0.00162914 -0.00202035 -0.00234749 -0.00262069 -0.00284693 -0.00303125 -0.00317803 -0.00329151 -0.00337589 -0.00343515 -0.00347287 -0.00349203 -0.00349477 -0.00348226 0.00402958 0.00390266 0.00377725 0.00365265 0.00352635 0.00339446 0.00325238 0.0030955 0.00291993 0.00272321 0.00250505 0.00225539 0.00128912 0.00104277 0.000763148 0.000455766 0.000128068 -0.000209284 -0.000541971 -0.000852522 -0.00112176 -0.00133105 -0.0014652 -0.00152832 -0.0014211 -0.00129662 -0.00113278 -0.000954741 -0.000795738 -0.000690274 -0.00066797 -0.000748471 -0.000938418 -0.00123114 -0.00160898 -0.00203124 -0.00182945 -0.00221602 -0.0025388 -0.00281258 -0.00304476 -0.00323932 -0.0033993 -0.00352762 -0.00362716 -0.00370064 -0.00375049 -0.00377877 -0.0037872 -0.00377719 0.00434057 0.00418392 0.00403377 0.00388895 0.00374618 0.00360056 0.00344616 0.00327689 0.00308715 0.00287259 0.00263093 0.00234887 0.00131525 0.0010246 0.000688274 0.000310813 -0.000100927 -0.000535831 -0.000977633 -0.00140519 -0.00179394 -0.00211842 -0.00235543 -0.00250238 -0.00239076 -0.0022939 -0.00211981 -0.00189548 -0.00165905 -0.00145332 -0.00131885 -0.00128733 -0.00137679 -0.00158952 -0.00191306 -0.00230563 -0.00209467 -0.00245643 -0.00276295 -0.00303266 -0.00327091 -0.00347841 -0.00365526 -0.00380207 -0.00392001 -0.00401053 -0.00407519 -0.00411559 -0.0041334 -0.00413041 0.0046242 0.00443456 0.00425759 0.00409145 0.00393166 0.00377162 0.00360342 0.00341873 0.00320956 0.00296912 0.00269249 0.00236316 0.00126536 0.000909782 0.000492712 1.76312e-05 -0.000509039 -0.00107537 -0.00166257 -0.00224505 -0.00279188 -0.00326961 -0.00364587 -0.00390932 -0.00377221 -0.00372427 -0.00354628 -0.00326737 -0.00293072 -0.00258856 -0.00229459 -0.00209605 -0.00202669 -0.0021023 -0.00231962 -0.00263977 -0.00245754 -0.00275957 -0.0030293 -0.00328573 -0.0035281 -0.00375075 -0.00394868 -0.00411886 -0.00426001 -0.00437207 -0.00445574 -0.00451231 -0.00454352 -0.00455148 0.00485031 0.00462567 0.00442062 0.00423242 0.00405489 0.00387918 0.0036947 0.00349021 0.00325471 0.00297829 0.00265279 0.0022585 0.00109713 0.000652376 0.000125949 -0.000479903 -0.00115906 -0.00189838 -0.00267591 -0.00346073 -0.00421453 -0.00489469 -0.00545855 -0.0058835 -0.00569918 -0.00573122 -0.00556352 -0.00522667 -0.00476828 -0.00425022 -0.00374096 -0.00330646 -0.00300095 -0.00285935 -0.00289323 -0.00307359 -0.00297044 -0.0031569 -0.00335695 -0.00358358 -0.00382414 -0.00406234 -0.00428524 -0.00448426 -0.00465455 -0.0047939 -0.00490192 -0.00497946 -0.00502827 -0.00505078 0.00498032 0.00472009 0.00448671 0.00427618 0.00408016 0.00388695 0.00368269 0.00345258 0.003182 0.00285728 0.0024664 0.00198647 0.000757695 0.00019582 -0.000473185 -0.00124861 -0.00212453 -0.00308613 -0.00410757 -0.00515163 -0.00617141 -0.00711385 -0.00792487 -0.00856732 -0.00832459 -0.00847638 -0.00834221 -0.00795192 -0.00735581 -0.00662417 -0.00584032 -0.00509098 -0.00445497 -0.00399244 -0.00373686 -0.00368008 -0.00371487 -0.00370217 -0.00378195 -0.00395051 -0.00417576 -0.00442561 -0.00467533 -0.00490816 -0.00511388 -0.00528706 -0.00542558 -0.00552952 -0.00560049 -0.00564113 0.00496782 0.00467304 0.00441216 0.00417959 0.00396432 0.00375124 0.00352264 0.00325962 0.00294333 0.0025558 0.00208048 0.00149126 0.000184918 -0.000525363 -0.00137434 -0.00236318 -0.00348602 -0.00472583 -0.00605195 -0.00741968 -0.00877207 -0.0100441 -0.0111689 -0.0120911 -0.0118047 -0.012121 -0.012052 -0.0116232 -0.0108844 -0.00991132 -0.00879973 -0.00765661 -0.00658759 -0.00568321 -0.0050065 -0.00458542 -0.00481068 -0.00448158 -0.00436598 -0.00442972 -0.00461324 -0.00486255 -0.00513626 -0.00540562 -0.00565237 -0.00586607 -0.00604175 -0.00617815 -0.0062764 -0.0063392 0.00476022 0.00443375 0.00414744 0.0038937 0.00365839 0.00342251 0.00316401 0.00285941 0.00248514 0.00201833 0.00143734 0.000712645 -0.00068919 -0.00158157 -0.00265087 -0.00390042 -0.00532409 -0.00690186 -0.00859706 -0.0103559 -0.0121095 -0.0137791 -0.0152835 -0.016545 -0.0162701 -0.0167939 -0.016827 -0.016386 -0.0155162 -0.0142933 -0.0128208 -0.0112216 -0.00962682 -0.00815975 -0.00691966 -0.00598907 -0.00641833 -0.00562094 -0.0052034 -0.00508917 -0.00518469 -0.00540776 -0.00569424 -0.00599824 -0.00628947 -0.00654974 -0.00676948 -0.00694502 -0.00707649 -0.0071664 0.00430192 0.00394858 0.00364016 0.00336669 0.00311056 0.0028485 0.00255371 0.00219779 0.00175202 0.00118819 0.000478994 -0.000408857 -0.00193248 -0.00304141 -0.00437217 -0.00593023 -0.00770861 -0.00968309 -0.0118093 -0.0140221 -0.0162388 -0.0183647 -0.0203025 -0.0219496 -0.0217856 -0.0225498 -0.0227213 -0.0223041 -0.0213343 -0.0198818 -0.0180498 -0.0159699 -0.0137922 -0.0116705 -0.00974417 -0.00816846 -0.00872456 -0.00728224 -0.00642238 -0.00602438 -0.00595901 -0.00611078 -0.00638608 -0.00671522 -0.0070504 -0.00736163 -0.00763208 -0.00785402 -0.00802568 -0.008149 0.00353889 0.00316549 0.00283955 0.00254845 0.00227083 0.00197891 0.00164099 0.00122346 0.000692199 1.33287e-05 -0.000846511 -0.00192496 -0.00360409 -0.00496228 -0.00659314 -0.00850382 -0.0106853 -0.0131074 -0.0157158 -0.0184317 -0.0211559 -0.023776 -0.0261772 -0.0282317 -0.0283093 -0.0293291 -0.0296674 -0.0293144 -0.0282932 -0.0266627 -0.0245178 -0.0219881 -0.0192323 -0.0164273 -0.0137509 -0.0114437 -0.0119053 -0.00964349 -0.00817628 -0.00735651 -0.00702685 -0.00703772 -0.00726037 -0.00759398 -0.00796625 -0.00832982 -0.00865669 -0.00893263 -0.00915256 -0.00931714 0.00242461 0.00203986 0.00170219 0.00139622 0.00109673 0.000771404 0.000383577 -0.000105583 -0.000735676 -0.00154641 -0.00257735 -0.00387111 -0.00574398 -0.00737929 -0.00934231 -0.0116407 -0.0142616 -0.0171667 -0.0202889 -0.0235333 -0.026782 -0.0299036 -0.0327657 -0.0352187 -0.0356673 -0.0369363 -0.0374558 -0.0372038 -0.03619 -0.0344591 -0.0320912 -0.0292038 -0.0259519 -0.022523 -0.0191254 -0.0160846 -0.0160734 -0.0128629 -0.0106245 -0.00922437 -0.0084985 -0.00827141 -0.00837814 -0.00868041 -0.00907366 -0.00948611 -0.00987317 -0.0102105 -0.0104877 -0.0107029 0.00092672 0.000540867 0.000198392 -0.000118944 -0.000440114 -0.000801807 -0.00124546 -0.00181495 -0.00255522 -0.00351168 -0.00472992 -0.00625798 -0.00836232 -0.0102944 -0.0126106 -0.0153174 -0.0183958 -0.0217967 -0.0254375 -0.0292048 -0.0329611 -0.0365565 -0.0398422 -0.0426537 -0.0435628 -0.0450548 -0.0457527 -0.0456269 -0.0446771 -0.0429342 -0.040461 -0.0373562 -0.0337592 -0.0298535 -0.0258642 -0.0221811 -0.0212357 -0.0170382 -0.0139048 -0.0117689 -0.0104969 -0.0099091 -0.0098122 -0.0100285 -0.010414 -0.0108646 -0.0113122 -0.0117173 -0.012061 -0.0123374 -0.000966652 -0.00134227 -0.00168177 -0.00200615 -0.00234789 -0.00274768 -0.00325134 -0.00390739 -0.00476569 -0.00587689 -0.00729205 -0.00906469 -0.0114312 -0.0136684 -0.016344 -0.0194611 -0.0229924 -0.0268749 -0.0310088 -0.0352609 -0.0394744 -0.0434828 -0.0471251 -0.0502308 -0.0516232 -0.0532979 -0.054155 -0.0541641 -0.0533203 -0.0516455 -0.0491869 -0.0460222 -0.0422679 -0.0380897 -0.0337103 -0.0295444 -0.0272792 -0.0221742 -0.0181003 -0.0151085 -0.0131425 -0.0120545 -0.0116434 -0.0116979 -0.0120314 -0.0124994 -0.0130024 -0.0134794 -0.0138984 -0.0142473 -0.00324202 -0.00359567 -0.00392383 -0.00425008 -0.00460999 -0.00504777 -0.005613 -0.00635822 -0.00733753 -0.00860602 -0.0102193 -0.0122357 -0.0148811 -0.0174183 -0.0204425 -0.0239511 -0.0279063 -0.0322296 -0.0368027 -0.041473 -0.0460665 -0.050404 -0.0543173 -0.0576397 -0.0594697 -0.0612808 -0.0622661 -0.0624011 -0.0616837 -0.0601325 -0.0577845 -0.054699 -0.0509675 -0.046728 -0.0421807 -0.0377153 -0.0339884 -0.0281659 -0.0232068 -0.0193066 -0.016529 -0.0148024 -0.0139513 -0.0137487 -0.0139685 -0.0144209 -0.0149666 -0.0155155 -0.0160172 -0.0164495 -0.00585832 -0.00617861 -0.00648687 -0.00680899 -0.00718315 -0.00765641 -0.00828142 -0.00911392 -0.0102113 -0.0116321 -0.0134351 -0.0156822 -0.0186037 -0.0214216 -0.0247663 -0.028628 -0.0329565 -0.0376575 -0.0425945 -0.0475976 -0.052479 -0.0570515 -0.0611458 -0.064606 -0.0667821 -0.0686836 -0.0697608 -0.0699998 -0.0694068 -0.0680032 -0.0658219 -0.0629098 -0.059336 -0.0552064 -0.0506835 -0.0460878 -0.0410747 -0.0347962 -0.0291075 -0.0243373 -0.0206912 -0.0182143 -0.0167983 -0.0162306 -0.0162593 -0.0166496 -0.017216 -0.0178315 -0.0184203 -0.018946 -0.00874813 -0.00902483 -0.00930488 -0.00961617 -0.00999897 -0.0105025 -0.0111817 -0.0120946 -0.0133009 -0.0148612 -0.0168359 -0.0192888 -0.0224608 -0.0255269 -0.0291491 -0.0333091 -0.0379444 -0.0429455 -0.0481598 -0.0534035 -0.0584791 -0.0631963 -0.0673894 -0.0709173 -0.0733352 -0.0752866 -0.0764199 -0.0767344 -0.0762471 -0.0749863 -0.0729865 -0.0702884 -0.0669448 -0.0630316 -0.0586664 -0.0540772 -0.048207 -0.0417543 -0.0355669 -0.0300613 -0.0255744 -0.0222899 -0.0202076 -0.0191678 -0.018918 -0.0191878 -0.0197432 -0.0204132 -0.0210896 -0.0217166 -0.0118225 -0.0120473 -0.0122915 -0.0125849 -0.0129691 -0.013495 -0.014219 -0.0152003 -0.0165001 -0.0181796 -0.0202995 -0.0229233 -0.0262979 -0.0295686 -0.0334138 -0.0378068 -0.0426739 -0.0478923 -0.0532967 -0.0586932 -0.0638791 -0.0686646 -0.0728907 -0.0764322 -0.0790015 -0.0809704 -0.0821298 -0.082491 -0.0820824 -0.0809404 -0.0791046 -0.0766156 -0.0735167 -0.069861 -0.0657242 -0.0612428 -0.0550447 -0.0486719 -0.0422524 -0.0362243 -0.0310152 -0.0269428 -0.0241401 -0.0225406 -0.0219261 -0.0220096 -0.0225138 -0.0232192 -0.0239791 -0.0247122 -0.014979 -0.0151459 -0.015348 -0.0156162 -0.0159934 -0.0165312 -0.0172868 -0.0183203 -0.0196926 -0.0214648 -0.0236966 -0.0264488 -0.0299586 -0.0333826 -0.0373897 -0.0419458 -0.046968 -0.0523239 -0.0578392 -0.0633137 -0.0685429 -0.0733402 -0.0775539 -0.0810729 -0.0837309 -0.0856943 -0.0868579 -0.0872419 -0.0868836 -0.0858278 -0.0841207 -0.0818068 -0.0789268 -0.0755201 -0.0716315 -0.0673262 -0.0612741 -0.0551763 -0.0487806 -0.0424843 -0.0367476 -0.0319888 -0.0284772 -0.0262691 -0.0252184 -0.0250507 -0.0254582 -0.0261743 -0.0270085 -0.0278489 -0.018111 -0.018217 -0.0183722 -0.0186085 -0.0189693 -0.0195067 -0.020278 -0.0213432 -0.0227627 -0.0245963 -0.0269016 -0.0297353 -0.0332987 -0.0368202 -0.0409254 -0.0455752 -0.0506806 -0.0561029 -0.0616629 -0.0671576 -0.0723832 -0.0771567 -0.0813329 -0.0848115 -0.0875234 -0.089468 -0.0906223 -0.0910117 -0.0906796 -0.0896772 -0.0880581 -0.0858725 -0.0831645 -0.0799691 -0.0763144 -0.0722221 -0.0666435 -0.0609419 -0.0547772 -0.0484626 -0.0424332 -0.0371577 -0.0330181 -0.0302044 -0.0286749 -0.0282012 -0.0284668 -0.0291651 -0.0300602 -0.0310053 -0.0211184 -0.0211633 -0.0212688 -0.0214673 -0.0218021 -0.0223254 -0.0230942 -0.0241678 -0.0256056 -0.0274657 -0.0298032 -0.0326693 -0.0361961 -0.0397574 -0.0438981 -0.0485765 -0.053701 -0.0591304 -0.0646841 -0.0701592 -0.0753533 -0.0800865 -0.0842177 -0.0876528 -0.0904054 -0.0923266 -0.0934663 -0.0938507 -0.0935264 -0.0925495 -0.0909801 -0.0888757 -0.086287 -0.0832527 -0.0797972 -0.0759257 -0.0709836 -0.0657269 -0.0599289 -0.0538014 -0.0477117 -0.0421251 -0.0374948 -0.0341325 -0.0321188 -0.0313034 -0.0313878 -0.0320392 -0.0329791 -0.0340234 -0.0239154 -0.023902 -0.0239572 -0.0241131 -0.0244129 -0.0249078 -0.0256545 -0.0267111 -0.028136 -0.0299853 -0.0323117 -0.0351607 -0.0385569 -0.0421013 -0.046218 -0.0508661 -0.0559549 -0.0613444 -0.0668554 -0.0722867 -0.0774376 -0.0821293 -0.0862217 -0.0896225 -0.0924156 -0.0943163 -0.095442 -0.0958171 -0.0954885 -0.0945158 -0.0929642 -0.0908992 -0.0883802 -0.0854546 -0.082153 -0.0784845 -0.0742095 -0.0693856 -0.0640137 -0.0582093 -0.0522506 -0.0465561 -0.0416021 -0.0377911 -0.0353258 -0.0341566 -0.0340311 -0.0346093 -0.0355773 -0.036713 -0.0264375 -0.026371 -0.0263774 -0.0264878 -0.0267443 -0.0271969 -0.027901 -0.028914 -0.0302928 -0.0320925 -0.0343636 -0.0371465 -0.0403184 -0.0437906 -0.0478283 -0.0523942 -0.0574018 -0.0627155 -0.0681597 -0.0735358 -0.0786439 -0.0833044 -0.0873743 -0.0907582 -0.0935977 -0.0954866 -0.0966042 -0.0969705 -0.0966311 -0.0956472 -0.0940889 -0.092029 -0.0895363 -0.0866696 -0.0834719 -0.0799684 -0.0763076 -0.0718593 -0.0669059 -0.0614846 -0.0557832 -0.0501474 -0.0450337 -0.0408957 -0.0380402 -0.0365282 -0.036177 -0.0366609 -0.0376413 -0.0388604 -0.0286441 -0.028532 -0.028493 -0.0285569 -0.0287634 -0.0291604 -0.0298017 -0.0307435 -0.032042 -0.0337517 -0.0359224 -0.0385909 -0.0414477 -0.0447949 -0.0487033 -0.0531419 -0.0580312 -0.0632424 -0.0686054 -0.0739241 -0.0789987 -0.0836457 -0.0877162 -0.0911067 -0.0939993 -0.0958901 -0.0970091 -0.0973712 -0.0970189 -0.0960141 -0.0944307 -0.0923483 -0.0898451 -0.0869916 -0.0838456 -0.0804545 -0.0773172 -0.0731578 -0.0685637 -0.0635165 -0.0581254 -0.0526556 -0.0475143 -0.0431671 -0.0399965 -0.0381689 -0.0375877 -0.0379619 -0.0389412 -0.0402369 -0.0305189 -0.0303703 -0.0302915 -0.0303096 -0.030461 -0.0307905 -0.0313492 -0.0321919 -0.0333748 -0.0349528 -0.0369773 -0.0394837 -0.0419389 -0.045111 -0.0488444 -0.0531167 -0.0578579 -0.0629478 -0.0682223 -0.0734883 -0.0785439 -0.0832001 -0.0872985 -0.0907234 -0.0936731 -0.0955834 -0.0967171 -0.0970829 -0.0967196 -0.0956887 -0.094067 -0.0919401 -0.0893949 -0.0865127 -0.0833653 -0.0800236 -0.0773122 -0.0733384 -0.0690087 -0.0642712 -0.0591747 -0.0539096 -0.0488205 -0.0443543 -0.0409377 -0.0388274 -0.0380186 -0.0382718 -0.0392394 -0.0406073 -0.0320673 -0.0318925 -0.0317811 -0.0317561 -0.0318492 -0.0321005 -0.0325575 -0.0332732 -0.0343042 -0.0357077 -0.0375391 -0.0398357 -0.0418087 -0.0447585 -0.0482759 -0.0523492 -0.0569193 -0.0618755 -0.0670601 -0.0722823 -0.0773371 -0.0820276 -0.0861834 -0.0896732 -0.0926789 -0.09463 -0.0957948 -0.0961757 -0.0958073 -0.0947493 -0.0930808 -0.0908922 -0.0882773 -0.0853269 -0.0821246 -0.0787624 -0.0763889 -0.0724881 -0.0683054 -0.063772 -0.0588962 -0.0538074 -0.0487873 -0.0442469 -0.0406295 -0.0382613 -0.0372264 -0.0373486 -0.0382956 -0.0397342 -0.0333125 -0.033123 -0.0329874 -0.0329237 -0.0329569 -0.0331207 -0.0334574 -0.0340178 -0.0348595 -0.0360445 -0.0376349 -0.0396744 -0.0410915 -0.0437748 -0.0470405 -0.0508885 -0.0552712 -0.0600875 -0.065186 -0.0703768 -0.075451 -0.0802021 -0.0844459 -0.088033 -0.0910859 -0.093102 -0.0943177 -0.0947291 -0.0943653 -0.0932839 -0.0915645 -0.0893008 -0.0865923 -0.0835362 -0.080225 -0.0767669 -0.0746575 -0.0707122 -0.0665443 -0.0620802 -0.0573046 -0.0523032 -0.047304 -0.0426774 -0.0388652 -0.0362424 -0.0349733 -0.0349506 -0.0358678 -0.0373785 -0.0342908 -0.0340986 -0.0339486 -0.0338518 -0.0338248 -0.0338923 -0.0340901 -0.0344661 -0.0350801 -0.036001 -0.0373022 -0.0390379 -0.039834 -0.042211 -0.0451954 -0.0487992 -0.0529857 -0.0576626 -0.0626835 -0.0678588 -0.072974 -0.0778122 -0.0821741 -0.0858916 -0.0889734 -0.0910813 -0.0923712 -0.0928321 -0.0924872 -0.0913907 -0.0896211 -0.0872736 -0.0844507 -0.0812535 -0.077779 -0.0741454 -0.0722369 -0.0681258 -0.0638294 -0.0592774 -0.0544441 -0.049389 -0.0443008 -0.0395143 -0.0354629 -0.0325556 -0.0310251 -0.0308338 -0.0317086 -0.0332949 -0.0350465 -0.0348649 -0.0347114 -0.0345881 -0.0345007 -0.0344629 -0.0345018 -0.0346625 -0.0350084 -0.0356188 -0.0365826 -0.0379703 -0.038091 -0.0401279 -0.0428092 -0.0461584 -0.0501485 -0.0546939 -0.0596514 -0.06483 -0.0700093 -0.0749608 -0.07947 -0.0833503 -0.0864316 -0.0886599 -0.09005 -0.0905831 -0.0902758 -0.0891772 -0.0873633 -0.084928 -0.0819738 -0.0786023 -0.0749104 -0.0710184 -0.0692508 -0.0648473 -0.0602688 -0.0554522 -0.0503722 -0.0450767 -0.0397319 -0.0346494 -0.0302572 -0.0269918 -0.0251449 -0.0247454 -0.0255585 -0.0272241 -0.0356287 -0.0354724 -0.0353277 -0.0351851 -0.0350363 -0.0348815 -0.0347385 -0.0346494 -0.0346844 -0.0349373 -0.0355178 -0.0365173 -0.0359218 -0.0375932 -0.0399593 -0.0430538 -0.0468567 -0.0512864 -0.0562004 -0.0614049 -0.0666723 -0.071763 -0.0764469 -0.0805208 -0.0835607 -0.085938 -0.0874562 -0.0880873 -0.08784 -0.086757 -0.0849091 -0.0823866 -0.0792883 -0.0757124 -0.0717505 -0.067515 -0.0658223 -0.0609938 -0.055968 -0.0506911 -0.0451455 -0.0393814 -0.033559 -0.0279825 -0.0230863 -0.0193379 -0.0170834 -0.0164141 -0.017135 -0.0188825 -0.0360882 -0.0359754 -0.0358534 -0.035