# vtk DataFile Version 2.0
Presion
ASCII

DATASET STRUCTURED_GRID
DIMENSIONS   50   50   20

POINTS   50000   double
0.00568455   0.00568455   0.025
0.0174023   0.00568455   0.025
0.0298294   0.00568455   0.025
0.0429888   0.00568455   0.025
0.0569012   0.00568455   0.025
0.0715849   0.00568455   0.025
0.0870549   0.00568455   0.025
0.103323   0.00568455   0.025
0.120395   0.00568455   0.025
0.138275   0.00568455   0.025
0.156961   0.00568455   0.025
0.176443   0.00568455   0.025
0.196707   0.00568455   0.025
0.217734   0.00568455   0.025
0.239496   0.00568455   0.025
0.261959   0.00568455   0.025
0.285082   0.00568455   0.025
0.308818   0.00568455   0.025
0.333113   0.00568455   0.025
0.357906   0.00568455   0.025
0.383132   0.00568455   0.025
0.408719   0.00568455   0.025
0.434592   0.00568455   0.025
0.460672   0.00568455   0.025
0.486877   0.00568455   0.025
0.513123   0.00568455   0.025
0.539328   0.00568455   0.025
0.565408   0.00568455   0.025
0.591281   0.00568455   0.025
0.616868   0.00568455   0.025
0.642094   0.00568455   0.025
0.666887   0.00568455   0.025
0.691182   0.00568455   0.025
0.714918   0.00568455   0.025
0.738041   0.00568455   0.025
0.760504   0.00568455   0.025
0.782266   0.00568455   0.025
0.803293   0.00568455   0.025
0.823557   0.00568455   0.025
0.843039   0.00568455   0.025
0.861725   0.00568455   0.025
0.879605   0.00568455   0.025
0.896677   0.00568455   0.025
0.912945   0.00568455   0.025
0.928415   0.00568455   0.025
0.943099   0.00568455   0.025
0.957011   0.00568455   0.025
0.970171   0.00568455   0.025
0.982598   0.00568455   0.025
0.994315   0.00568455   0.025
0.00568455   0.0174023   0.025
0.0174023   0.0174023   0.025
0.0298294   0.0174023   0.025
0.0429888   0.0174023   0.025
0.0569012   0.0174023   0.025
0.0715849   0.0174023   0.025
0.0870549   0.0174023   0.025
0.103323   0.0174023   0.025
0.120395   0.0174023   0.025
0.138275   0.0174023   0.025
0.156961   0.0174023   0.025
0.176443   0.0174023   0.025
0.196707   0.0174023   0.025
0.217734   0.0174023   0.025
0.239496   0.0174023   0.025
0.261959   0.0174023   0.025
0.285082   0.0174023   0.025
0.308818   0.0174023   0.025
0.333113   0.0174023   0.025
0.357906   0.0174023   0.025
0.383132   0.0174023   0.025
0.408719   0.0174023   0.025
0.434592   0.0174023   0.025
0.460672   0.0174023   0.025
0.486877   0.0174023   0.025
0.513123   0.0174023   0.025
0.539328   0.0174023   0.025
0.565408   0.0174023   0.025
0.591281   0.0174023   0.025
0.616868   0.0174023   0.025
0.642094   0.0174023   0.025
0.666887   0.0174023   0.025
0.691182   0.0174023   0.025
0.714918   0.0174023   0.025
0.738041   0.0174023   0.025
0.760504   0.0174023   0.025
0.782266   0.0174023   0.025
0.803293   0.0174023   0.025
0.823557   0.0174023   0.025
0.843039   0.0174023   0.025
0.861725   0.0174023   0.025
0.879605   0.0174023   0.025
0.896677   0.0174023   0.025
0.912945   0.0174023   0.025
0.928415   0.0174023   0.025
0.943099   0.0174023   0.025
0.957011   0.0174023   0.025
0.970171   0.0174023   0.025
0.982598   0.0174023   0.025
0.994315   0.0174023   0.025
0.00568455   0.0298294   0.025
0.0174023   0.0298294   0.025
0.0298294   0.0298294   0.025
0.0429888   0.0298294   0.025
0.0569012   0.0298294   0.025
0.0715849   0.0298294   0.025
0.0870549   0.0298294   0.025
0.103323   0.0298294   0.025
0.120395   0.0298294   0.025
0.138275   0.0298294   0.025
0.156961   0.0298294   0.025
0.176443   0.0298294   0.025
0.196707   0.0298294   0.025
0.217734   0.0298294   0.025
0.239496   0.0298294   0.025
0.261959   0.0298294   0.025
0.285082   0.0298294   0.025
0.308818   0.0298294   0.025
0.333113   0.0298294   0.025
0.357906   0.0298294   0.025
0.383132   0.0298294   0.025
0.408719   0.0298294   0.025
0.434592   0.0298294   0.025
0.460672   0.0298294   0.025
0.486877   0.0298294   0.025
0.513123   0.0298294   0.025
0.539328   0.0298294   0.025
0.565408   0.0298294   0.025
0.591281   0.0298294   0.025
0.616868   0.0298294   0.025
0.642094   0.0298294   0.025
0.666887   0.0298294   0.025
0.691182   0.0298294   0.025
0.714918   0.0298294   0.025
0.738041   0.0298294   0.025
0.760504   0.0298294   0.025
0.782266   0.0298294   0.025
0.803293   0.0298294   0.025
0.823557   0.0298294   0.025
0.843039   0.0298294   0.025
0.861725   0.0298294   0.025
0.879605   0.0298294   0.025
0.896677   0.0298294   0.025
0.912945   0.0298294   0.025
0.928415   0.0298294   0.025
0.943099   0.0298294   0.025
0.957011   0.0298294   0.025
0.970171   0.0298294   0.025
0.982598   0.0298294   0.025
0.994315   0.0298294   0.025
0.00568455   0.0429888   0.025
0.0174023   0.0429888   0.025
0.0298294   0.0429888   0.025
0.0429888   0.0429888   0.025
0.0569012   0.0429888   0.025
0.0715849   0.0429888   0.025
0.0870549   0.0429888   0.025
0.103323   0.0429888   0.025
0.120395   0.0429888   0.025
0.138275   0.0429888   0.025
0.156961   0.0429888   0.025
0.176443   0.0429888   0.025
0.196707   0.0429888   0.025
0.217734   0.0429888   0.025
0.239496   0.0429888   0.025
0.261959   0.0429888   0.025
0.285082   0.0429888   0.025
0.308818   0.0429888   0.025
0.333113   0.0429888   0.025
0.357906   0.0429888   0.025
0.383132   0.0429888   0.025
0.408719   0.0429888   0.025
0.434592   0.0429888   0.025
0.460672   0.0429888   0.025
0.486877   0.0429888   0.025
0.513123   0.0429888   0.025
0.539328   0.0429888   0.025
0.565408   0.0429888   0.025
0.591281   0.0429888   0.025
0.616868   0.0429888   0.025
0.642094   0.0429888   0.025
0.666887   0.0429888   0.025
0.691182   0.0429888   0.025
0.714918   0.0429888   0.025
0.738041   0.0429888   0.025
0.760504   0.0429888   0.025
0.782266   0.0429888   0.025
0.803293   0.0429888   0.025
0.823557   0.0429888   0.025
0.843039   0.0429888   0.025
0.861725   0.0429888   0.025
0.879605   0.0429888   0.025
0.896677   0.0429888   0.025
0.912945   0.0429888   0.025
0.928415   0.0429888   0.025
0.943099   0.0429888   0.025
0.957011   0.0429888   0.025
0.970171   0.0429888   0.025
0.982598   0.0429888   0.025
0.994315   0.0429888   0.025
0.00568455   0.0569012   0.025
0.0174023   0.0569012   0.025
0.0298294   0.0569012   0.025
0.0429888   0.0569012   0.025
0.0569012   0.0569012   0.025
0.0715849   0.0569012   0.025
0.0870549   0.0569012   0.025
0.103323   0.0569012   0.025
0.120395   0.0569012   0.025
0.138275   0.0569012   0.025
0.156961   0.0569012   0.025
0.176443   0.0569012   0.025
0.196707   0.0569012   0.025
0.217734   0.0569012   0.025
0.239496   0.0569012   0.025
0.261959   0.0569012   0.025
0.285082   0.0569012   0.025
0.308818   0.0569012   0.025
0.333113   0.0569012   0.025
0.357906   0.0569012   0.025
0.383132   0.0569012   0.025
0.408719   0.0569012   0.025
0.434592   0.0569012   0.025
0.460672   0.0569012   0.025
0.486877   0.0569012   0.025
0.513123   0.0569012   0.025
0.539328   0.0569012   0.025
0.565408   0.0569012   0.025
0.591281   0.0569012   0.025
0.616868   0.0569012   0.025
0.642094   0.0569012   0.025
0.666887   0.0569012   0.025
0.691182   0.0569012   0.025
0.714918   0.0569012   0.025
0.738041   0.0569012   0.025
0.760504   0.0569012   0.025
0.782266   0.0569012   0.025
0.803293   0.0569012   0.025
0.823557   0.0569012   0.025
0.843039   0.0569012   0.025
0.861725   0.0569012   0.025
0.879605   0.0569012   0.025
0.896677   0.0569012   0.025
0.912945   0.0569012   0.025
0.928415   0.0569012   0.025
0.943099   0.0569012   0.025
0.957011   0.0569012   0.025
0.970171   0.0569012   0.025
0.982598   0.0569012   0.025
0.994315   0.0569012   0.025
0.00568455   0.0715849   0.025
0.0174023   0.0715849   0.025
0.0298294   0.0715849   0.025
0.0429888   0.0715849   0.025
0.0569012   0.0715849   0.025
0.0715849   0.0715849   0.025
0.0870549   0.0715849   0.025
0.103323   0.0715849   0.025
0.120395   0.0715849   0.025
0.138275   0.0715849   0.025
0.156961   0.0715849   0.025
0.176443   0.0715849   0.025
0.196707   0.0715849   0.025
0.217734   0.0715849   0.025
0.239496   0.0715849   0.025
0.261959   0.0715849   0.025
0.285082   0.0715849   0.025
0.308818   0.0715849   0.025
0.333113   0.0715849   0.025
0.357906   0.0715849   0.025
0.383132   0.0715849   0.025
0.408719   0.0715849   0.025
0.434592   0.0715849   0.025
0.460672   0.0715849   0.025
0.486877   0.0715849   0.025
0.513123   0.0715849   0.025
0.539328   0.0715849   0.025
0.565408   0.0715849   0.025
0.591281   0.0715849   0.025
0.616868   0.0715849   0.025
0.642094   0.0715849   0.025
0.666887   0.0715849   0.025
0.691182   0.0715849   0.025
0.714918   0.0715849   0.025
0.738041   0.0715849   0.025
0.760504   0.0715849   0.025
0.782266   0.0715849   0.025
0.803293   0.0715849   0.025
0.823557   0.0715849   0.025
0.843039   0.0715849   0.025
0.861725   0.0715849   0.025
0.879605   0.0715849   0.025
0.896677   0.0715849   0.025
0.912945   0.0715849   0.025
0.928415   0.0715849   0.025
0.943099   0.0715849   0.025
0.957011   0.0715849   0.025
0.970171   0.0715849   0.025
0.982598   0.0715849   0.025
0.994315   0.0715849   0.025
0.00568455   0.0870549   0.025
0.0174023   0.0870549   0.025
0.0298294   0.0870549   0.025
0.0429888   0.0870549   0.025
0.0569012   0.0870549   0.025
0.0715849   0.0870549   0.025
0.0870549   0.0870549   0.025
0.103323   0.0870549   0.025
0.120395   0.0870549   0.025
0.138275   0.0870549   0.025
0.156961   0.0870549   0.025
0.176443   0.0870549   0.025
0.196707   0.0870549   0.025
0.217734   0.0870549   0.025
0.239496   0.0870549   0.025
0.261959   0.0870549   0.025
0.285082   0.0870549   0.025
0.308818   0.0870549   0.025
0.333113   0.0870549   0.025
0.357906   0.0870549   0.025
0.383132   0.0870549   0.025
0.408719   0.0870549   0.025
0.434592   0.0870549   0.025
0.460672   0.0870549   0.025
0.486877   0.0870549   0.025
0.513123   0.0870549   0.025
0.539328   0.0870549   0.025
0.565408   0.0870549   0.025
0.591281   0.0870549   0.025
0.616868   0.0870549   0.025
0.642094   0.0870549   0.025
0.666887   0.0870549   0.025
0.691182   0.0870549   0.025
0.714918   0.0870549   0.025
0.738041   0.0870549   0.025
0.760504   0.0870549   0.025
0.782266   0.0870549   0.025
[...]
POINT_DATA   50000
SCALARS Presion double
LOOKUP_TABLE   Presion

0 0 0 0 0 0 0 0 0 0 0 0 0 0 0 0 0 0 0 0 0 0 0 0 0 0 0 0 0 0 0 0 0 0 0 0 0 0 0 0 0 0 0 0 0 0 0 0 0 0 0.00164615 0.00179203 0.0019681 0.0020954 0.00215962 0.00216194 0.00210696 0.00199975 0.00184514 0.00164732 0.0014096 0.00113362 0.000678257 0.000402323 0.000156263 -5.79474e-05 -0.00023531 -0.000367565 -0.000445047 -0.000459056 -0.000404277 -0.000280782 -9.50006e-05 0.000140569 0.000389437 0.000636983 0.000849908 0.00100145 0.00107029 0.00104265 0.000913908 0.000689244 0.000383331 1.91759e-05 -0.000373753 -0.000760886 -0.00100849 -0.00136888 -0.00170441 -0.0019976 -0.00223803 -0.00241999 -0.00254057 -0.00259835 -0.00259255 -0.00252269 -0.00238883 -0.00219449 -0.00196001 -0.00177762 0.00216119 0.00215004 0.00219941 0.00224968 0.00227143 0.00225257 0.00218943 0.00208231 0.00193339 0.00174586 0.00152397 0.00127166 0.000755572 0.00050605 0.000273775 6.57971e-05 -0.000110621 -0.000246565 -0.000332424 -0.000359749 -0.000323358 -0.000223168 -6.51912e-05 0.00013699 0.000358192 0.000574644 0.000758712 0.000885076 0.000933588 0.000891321 0.000754101 0.0005271 0.000224359 -0.00013273 -0.00051806 -0.000901654 -0.00107781 -0.0014353 -0.00176003 -0.00204058 -0.00226972 -0.00244373 -0.00256129 -0.00262288 -0.00263059 -0.00258869 -0.00250558 -0.00239856 -0.00230363 -0.00229005 0.00251044 0.00246081 0.0024462 0.00244074 0.00242316 0.00237996 0.00230408 0.00219277 0.00204609 0.00186616 0.00165734 0.00142283 0.000837397 0.000610146 0.000390162 0.000186524 7.98821e-06 -0.000135875 -0.000235227 -0.000281428 -0.000268867 -0.00019669 -7.00127e-05 9.64076e-05 0.00029455 0.000485844 0.000648504 0.000758123 0.000794655 0.00074475 0.000603563 0.000375516 7.37832e-05 -0.000281541 -0.000666578 -0.00105282 -0.0011535 -0.00151318 -0.00183266 -0.00210524 -0.00232709 -0.00249682 -0.00261506 -0.0026842 -0.00270861 -0.00269535 -0.00265569 -0.00260732 -0.00257604 -0.00259273 0.00280118 0.00274182 0.00269559 0.00265382 0.00260495 0.00253892 0.00244876 0.00233059 0.00218322 0.00200784 0.0018084 0.00158618 0.000926107 0.000715019 0.000503156 0.000299759 0.000114183 -4.35404e-05 -0.000163147 -0.00023535 -0.000253463 -0.000215103 -0.000123727 5.45168e-06 0.000182462 0.000354658 0.000503616 0.000605526 0.000639476 0.000590481 0.000451862 0.000226393 -7.40627e-05 -0.00043056 -0.000820501 -0.00121478 -0.0012399 -0.00160581 -0.0019245 -0.00219329 -0.00241164 -0.00258055 -0.00270245 -0.00278122 -0.0028224 -0.0028336 -0.00282499 -0.00280941 -0.00280101 -0.00281087 0.00308235 0.0030147 0.00294876 0.0028822 0.00280936 0.0027237 0.00261963 0.00249326 0.00234281 0.00216872 0.00197425 0.00175819 0.00102106 0.000818446 0.000607939 0.000398048 0.000198025 1.81173e-05 -0.000130822 -0.000238374 -0.00029605 -0.000299048 -0.00024813 -0.000157832 -1.8062e-06 0.000156654 0.000299571 0.000403496 0.00044577 0.000408578 0.000282116 6.63772e-05 -0.00022886 -0.00058598 -0.000983072 -0.00138896 -0.00134191 -0.00171677 -0.00203776 -0.00230611 -0.00252432 -0.00269547 -0.00282337 -0.00291271 -0.00296919 -0.00299952 -0.00301139 -0.0030128 -0.00301074 -0.00300881 0.00337344 0.00329216 0.00320868 0.00312241 0.00303032 0.00292804 0.00281113 0.00267595 0.00252032 0.00234397 0.00214929 0.00193226 0.00111812 0.000914544 0.000695931 0.000469748 0.000244716 3.11368e-05 -0.000159359 -0.000314692 -0.000423771 -0.000478368 -0.000475322 -0.000427149 -0.000291951 -0.000143723 2.91988e-07 0.000116712 0.000180286 0.000169119 6.87919e-05 -0.000124988 -0.000405753 -0.000757888 -0.00116008 -0.00157811 -0.00146586 -0.00185008 -0.00217452 -0.00244459 -0.00266542 -0.00284155 -0.0029775 -0.00307808 -0.00314844 -0.00319393 -0.00321983 -0.00323094 -0.00323078 -0.00322081 0.00367849 0.00357748 0.00347482 0.00337012 0.00326111 0.00314423 0.0030154 0.00287087 0.00270785 0.00252519 0.00232411 0.00209764 0.00120857 0.000992492 0.00075335 0.000497539 0.000233075 -2.97088e-05 -0.00027813 -0.000497863 -0.00067435 -0.000794848 -0.000850942 -0.000851684 -0.00073463 -0.000596509 -0.000445516 -0.000305447 -0.000204988 -0.000171459 -0.000225675 -0.000378203 -0.00062774 -0.000962007 -0.00136085 -0.00178664 -0.00162063 -0.00201062 -0.00233682 -0.00260921 -0.00283475 -0.00301846 -0.00316471 -0.00327775 -0.00336176 -0.0034207 -0.00345816 -0.0034771 -0.00347967 -0.00346702 0.00399173 0.00386561 0.00374105 0.0036174 0.00349221 0.00336166 0.00322121 0.00306631 0.00289314 0.00269921 0.00248426 0.00223818 0.00127764 0.00103501 0.000759582 0.000456737 0.000133799 -0.000198734 -0.000526749 -0.000833018 -0.00109861 -0.00130515 -0.00143759 -0.0015 -0.00139319 -0.00127026 -0.00110879 -0.000933662 -0.000777808 -0.000675407 -0.000655773 -0.000738312 -0.000929512 -0.00122265 -0.00160015 -0.00202148 -0.00181935 -0.00220513 -0.00252728 -0.00280042 -0.00303197 -0.00322593 -0.00338535 -0.00351316 -0.00361227 -0.00368537 -0.0037349 -0.00376292 -0.00377113 -0.00376096 0.00429938 0.00414377 0.00399467 0.00385095 0.00370942 0.00356524 0.00341262 0.00324551 0.00305839 0.00284695 0.00260892 0.00233101 0.00130295 0.00101676 0.000685492 0.000313568 -9.22858e-05 -0.00052114 -0.000956973 -0.00137894 -0.00176279 -0.00208337 -0.00231773 -0.00246325 -0.00235179 -0.00225633 -0.00208481 -0.00186394 -0.0016315 -0.00142993 -0.00129938 -0.00127122 -0.00136324 -0.0015776 -0.00190182 -0.0022943 -0.0020824 -0.00244409 -0.00275041 -0.00301973 -0.00325744 -0.00346434 -0.00364059 -0.00378684 -0.00390426 -0.00399433 -0.0040586 -0.00409868 -0.00411624 -0.00411306 0.00457974 0.0043914 0.00421568 0.0040508 0.00389237 0.00373391 0.00356764 0.00338533 0.0031791 0.00294221 0.0026698 0.00234538 0.00125291 0.000902793 0.000491931 2.3691e-05 -0.000495654 -0.0010544 -0.00163405 -0.00220936 -0.00274982 -0.00322232 -0.00359481 -0.00385599 -0.00371885 -0.00367207 -0.00349684 -0.00322198 -0.0028903 -0.00255358 -0.00226507 -0.00207157 -0.0020065 -0.00208541 -0.00230494 -0.0026263 -0.00244229 -0.0027453 -0.00301548 -0.00327184 -0.00351382 -0.0037359 -0.00393318 -0.00410272 -0.00424327 -0.00435479 -0.004438 -0.00449419 -0.00452509 -0.00453282 0.00480293 0.00457987 0.00437627 0.00418948 0.00401344 0.00383944 0.00365709 0.00345526 0.0032231 0.0029508 0.0026303 0.0022419 0.00108565 0.000647618 0.00012884 -0.000468559 -0.00113864 -0.00186854 -0.00263666 -0.00341253 -0.0041583 -0.00483178 -0.00539065 -0.0058124 -0.0056278 -0.0056607 -0.00549594 -0.00516374 -0.00471135 -0.00420013 -0.00369807 -0.0032706 -0.00297151 -0.00283537 -0.00287353 -0.00305694 -0.002951 -0.00313994 -0.00334133 -0.0035684 -0.00380879 -0.0040465 -0.00426873 -0.00446705 -0.00463665 -0.00477537 -0.00488285 -0.00495993 -0.00500838 -0.00503061 0.00493077 0.00467236 0.00444061 0.00423163 0.00403724 0.00384592 0.00364401 0.00341693 0.0031502 0.00283032 0.00244539 0.00197256 0.000748807 0.00019516 -0.000464484 -0.00122956 -0.00209438 -0.00304448 -0.00405446 -0.00508765 -0.00609766 -0.00703194 -0.00783677 -0.00847515 -0.00823166 -0.00838407 -0.008253 -0.00786794 -0.00727879 -0.00655539 -0.00578051 -0.00504032 -0.00441313 -0.00395862 -0.00370989 -0.00365853 -0.00368958 -0.00368134 -0.00376369 -0.00393341 -0.0041589 -0.00440844 -0.00465754 -0.00488963 -0.00509459 -0.00526706 -0.00540494 -0.00550835 -0.00557889 -0.00561919 0.00491725 0.0046245 0.00436542 0.00413452 0.00392101 0.00371001 0.00348406 0.00322451 0.00291271 0.00253088 0.00206263 0.00148191 0.000180739 -0.000519592 -0.00135727 -0.00233366 -0.00344319 -0.00466929 -0.00598185 -0.0073368 -0.00867779 -0.00994034 -0.011058 -0.0119755 -0.0116875 -0.0120043 -0.0119386 -0.0115156 -0.0107846 -0.00982087 -0.0087198 -0.0075878 -0.00652994 -0.00563623 -0.00496922 -0.00455628 -0.00477737 -0.0044552 -0.0043438 -0.00440976 -0.00459418 -0.00484353 -0.00511678 -0.00538542 -0.00563137 -0.00584429 -0.00601926 -0.00615505 -0.00625279 -0.00631519 0.00471026 0.00438597 0.00410156 0.00384959 0.00361619 0.00338262 0.00312712 0.00282652 0.00245748 0.00199736 0.00142472 0.000710089 -0.000686114 -0.00156668 -0.00262262 -0.0038575 -0.00526562 -0.00682752 -0.0085072 -0.0102516 -0.0119925 -0.0136518 -0.0151486 -0.0164054 -0.0161274 -0.0166521 -0.0166889 -0.0162541 -0.0153926 -0.0141798 -0.0127188 -0.0111321 -0.00955036 -0.00809622 -0.00686843 -0.00594862 -0.00637454 -0.00558688 -0.00517558 -0.00506506 -0.00516246 -0.00538617 -0.00567251 -0.00597593 -0.00626639 -0.00652583 -0.00674479 -0.00691964 -0.00705052 -0.00713997 0.0042546 0.00390351 0.00359705 0.00332545 0.00307137 0.00281186 0.0025205 0.00216916 0.00172944 0.00117339 0.000473926 -0.000402217 -0.00191935 -0.00301455 -0.00432987 -0.00587113 -0.00763187 -0.00958859 -0.0116977 -0.013895 -0.0160985 -0.0182139 -0.0201444 -0.0217876 -0.021619 -0.0223849 -0.0225607 -0.0221501 -0.0211887 -0.0197464 -0.0179262 -0.0158592 -0.0136953 -0.0115878 -0.00967548 -0.00811242 -0.00866812 -0.00723825 -0.00638697 -0.00599454 -0.00593241 -0.00608572 -0.00636141 -0.00669024 -0.00702476 -0.00733517 -0.00760479 -0.00782596 -0.00799697 -0.00811974 0.00349657 0.00312541 0.00280143 0.00251225 0.00223682 0.00194775 0.00161369 0.00120139 0.00067706 7.09412e-06 -0.000841628 -0.00190673 -0.00357812 -0.00492075 -0.00653427 -0.00842625 -0.0105884 -0.0129914 -0.0155819 -0.018282 -0.0209933 -0.0236039 -0.0259992 -0.0280514 -0.0281233 -0.0291461 -0.0294897 -0.0291436 -0.0281308 -0.0265101 -0.0243761 -0.0218585 -0.0191159 -0.0163249 -0.0136626 -0.0113685 -0.0118351 -0.00958778 -0.00813142 -0.00731928 -0.00699451 -0.00700811 -0.00723194 -0.00756569 -0.00793752 -0.00830035 -0.00862639 -0.0089015 -0.00912069 -0.00928464 0.00238983 0.0020072 0.00167144 0.00136742 0.00107026 0.000748058 0.000364547 -0.000118723 -0.000741014 -0.00154175 -0.00256026 -0.00383914 -0.00570271 -0.00732089 -0.00926497 -0.0115433 -0.0141438 -0.0170293 -0.0201337 -0.0233631 -0.0266003 -0.0297145 -0.0325732 -0.0350265 -0.0354693 -0.0367432 -0.0372691 -0.0370244 -0.0360187 -0.0342966 -0.0319381 -0.029061 -0.0258203 -0.0224034 -0.0190183 -0.0159894 -0.0159903 -0.0127948 -0.0105689 -0.00917826 -0.00845906 -0.00823613 -0.00834504 -0.0086481 -0.00904127 -0.00945315 -0.00983942 -0.0101759 -0.0104523 -0.0106668 0.000901977 0.000518036 0.000177348 -0.000138055 -0.000456772 -0.00081507 -0.00125397 -0.00181695 -0.00254861 -0.00349407 -0.00469874 -0.00621066 -0.008304 -0.0102177 -0.0125139 -0.0151998 -0.0182577 -0.0216394 -0.0252637 -0.029018 -0.0327655 -0.0363565 -0.0396421 -0.0424571 -0.0433621 -0.044861 -0.0455665 -0.0454486 -0.0445065 -0.0427711 -0.0403054 -0.0372084 -0.0336196 -0.0297229 -0.0257429 -0.0220693 -0.0211422 -0.0169585 -0.013838 -0.011713 -0.0104492 -0.00986707 -0.00977354 -0.00999142 -0.0103774 -0.0108277 -0.0112746 -0.0116789 -0.0120218 -0.0122974 -0.000979156 -0.00135316 -0.00169105 -0.00201355 -0.00235275 -0.00274891 -0.00324743 -0.00389642 -0.00474544 -0.00584484 -0.00724556 -0.00900115 -0.011355 -0.0135731 -0.0162283 -0.0193246 -0.022836 -0.0267008 -0.0308205 -0.0350626 -0.039271 -0.0432789 -0.0469249 -0.0500376 -0.0514291 -0.0531128 -0.0539788 -0.0539962 -0.0531598 -0.0514914 -0.0490384 -0.0458788 -0.0421295 -0.0379567 -0.0335829 -0.0294234 -0.0271796 -0.0220855 -0.0180234 -0.0150427 -0.013086 -0.012005 -0.0115984 -0.0116555 -0.0119901 -0.0124582 -0.0129607 -0.0134369 -0.0138551 -0.0142031 -0.0032406 -0.00359299 -0.00391977 -0.00424424 -0.00460158 -0.00503555 -0.00559534 -0.00633309 -0.00730261 -0.00855876 -0.010157 -0.0121559 -0.0147874 -0.0173053 -0.0203093 -0.023798 -0.0277348 -0.0320429 -0.036605 -0.0412692 -0.0458617 -0.050203 -0.054124 -0.0574568 -0.05929 -0.0611119 -0.0621073 -0.0622511 -0.0615409 -0.0599952 -0.0576512 -0.0545686 -0.0508393 -0.0466018 -0.0420568 -0.0375948 -0.0338875 -0.0280719 -0.0231222 -0.0192321 -0.0164639 -0.0147451 -0.0138995 -0.0137005 -0.0139221 -0.0143751 -0.0149206 -0.0154689 -0.0159698 -0.0164012 -0.00584201 -0.00616144 -0.00646859 -0.00678907 -0.00716067 -0.00763004 -0.00824942 -0.00907419 -0.0101615 -0.0115697 -0.0133575 -0.0155871 -0.0184939 -0.0212928 -0.0246182 -0.0284615 -0.032774 -0.0374629 -0.0423926 -0.0473938 -0.0522787 -0.0568592 -0.060965 -0.0644386 -0.0666222 -0.0685361 -0.0696242 -0.0698724 -0.0692864 -0.0678876 -0.0657093 -0.0627985 -0.0592248 -0.0550948 -0.0505716 -0.0459769 -0.0409776 -0.0347019 -0.0290189 -0.0242566 -0.0206189 -0.0181497 -0.0167399 -0.0161765 -0.0162078 -0.0165992 -0.0171658 -0.0177808 -0.0183689 -0.0188938 -0.00871677 -0.00899303 -0.00927227 -0.00958211 -0.00996243 -0.0104621 -0.0111356 -0.0120407 -0.0132368 -0.0147845 -0.0167443 -0.0191801 -0.0223372 -0.0253851 -0.0289894 -0.0331331 -0.0377552 -0.0427477 -0.0479587 -0.0532047 -0.058288 -0.063017 -0.0672249 -0.0707687 -0.0731978 -0.0751627 -0.0763077 -0.0766315 -0.0761511 -0.0748947 -0.072897 -0.0701992 -0.0668545 -0.0629394 -0.0585721 -0.0539819 -0.0481181 -0.0416644 -0.035479 -0.029978 -0.0254974 -0.0222197 -0.0201435 -0.0191083 -0.0188617 -0.0191331 -0.0196891 -0.0203589 -0.0210348 -0.021661 -0.0117768 -0.0120015 -0.0122453 -0.0125374 -0.0129193 -0.0134414 -0.0141597 -0.0151334 -0.0164232 -0.0180904 -0.0201959 -0.0228034 -0.0261634 -0.0294171 -0.0332462 -0.0376253 -0.0424822 -0.0476954 -0.0531004 -0.0585031 -0.0637003 -0.068501 -0.0727444 -0.0763037 -0.078887 -0.0808703 -0.0820419 -0.0824125 -0.0820105 -0.0808725 -0.0790383 -0.076549 -0.0734484 -0.0697898 -0.0656498 -0.061166 -0.0549673 -0.0485908 -0.0421697 -0.0361427 -0.0309371 -0.0268695 -0.0240719 -0.0224769 -0.0218658 -0.0219513 -0.0224565 -0.023162 -0.0239215 -0.024654 -0.0149203 -0.0150875 -0.0152895 -0.0155567 -0.0159318 -0.016466 -0.0172162 -0.0182422 -0.0196049 -0.0213654 -0.0235834 -0.0263204 -0.0298164 -0.0332249 -0.0372177 -0.0417624 -0.0467773 -0.0521313 -0.0576504 -0.0631345 -0.068378 -0.073193 -0.077426 -0.0809643 -0.0836381 -0.0856166 -0.0867926 -0.087186 -0.0868341 -0.0857819 -0.0840761 -0.0817614 -0.0788791 -0.0754692 -0.0715768 -0.0672679 -0.0612104 -0.0551069 -0.048707 -0.0424085 -0.036672 -0.0319156 -0.0284074 -0.026203 -0.0251555 -0.02499 -0.0253988 -0.0261153 -0.0269493 -0.0277892 -0.0180414 -0.018148 -0.0183034 -0.018539 -0.0188979 -0.019432 -0.0201982 -0.0212563 -0.0226667 -0.0244892 -0.0267816 -0.0296013 -0.0331519 -0.0366594 -0.0407523 -0.0453929 -0.0504936 -0.0559168 -0.0614833 -0.0669902 -0.0722325 -0.0770255 -0.0812224 -0.0847212 -0.0874501 -0.0894103 -0.0905772 -0.0909759 -0.0906499 -0.0896508 -0.0880325 -0.0858458 -0.0831352 -0.0799363 -0.0762773 -0.0721807 -0.066594 -0.0608858 -0.0547151 -0.0483958 -0.0423638 -0.0370878 -0.0329496 -0.0301382 -0.0286112 -0.0281396 -0.0284066 -0.0291055 -0.0300006 -0.0309455 -0.0210401 -0.021086 -0.021192 -0.02139 -0.0217233 -0.0222436 -0.0230077 -0.0240747 -0.025504 -0.0273537 -0.0296793 -0.0325325 -0.0360477 -0.0395965 -0.0437266 -0.0483978 -0.0535197 -0.058952 -0.0645144 -0.0700035 -0.0752158 -0.0799697 -0.0841225 -0.0875785 -0.0903488 -0.092286 -0.0934382 -0.0938319 -0.0935134 -0.0925396 -0.0909706 -0.0888647 -0.0862731 -0.083235 -0.0797749 -0.0758986 -0.0709476 -0.0656841 -0.0598792 -0.0537455 -0.047651 -0.0420615 -0.0374303 -0.0340686 -0.0320565 -0.0312427 -0.0313283 -0.0319805 -0.0329207 -0.0339649 -0.0238311 -0.0238189 -0.0238747 -0.0240305 -0.0243291 -0.0248214 -0.0255638 -0.0266144 -0.0280314 -0.0298712 -0.0321866 -0.0350238 -0.0384096 -0.0419427 -0.0460503 -0.0506927 -0.0557804 -0.0611743 -0.0666953 -0.0721417 -0.0773116 -0.0820248 -0.0861393 -0.0895613 -0.0923726 -0.0942893 -0.0954277 -0.095812 -0.0954891 -0.094519 -0.0929677 -0.0909009 -0.0883786 -0.0854489 -0.0821426 -0.0784691 -0.0741852 -0.0693548 -0.063976 -0.0581648 -0.0522 -0.0465009 -0.041544 -0.0377318 -0.0352668 -0.0340985 -0.033974 -0.0345531 -0.0355215 -0.0366573 -0.0263497 -0.0262845 -0.0262917 -0.0264023 -0.0266579 -0.0271084 -0.0278087 -0.0288162 -0.0301879 -0.0319787 -0.0342397 -0.0370118 -0.0401744 -0.0436364 -0.0476661 -0.0522273 -0.0572348 -0.0625536 -0.0680084 -0.0734 -0.0785275 -0.0832096 -0.0873018 -0.090707 -0.0935648 -0.0954699 -0.0966001 -0.0969756 -0.0966419 -0.0956605 -0.0941021 -0.0920401 -0.089544 -0.0866729 -0.0834704 -0.079962 -0.076293 -0.0718387 -0.0668789 -0.0614509 -0.055743 -0.0501015 -0.0449835 -0.0408429 -0.0379865 -0.0364745 -0.036124 -0.0366086 -0.0375895 -0.0388089 -0.028555 -0.0284443 -0.0284064 -0.0284706 -0.0286765 -0.0290719 -0.02971 -0.0306469 -0.0319389 -0.0336405 -0.0358019 -0.0384605 -0.0413089 -0.0446468 -0.0485478 -0.0529822 -0.0578717 -0.0630881 -0.0684616 -0.0737957 -0.0788894 -0.0835579 -0.0876505 -0.0910624 -0.093973 -0.09588 -0.0970118 -0.0973831 -0.0970365 -0.0960341 -0.0944505 -0.0923659 -0.0898591 -0.0870012 -0.0838504 -0.0804545 -0.0773098 -0.0731453 -0.0685455 -0.0634923 -0.058095 -0.0526192 -0.0474729 -0.043122 -0.0399493 -0.0381211 -0.0375401 -0.0379148 -0.0388947 -0.0401908 -0.0304305 -0.0302834 -0.0302058 -0.0302245 -0.0303756 -0.0307038 -0.0312599 -0.0320984 -0.0332755 -0.0348462 -0.0368621 -0.0393593 -0.0418069 -0.0449703 -0.0486967 -0.0529649 -0.057706 -0.0628006 -0.068085 -0.0733655 -0.0784395 -0.0831167 -0.0872367 -0.0906827 -0.0936501 -0.0955765 -0.0967231 -0.0970982 -0.0967407 -0.0957123 -0.0940904 -0.0919613 -0.0894124 -0.0865258 -0.0833738 -0.0800276 -0.0773099 -0.0733316 -0.0689972 -0.0642546 -0.0591526 -0.053882 -0.0487878 -0.0443175 -0.0408981 -0.0387864 -0.0379774 -0.038231 -0.0391992 -0.0405675 -0.0319812 -0.031808 -0.0316979 -0.0316736 -0.0317668 -0.0320173 -0.0324721 -0.0331843 -0.0342102 -0.0356072 -0.0374307 -0.0397187 -0.0416849 -0.0446263 -0.0481368 -0.0522056 -0.0567749 -0.0617348 -0.0669281 -0.0721635 -0.0772356 -0.0819461 -0.086123 -0.0896335 -0.092656 -0.0946232 -0.0958008 -0.0961913 -0.0958288 -0.0947736 -0.0931051 -0.0909143 -0.088296 -0.0853413 -0.0821347 -0.0787684 -0.0763897 -0.0724851 -0.0682987 -0.0637614 -0.0588811 -0.0537877 -0.0487629 -0.0442184 -0.0405979 -0.0382278 -0.0371924 -0.0373148 -0.0382623 -0.0397014 -0.0332301 -0.0330421 -0.0329078 -0.032845 -0.0328786 -0.033042 -0.0333771 -0.0339347 -0.0347721 -0.0359513 -0.0375346 -0.0395658 -0.0409771 -0.0436522 -0.0469107 -0.0507536 -0.0551344 -0.059953 -0.0650584 -0.0702609 -0.0753508 -0.0801206 -0.0843845 -0.0879918 -0.0910603 -0.0930923 -0.094321 -0.0947421 -0.0943845 -0.0933062 -0.0915871 -0.0893216 -0.0866099 -0.08355 -0.0802348 -0.0767731 -0.0746597 -0.0707115 -0.0665408 -0.0620739 -0.0572951 -0.0522901 -0.0472871 -0.0426568 -0.0388416 -0.0362168 -0.0349469 -0.0349241 -0.0358418 -0.037353 -0.0342129 -0.0340222 -0.0338736 -0.0337778 -0.0337514 -0.0338189 -0.0340157 -0.0343896 -0.0350001 -0.0359161 -0.0372107 -0.0389387 -0.0397301 -0.042099 -0.0450758 -0.0486735 -0.0528567 -0.0575341 -0.06256 -0.0677449 -0.0728739 -0.0777292 -0.0821102 -0.0858471 -0.0889429 -0.0910666 -0.0923696 -0.0928403 -0.092502 -0.0914089 -0.0896401 -0.0872913 -0.0844656 -0.0812651 -0.0777871 -0.0741505 -0.0722395 -0.0681262 -0.063828 -0.0592743 -0.0544391 -0.0493816 -0.0442905 -0.0395011 -0.0354471 -0.0325378 -0.0310064 -0.030815 -0.0316902 -0.0332771 -0.0349738 -0.0347936 -0.0346415 -0.0345194 -0.0344328 -0.0343953 -0.0344339 -0.0345932 -0.0349364 -0.0355428 -0.0365009 -0.0378813 -0.0379986 -0.0400274 -0.0427006 -0.0460426 -0.0500277 -0.0545716 -0.0595318 -0.0647178 -0.0699087 -0.0748755 -0.0794024 -0.0833013 -0.0863946 -0.0886384 -0.0900417 -0.0905849 -0.0902845 -0.08919 -0.0873774 -0.0849413 -0.081985 -0.0786107 -0.0749161 -0.0710217 -0.069253 -0.0648482 -0.0602688 -0.0554516 -0.0503708 -0.0450742 -0.0397277 -0.0346431 -0.0302489 -0.0269818 -0.025134 -0.0247343 -0.0255478 -0.027214 -0.0355615 -0.0354067 -0.0352633 -0.0351219 -0.0349741 -0.0348201 -0.0346772 -0.0345876 -0.0346208 -0.0348707 -0.0354462 -0.0364391 -0.0358419 -0.0375052 -0.0398624 -0.0429486 -0.0467448 -0.0511708 -0.0560851 -0.0612944 -0.0665712 -0.0716752 -0.0763752 -0.0804667 -0.0835162 -0.0859088 -0.0874402 -0.0880817 -0.0878418 -0.0867634 -0.0849175 -0.0823949 -0.0792952 -0.0757173 -0.0717533 -0.0675162 -0.0658238 -0.0609949 -0.0559692 -0.0506927 -0.0451475 -0.0393835 -0.0335605 -0.0279829 -0.0230853 -0.0193355 -0.0170802 -0.0164107 -0.0171321 -0.0188801 -0.0360267 -0.0359153 -0.0357947 -0.0356407 -0.0354279 -0.0351407 -0.034787 -0.034408