# vtk DataFile Version 2.0
Velocidades
ASCII

DATASET STRUCTURED_GRID
DIMENSIONS   50   50   20

POINTS   50000   double
0.00568455   0.00568455   0.025
0.0174023   0.00568455   0.025
0.0298294   0.00568455   0.025
0.0429888   0.00568455   0.025
0.0569012   0.00568455   0.025
0.0715849   0.00568455   0.025
0.0870549   0.00568455   0.025
0.103323   0.00568455   0.025
0.120395   0.00568455   0.025
0.138275   0.00568455   0.025
0.156961   0.00568455   0.025
0.176443   0.00568455   0.025
0.196707   0.00568455   0.025
0.217734   0.00568455   0.025
0.239496   0.00568455   0.025
0.261959   0.00568455   0.025
0.285082   0.00568455   0.025
0.308818   0.00568455   0.025
0.333113   0.00568455   0.025
0.357906   0.00568455   0.025
0.383132   0.00568455   0.025
0.408719   0.00568455   0.025
0.434592   0.00568455   0.025
0.460672   0.00568455   0.025
0.486877   0.00568455   0.025
0.513123   0.00568455   0.025
0.539328   0.00568455   0.025
0.565408   0.00568455   0.025
0.591281   0.00568455   0.025
0.616868   0.00568455   0.025
0.642094   0.00568455   0.025
0.666887   0.00568455   0.025
0.691182   0.00568455   0.025
0.714918   0.00568455   0.025
0.738041   0.00568455   0.025
0.760504   0.00568455   0.025
0.782266   0.00568455   0.025
0.803293   0.00568455   0.025
0.823557   0.00568455   0.025
0.843039   0.00568455   0.025
0.861725   0.00568455   0.025
0.879605   0.00568455   0.025
0.896677   0.00568455   0.025
0.912945   0.00568455   0.025
0.928415   0.00568455   0.025
0.943099   0.00568455   0.025
0.957011   0.00568455   0.025
0.970171   0.00568455   0.025
0.982598   0.00568455   0.025
0.994315   0.00568455   0.025
0.00568455   0.0174023   0.025
0.0174023   0.0174023   0.025
0.0298294   0.0174023   0.025
0.0429888   0.0174023   0.025
0.0569012   0.0174023   0.025
0.0715849   0.0174023   0.025
0.0870549   0.0174023   0.025
0.103323   0.0174023   0.025
0.120395   0.0174023   0.025
0.138275   0.0174023   0.025
0.156961   0.0174023   0.025
0.176443   0.0174023   0.025
0.196707   0.0174023   0.025
0.217734   0.0174023   0.025
0.239496   0.0174023   0.025
0.261959   0.0174023   0.025
0.285082   0.0174023   0.025
0.308818   0.0174023   0.025
0.333113   0.0174023   0.025
0.357906   0.0174023   0.025
0.383132   0.0174023   0.025
0.408719   0.0174023   0.025
0.434592   0.0174023   0.025
0.460672   0.0174023   0.025
0.486877   0.0174023   0.025
0.513123   0.0174023   0.025
0.539328   0.0174023   0.025
0.565408   0.0174023   0.025
0.591281   0.0174023   0.025
0.616868   0.0174023   0.025
0.642094   0.0174023   0.025
0.666887   0.0174023   0.025
0.691182   0.0174023   0.025
0.714918   0.0174023   0.025
0.738041   0.0174023   0.025
0.760504   0.0174023   0.025
0.782266   0.0174023   0.025
0.803293   0.0174023   0.025
0.823557   0.0174023   0.025
0.843039   0.0174023   0.025
0.861725   0.0174023   0.025
0.879605   0.0174023   0.025
0.896677   0.0174023   0.025
0.912945   0.0174023   0.025
0.928415   0.0174023   0.025
0.943099   0.0174023   0.025
0.957011   0.0174023   0.025
0.970171   0.0174023   0.025
0.982598   0.0174023   0.025
0.994315   0.0174023   0.025
0.00568455   0.0298294   0.025
0.0174023   0.0298294   0.025
0.0298294   0.0298294   0.025
0.0429888   0.0298294   0.025
0.0569012   0.0298294   0.025
0.0715849   0.0298294   0.025
0.0870549   0.0298294   0.025
0.103323   0.0298294   0.025
0.120395   0.0298294   0.025
0.138275   0.0298294   0.025
0.156961   0.0298294   0.025
0.176443   0.0298294   0.025
0.196707   0.0298294   0.025
0.217734   0.0298294   0.025
0.239496   0.0298294   0.025
0.261959   0.0298294   0.025
0.285082   0.0298294   0.025
0.308818   0.0298294   0.025
0.333113   0.0298294   0.025
0.357906   0.0298294   0.025
0.383132   0.0298294   0.025
0.408719   0.0298294   0.025
0.434592   0.0298294   0.025
0.460672   0.0298294   0.025
0.486877   0.0298294   0.025
0.513123   0.0298294   0.025
0.539328   0.0298294   0.025
0.565408   0.0298294   0.025
0.591281   0.0298294   0.025
0.616868   0.0298294   0.025
0.642094   0.0298294   0.025
0.666887   0.0298294   0.025
0.691182   0.0298294   0.025
0.714918   0.0298294   0.025
0.738041   0.0298294   0.025
0.760504   0.0298294   0.025
0.782266   0.0298294   0.025
0.803293   0.0298294   0.025
0.823557   0.0298294   0.025
0.843039   0.0298294   0.025
0.861725   0.0298294   0.025
0.879605   0.0298294   0.025
0.896677   0.0298294   0.025
0.912945   0.0298294   0.025
0.928415   0.0298294   0.025
0.943099   0.0298294   0.025
0.957011   0.0298294   0.025
0.970171   0.0298294   0.025
0.982598   0.0298294   0.025
0.994315   0.0298294   0.025
0.00568455   0.0429888   0.025
0.0174023   0.0429888   0.025
0.0298294   0.0429888   0.025
0.0429888   0.0429888   0.025
0.0569012   0.0429888   0.025
0.0715849   0.0429888   0.025
0.0870549   0.0429888   0.025
0.103323   0.0429888   0.025
0.120395   0.0429888   0.025
0.138275   0.0429888   0.025
0.156961   0.0429888   0.025
0.176443   0.0429888   0.025
0.196707   0.0429888   0.025
0.217734   0.0429888   0.025
0.239496   0.0429888   0.025
0.261959   0.0429888   0.025
0.285082   0.0429888   0.025
0.308818   0.0429888   0.025
0.333113   0.0429888   0.025
0.357906   0.0429888   0.025
0.383132   0.0429888   0.025
0.408719   0.0429888   0.025
0.434592   0.0429888   0.025
0.460672   0.0429888   0.025
0.486877   0.0429888   0.025
0.513123   0.0429888   0.025
0.539328   0.0429888   0.025
0.565408   0.0429888   0.025
0.591281   0.0429888   0.025
0.616868   0.0429888   0.025
0.642094   0.0429888   0.025
0.666887   0.0429888   0.025
0.691182   0.0429888   0.025
0.714918   0.0429888   0.025
0.738041   0.0429888   0.025
0.760504   0.0429888   0.025
0.782266   0.0429888   0.025
0.803293   0.0429888   0.025
0.823557   0.0429888   0.025
0.843039   0.0429888   0.025
0.861725   0.0429888   0.025
0.879605   0.0429888   0.025
0.896677   0.0429888   0.025
0.912945   0.0429888   0.025
0.928415   0.0429888   0.025
0.943099   0.0429888   0.025
0.957011   0.0429888   0.025
0.970171   0.0429888   0.025
0.982598   0.0429888   0.025
0.994315   0.0429888   0.025
0.00568455   0.0569012   0.025
0.0174023   0.0569012   0.025
0.0298294   0.0569012   0.025
0.0429888   0.0569012   0.025
0.0569012   0.0569012   0.025
0.0715849   0.0569012   0.025
0.0870549   0.0569012   0.025
0.103323   0.0569012   0.025
0.120395   0.0569012   0.025
0.138275   0.0569012   0.025
0.156961   0.0569012   0.025
0.176443   0.0569012   0.025
0.196707   0.0569012   0.025
0.217734   0.0569012   0.025
0.239496   0.0569012   0.025
0.261959   0.0569012   0.025
0.285082   0.0569012   0.025
0.308818   0.0569012   0.025
0.333113   0.0569012   0.025
0.357906   0.0569012   0.025
0.383132   0.0569012   0.025
0.408719   0.0569012   0.025
0.434592   0.0569012   0.025
0.460672   0.0569012   0.025
0.486877   0.0569012   0.025
0.513123   0.0569012   0.025
0.539328   0.0569012   0.025
0.565408   0.0569012   0.025
0.591281   0.0569012   0.025
0.616868   0.0569012   0.025
0.642094   0.0569012   0.025
0.666887   0.0569012   0.025
0.691182   0.0569012   0.025
0.714918   0.0569012   0.025
0.738041   0.0569012   0.025
0.760504   0.0569012   0.025
0.782266   0.0569012   0.025
0.803293   0.0569012   0.025
0.823557   0.0569012   0.025
0.843039   0.0569012   0.025
0.861725   0.0569012   0.025
0.879605   0.0569012   0.025
0.896677   0.0569012   0.025
0.912945   0.0569012   0.025
0.928415   0.0569012   0.025
0.943099   0.0569012   0.025
0.957011   0.0569012   0.025
0.970171   0.0569012   0.025
0.982598   0.0569012   0.025
0.994315   0.0569012   0.025
0.00568455   0.0715849   0.025
0.0174023   0.0715849   0.025
0.0298294   0.0715849   0.025
0.0429888   0.0715849   0.025
0.0569012   0.0715849   0.025
0.0715849   0.0715849   0.025
0.0870549   0.0715849   0.025
0.103323   0.0715849   0.025
0.120395   0.0715849   0.025
0.138275   0.0715849   0.025
0.156961   0.0715849   0.025
0.176443   0.0715849   0.025
0.196707   0.0715849   0.025
0.217734   0.0715849   0.025
0.239496   0.0715849   0.025
0.261959   0.0715849   0.025
0.285082   0.0715849   0.025
0.308818   0.0715849   0.025
0.333113   0.0715849   0.025
0.357906   0.0715849   0.025
0.383132   0.0715849   0.025
0.408719   0.0715849   0.025
0.434592   0.0715849   0.025
0.460672   0.0715849   0.025
0.486877   0.0715849   0.025
0.513123   0.0715849   0.025
0.539328   0.0715849   0.025
0.565408   0.0715849   0.025
0.591281   0.0715849   0.025
0.616868   0.0715849   0.025
0.642094   0.0715849   0.025
0.666887   0.0715849   0.025
0.691182   0.0715849   0.025
0.714918   0.0715849   0.025
0.738041   0.0715849   0.025
0.760504   0.0715849   0.025
0.782266   0.0715849   0.025
0.803293   0.0715849   0.025
0.823557   0.0715849   0.025
0.843039   0.0715849   0.025
0.861725   0.0715849   0.025
0.879605   0.0715849   0.025
0.896677   0.0715849   0.025
0.912945   0.0715849   0.025
0.928415   0.0715849   0.025
0.943099   0.0715849   0.025
0.957011   0.0715849   0.025
0.970171   0.0715849   0.025
0.982598   0.0715849   0.025
0.994315   0.0715849   0.025
0.00568455   0.0870549   0.025
0.0174023   0.0870549   0.025
0.0298294   0.0870549   0.025
0.0429888   0.0870549   0.025
0.0569012   0.0870549   0.025
0.0715849   0.0870549   0.025
0.0870549   0.0870549   0.025
0.103323   0.0870549   0.025
0.120395   0.0870549   0.025
0.138275   0.0870549   0.025
0.156961   0.0870549   0.025
0.176443   0.0870549   0.025
0.196707   0.0870549   0.025
0.217734   0.0870549   0.025
0.239496   0.0870549   0.025
0.261959   0.0870549   0.025
0.285082   0.0870549   0.025
0.308818   0.0870549   0.025
0.333113   0.0870549   0.025
0.357906   0.0870549   0.025
0.383132   0.0870549   0.025
0.408719   0.0870549   0.025
0.434592   0.0870549   0.025
0.460672   0.0870549   0.025
0.486877   0.0870549   0.025
0.513123   0.0870549   0.025
0.539328   0.0870549   0.025
0.565408   0.0870549   0.025
0.591281   0.0870549   0.025
0.616868   0.0870549   0.025
0.642094   0.0870549   0.025
0.666887   0.0870549   0.025
0.691182   0.0870549   0.025
0.714918   0.0870549   0.025
0.738041   0.0870549   0.025
0.760504   0.0870549   0.025
0.782266   0.0870549   0.025
[...]
POINT_DATA   50000
VECTORS Velocidades double

-7.63264e-05 -0.00167727 0
-0.000206546 -0.00329397 0
-0.000283739 -0.00420389 0
-0.000312276 -0.00471494 0
-0.000319744 -0.00495192 0
-0.000333184 -0.00497795 0
-0.000373161 -0.00483178 0
-0.00045411 -0.00454093 0
-0.000585763 -0.00412631 0
-0.00077467 -0.00360301 0
-0.00102624 -0.00297726 0
-0.00115154 -0.00223291 0
-0.00133061 -0.00127155 0
-0.00177082 -0.00054898 0
-0.002286 5.32329e-05 0
-0.00284877 0.000561848 0
-0.0034498 0.000973889 0
-0.00408006 0.0012726 0
-0.00472646 0.00143569 0
-0.00537013 0.00144185 0
-0.00598579 0.00127662 0
-0.00654227 0.000937327 0
-0.00700531 0.000436632 0
-0.00732951 -0.000195079 0
-0.0074731 -0.00089811 0
-0.00740797 -0.00160532 0
-0.00711696 -0.00223778 0
-0.00660383 -0.00272146 0
-0.0058925 -0.00299286 0
-0.00502753 -0.00300772 0
-0.00407 -0.00274824 0
-0.00308952 -0.00222664 0
-0.00215409 -0.00148434 0
-0.00132021 -0.000587677 0
-0.000624395 0.000377027 0
-0.000234452 0.00130168 0
5.14698e-06 0.00202751 0
0.000274333 0.00286753 0
0.000438709 0.00366463 0
0.000504401 0.00436 0
0.000491096 0.00492781 0
0.000418538 0.0053562 0
0.000304924 0.00563908 0
0.000167383 0.00577168 0
2.30329e-05 0.00574726 0
-0.000109578 0.00555321 0
-0.000208684 0.00516405 0
-0.000248363 0.0045255 0
-0.000204253 0.00351133 0
-7.93297e-05 0.00178608 0
-0.000255368 -0.00308352 0
-0.000672851 -0.00642583 0
-0.000889118 -0.00835668 0
-0.000945741 -0.00942767 0
-0.000947067 -0.00990482 0
-0.000975567 -0.00993217 0
-0.00108985 -0.0095992 0
-0.00133097 -0.00896859 0
-0.00172735 -0.00808698 0
-0.00229909 -0.00698702 0
-0.00306402 -0.00568071 0
-0.00339885 -0.00413117 0
-0.00395996 -0.00215783 0
-0.00538181 -0.000668081 0
-0.00698647 0.000565844 0
-0.00873774 0.00160472 0
-0.0106106 0.00244384 0
-0.0125746 0.00304749 0
-0.0145845 0.00336742 0
-0.0165755 0.00335688 0
-0.0184627 0.00298312 0
-0.0201443 0.00223822 0
-0.0215103 0.00114715 0
-0.0224324 -0.000227016 0
-0.0227918 -0.00178366 0
-0.0225094 -0.00335305 0
-0.0215528 -0.00477385 0
-0.0199474 -0.0058879 0
-0.0177715 -0.00655609 0
-0.0151577 -0.00667829 0
-0.0122809 -0.00621011 0
-0.00933817 -0.00517185 0
-0.00652322 -0.00364777 0
-0.00400057 -0.00177773 0
-0.00188236 0.000252469 0
-0.000730638 0.00220637 0
7.24486e-06 0.00375389 0
0.000886624 0.00553333 0
0.00140643 0.00722332 0
0.00161509 0.00869843 0
0.00157414 0.00990517 0
0.00134387 0.0108196 0
0.000980586 0.0114288 0
0.000538028 0.0117217 0
7.00427e-05 0.0116814 0
-0.000365529 0.011277 0
-0.000701115 0.0104472 0
-0.000851881 0.00906727 0
-0.000718259 0.00687179 0
-0.000283699 0.00327106 0
-0.000184248 -0.00260526 0
-0.000585528 -0.00603371 0
-0.000956213 -0.00815194 0
-0.00121524 -0.00932589 0
-0.00142352 -0.00981374 0
-0.00167247 -0.00978453 0
-0.00204516 -0.00935218 0
-0.00260764 -0.00859768 0
-0.00340994 -0.00758004 0
-0.00449016 -0.00633877 0
-0.00588038 -0.00488668 0
-0.00650995 -0.00318283 0
-0.00747823 -0.00108204 0
-0.00986801 0.000523379 0
-0.0125536 0.00184087 0
-0.0154905 0.00294138 0
-0.0186321 0.00382132 0
-0.0219186 0.00443887 0
-0.0252653 0.00473607 0
-0.0285565 0.00465542 0
-0.031646 0.00415446 0
-0.0343626 0.00321881 0
-0.036523 0.00187256 0
-0.0379581 0.000183204 0
-0.0384715 -0.00177296 0
-0.0379265 -0.00375912 0
-0.0363115 -0.00559703 0
-0.0336736 -0.00710221 0
-0.0301397 -0.00810475 0
-0.0259151 -0.00847518 0
-0.0212664 -0.00814694 0
-0.0164929 -0.00712944 0
-0.0118901 -0.0055099 0
-0.00771354 -0.00344574 0
-0.00414458 -0.001155 0
-0.00218114 0.00107958 0
-0.000902421 0.00289665 0
0.000649657 0.00494684 0
0.00161962 0.00689311 0
0.00209087 0.00859468 0
0.00215853 0.00999317 0
0.00191806 0.0110624 0
0.00146251 0.0117866 0
0.000883573 0.0121489 0
0.000274138 0.0121234 0
-0.000269001 0.0116646 0
-0.000644707 0.0106921 0
-0.000757676 0.00906338 0
-0.000563286 0.00653629 0
-0.000194529 0.00275116 0
-0.000116482 -0.00225939 0
-0.000448061 -0.0055625 0
-0.000896832 -0.00775104 0
-0.00136806 -0.00898874 0
-0.00187193 -0.00946959 0
-0.00247273 -0.00936038 0
-0.0032499 -0.00879199 0
-0.00427856 -0.00786437 0
-0.00562261 -0.00665179 0
-0.00733423 -0.00520386 0
-0.00945526 -0.00353878 0
-0.0104444 -0.00162265 0
-0.0118542 0.000649009 0
-0.0152377 0.00242006 0
-0.0190175 0.0038703 0
-0.0231465 0.00506957 0
-0.0275569 0.00601054 0
-0.0321548 0.00664117 0
-0.0368111 0.00688916 0
-0.0413565 0.0066817 0
-0.0455828 0.00596305 0
-0.0492527 0.00471063 0
-0.0521162 0.002948 0
-0.0539993 0.000749405 0
-0.0546266 -0.00180427 0
-0.0538002 -0.00441939 0
-0.051558 -0.00688368 0
-0.0479655 -0.00897476 0
-0.0431879 -0.0104798 0
-0.0374866 -0.0112289 0
-0.0311988 -0.0111243 0
-0.024704 -0.0101592 0
-0.0183816 -0.00842281 0
-0.0125667 -0.00609456 0
-0.00751038 -0.0034336 0
-0.00470303 -0.000776739 0
-0.00283837 0.00147389 0
-0.000517609 0.00393966 0
0.00101804 0.00627018 0
0.0018859 0.00831246 0
0.00220919 0.0100012 0
0.00211288 0.0113045 0
0.00172208 0.0121995 0
0.00116161 0.0126597 0
0.000555221 0.012647 0
2.23948e-05 0.0121026 0
-0.000331268 0.010938 0
-0.000437415 0.00902839 0
-0.00030933 0.00622373 0
-9.76268e-05 0.00241617 0
-8.36104e-05 -0.00201565 0
-0.000380033 -0.00506921 0
-0.000895876 -0.00716507 0
-0.00157579 -0.00835306 0
-0.00241341 -0.00875675 0
-0.00344601 -0.00851786 0
-0.00473518 -0.00776824 0
-0.00634998 -0.00661911 0
-0.00835651 -0.00515776 0
-0.0108126 -0.00344517 0
-0.0137632 -0.00151013 0
-0.0151658 0.000663679 0
-0.0170535 0.00313517 0
-0.0214772 0.00511468 0
-0.0263814 0.00674417 0
-0.0317196 0.00807776 0
-0.0374035 0.0090957 0
-0.0433037 0.00973012 0
-0.0492446 0.00988986 0
-0.0550026 0.00948313 0
-0.0603105 0.00843881 0
-0.0648706 0.00672596 0
-0.0683763 0.00436983 0
-0.0706665 0.00145837 0
-0.0713931 -0.0018949 0
-0.0703055 -0.0053471 0
-0.0675024 -0.00864412 0
-0.063059 -0.011516 0
-0.0571645 -0.0136968 0
-0.0501185 -0.0149663 0
-0.0423095 -0.0151871 0
-0.0341793 -0.0143292 0
-0.0261779 -0.0124804 0
-0.0187148 -0.00984222 0
-0.0121154 -0.00671786 0
-0.00843177 -0.0035008 0
-0.00592934 -0.000640618 0
-0.00271633 0.00238657 0
-0.000475434 0.005227 0
0.000941166 0.00772274 0
0.00167872 0.00980097 0
0.00188476 0.0114201 0
0.00170926 0.0125461 0
0.00130154 0.0131409 0
0.000804589 0.0131561 0
0.000345831 0.0125289 0
2.24892e-05 0.011183 0
-0.00011912 0.00903984 0
-0.000104573 0.00605074 0
-3.32638e-05 0.00225816 0
-7.78531e-05 -0.00180732 0
-0.000390468 -0.00452385 0
-0.00100976 -0.00637309 0
-0.00192278 -0.0073662 0
-0.00312913 -0.00758118 0
-0.00465171 -0.00713088 0
-0.00653382 -0.00613647 0
-0.00883083 -0.00471046 0
-0.0116016 -0.00294729 0
-0.0149008 -0.000918025 0
-0.0187702 0.00133457 0
-0.0206321 0.00380194 0
-0.0230328 0.00649329 0
-0.0285523 0.00871617 0
-0.034622 0.0105646 0
-0.0411943 0.012062 0
-0.0481612 0.0131654 0
-0.055358 0.013784 0
-0.0625635 0.0138035 0
-0.0695024 0.0131105 0
-0.0758543 0.0116181 0
-0.0812705 0.00928875 0
-0.0854001 0.00615349 0
-0.0880835 0.00232283 0
-0.0889236 -0.00203827 0
-0.0876463 -0.00652951 0
-0.084393 -0.0108638 0
-0.079235 -0.014716 0
-0.0723685 -0.0177578 0
-0.0641123 -0.0197095 0
-0.054888 -0.0203843 0
-0.0451853 -0.01972 0
-0.0355165 -0.0177953 0
-0.0263653 -0.0148289 0
-0.0181385 -0.0111661 0
-0.0135341 -0.00725673 0
-0.0103294 -0.00360549 0
-0.00607132 0.000127334 0
-0.00295754 0.00360157 0
-0.000817821 0.0066648 0
0.000506445 0.009237 0
0.00117716 0.0112631 0
0.00136119 0.0126947 0
0.00122417 0.0134822 0
0.000920307 0.013572 0
0.000580027 0.012908 0
0.000296635 0.0114398 0
0.000115167 0.00914027 0
3.05521e-05 0.00603278 0
4.42622e-06 0.00222221 0
-9.01552e-05 -0.00157829 0
-0.000465529 -0.00385555 0
-0.00124209 -0.00531019 0
-0.00243567 -0.00595403 0
-0.0040571 -0.00584602 0
-0.00612402 -0.00507807 0
-0.00866574 -0.00375692 0
-0.0117224 -0.00198875 0
-0.0153405 0.000131359 0
-0.0195654 0.00252547 0
-0.0244302 0.00513584 0
-0.026789 0.00792514 0
-0.0297347 0.0108508 0
-0.0364067 0.0133451 0
-0.0436867 0.0154436 0
-0.0515225 0.0171252 0
-0.0597855 0.0183124 0
-0.0682776 0.0188844 0
-0.0767356 0.0186996 0
-0.0848385 0.0176221 0
-0.0922218 0.0155505 0
-0.0984977 0.0124437 0
-0.103284 0.00834394 0
-0.106374 0.00339106 0
-0.107373 -0.00219189 0
-0.106037 -0.00791691 0
-0.102496 -0.0134942 0
-0.0967978 -0.018537 0
-0.089128 -0.0226459 0
-0.0798052 -0.0254718 0
-0.0692669 -0.0267672 0
-0.0580383 -0.0264248 0
-0.0466886 -0.0245017 0
-0.0357781 -0.0212233 0
-0.0258051 -0.0169696 0
-0.0202169 -0.0122451 0
-0.0162273 -0.00761826 0
-0.0107353 -0.0030415 0
-0.0065465 0.00118903 0
-0.00348139 0.00493949 0
-0.00137979 0.00812255 0
-7.40999e-05 0.0106652 0
0.000612899 0.0125013 0
0.000858379 0.0135701 0
0.000825988 0.0138174 0
0.000652837 0.0132002 0
0.000439765 0.0116967 0
0.000248028 0.00932031 0
0.000105655 0.00613491 0
2.43044e-05 0.002262 0
-0.000114828 -0.00128412 0
-0.000591089 -0.00298122 0
-0.0015798 -0.00388291 0
-0.00311106 -0.00401696 0
-0.0052028 -0.0034406 0
-0.00786964 -0.00223433 0
-0.0111301 -0.000491451 0
-0.0150101 0.00169246 0
-0.0195417 0.00422725 0
-0.0247577 0.007032 0
-0.0306798 0.0100349 0
-0.0335644 0.013169 0
-0.0370819 0.0163405 0
-0.0449582 0.0191287 0
-0.0534912 0.0214994 0
-0.0626194 0.0233749 0
-0.0721932 0.0246331 0
-0.0819836 0.0251169 0
-0.0916916 0.0246546 0
-0.10096 0.0230885 0
-0.109392 0.0203052 0
-0.116572 0.0162646 0
-0.122099 0.011024 0
-0.125637 0.00475497 0
-0.12687 -0.00226606 0
-0.125669 -0.00941285 0
-0.122053 -0.0164449 0
-0.116032 -0.0229059 0
-0.107758 -0.0283173 0
-0.0975317 -0.0322504 0
-0.0857894 -0.0343827 0
-0.0730791 -0.0345451 0
-0.0600215 -0.0327542 0
-0.0472564 -0.0292254 0
-0.0353843 -0.0243606 0
-0.0287302 -0.0187138 0
-0.0238511 -0.0129259 0
-0.0168913 -0.00737805 0
-0.011382 -0.00226911 0
-0.00715406 0.00230055 0
-0.00406008 0.00623288 0
-0.0019348 0.00942969 0
-0.000594318 0.0118022 0
0.000149867 0.0132773 0
0.000474369 0.013801 0
0.000530813 0.013344 0
0.000438682 0.0119082 0
0.000285421 0.00953419 0
0.000133552 0.00630525 0
3.22737e-05 0.00234324 0
-0.000148523 -0.000887467 0
-0.000756217 -0.0018169 0
-0.00200622 -0.00198446 0
-0.00393159 -0.001438 0
-0.00655017 -0.000241035 0
-0.00987126 0.0015312 0
-0.0139029 0.00379732 0
-0.0186575 0.00647494 0
-0.0241528 0.00948328 0
-0.0304081 0.0127424 0
-0.0374327 0.0161687 0
-0.0408627 0.0196668 0
-0.0449716 0.0230946 0
-0.054094 0.026195 0
-0.0639147 0.0288513 0
-0.0743588 0.0309194 0
-0.0852556 0.0322252 0
-0.0963499 0.0325706 0
-0.107315 0.0317533 0
-0.117769 0.0295953 0
-0.127293 0.0259753 0
-0.135461 0.0208579 0
-0.141857 0.0143173 0
-0.145899 0.0065535 0
-0.147465 -0.00211666 0
-0.146648 -0.0108687 0
-0.143221 -0.0195775 0
-0.137133 -0.0277065 0
-0.128492 -0.0346915 0
-0.11756 -0.0400137 0
-0.104753 -0.0432599 0
-0.0906271 -0.0441774 0
-0.0758444 -0.0427183 0
-0.0611235 -0.0390628 0
-0.0471761 -0.0336147 0
-0.0393624 -0.0269666 0
-0.033467 -0.0198373 0
-0.0247505 -0.0132095 0
-0.0176224 -0.00709764 0
-0.0119514 -0.00155581 0
-0.00761893 0.00329667 0
-0.00446826 0.00732385 0
-0.002309 0.0104057 0
-0.000937623 0.012452 0
-0.000157809 0.0134066 0
0.000205314 0.01325 0
0.000298384 0.0120007 0
0.000239856 0.00971604 0
0.000124877 0.00648887 0
3.19588e-05 0.00243969 0
-0.000189045 -0.000355146 0
-0.000952223 -0.000281896 0
-0.00250425 0.000494542 0
-0.00487285 0.00190653 0
-0.0080687 0.0038825 0
-0.0120915 0.00635097 0
-0.016937 0.00924304 0
-0.0226041 0.0124924 0
-0.0290966 0.0160318 0
-0.0364208 0.0197863 0
-0.0445743 0.0236638 0
-0.0485593 0.027543 0
-0.0532705 0.0312389 0
-0.0636652 0.0346657 0
-0.0747943 0.0376129 0
-0.0865662 0.0398626 0
-0.0987908 0.0411837 0
-0.111192 0.0413359 0
-0.123426 0.040087 0
-0.135095 0.0372422 0
-0.145775 0.0326757 0
-0.155033 0.0263594 0
-0.162449 0.0183834 0
-0.167056 0.00896769 0
-0.169068 -0.00154561 0
-0.168922 -0.0120853 0
-0.165977 -0.0227045 0
-0.160117 -0.032773 0
-0.15139 -0.0416381 0
-0.140002 -0.0486826 0
-0.126327 -0.0533864 0
-0.110908 -0.0553895 0
-0.0944299 -0.0545483 0
-0.0776804 -0.0509747 0
-0.0614845 -0.0450439 0
-0.0524231 -0.037366 0
-0.0453667 -0.0287358 0
-0.0345431 -0.0209467 0
-0.0254389 -0.0137003 0
-0.0179969 -0.0070012 0
-0.0121439 -0.00101316 0
-0.00773522 0.00406981 0
-0.00457124 0.00808303 0
-0.00242708 0.0109108 0
-0.00107861 0.0124891 0
-0.00031943 0.0128025 0
3.07289e-05 0.0118801 0
0.000124259 0.00978996 0
8.78067e-05 0.00663231 0
2.57069e-05 0.00253016 0
-0.000234615 0.000342736 0
-0.00117119 0.0016984 0
-0.00305594 0.00365812 0
-0.00590518 0.00613635 0
-0.0097165 0.00905558 0
-0.0144753 0.0123507 0
-0.0201629 0.0159688 0
-0.0267635 0.0198644 0
-0.0342677 0.0239885 0
-0.0426696 0.0282758 0
-0.0519569 0.0326292 0
-0.0564956 0.0369059 0
-0.0618092 0.040884 0
-0.0734813 0.0446483 0
-0.0859184 0.0478842 0
-0.0990116 0.0502958 0
-0.112553 0.0515944 0
-0.126254 0.0514978 0
-0.139759 0.049747 0
-0.152669 0.0461336 0
-0.164561 0.040531 0
-0.175005 0.0329189 0
-0.183582 0.0233994 0
-0.188799 0.0122037 0
-0.191364 -0.000313784 0
-0.19218 -0.0128254 0
-0.190022 -0.0255945 0
-0.18471 -0.0378858 0
-0.176225 -0.0489625 0
-0.164701 -0.0581054 0
-0.150446 -0.0646752 0
-0.133956 -0.0681804 0
-0.115909 -0.0683474 0
-0.0971382 -0.0651769 0
-0.0785687 -0.0589719 0
-0.0682088 -0.0503239 0
-0.0598408 -0.0400871 0
-0.0465008 -0.0310947 0
-0.0350073 -0.0225674 0
-0.0254209 -0.0144821 0
-0.0177286 -0.00708694 0
-0.0117995 -0.000663402 0
-0.00742018 0.00456058 0
-0.00433743 0.00843223 0
-0.00229122 0.0108715 0
-0.00103607 0.0118613 0
-0.000352357 0.0114368 0
-5.06082e-05 0.00967491 0
2.83756e-05 0.00668454 0
1.51103e-05 0.00259687 0
-0.000283451 0.00123218 0
-0.00140477 0.00418898 0
-0.00364119 0.00759747 0
-0.00699326 0.0113568 0
-0.0114409 0.015388 0
-0.0169515 0.0196384 0
-0.0234893 0.0240777 0
-0.0310232 0.0286878 0
-0.0395307 0.0334446 0
-0.0489952 0.0382974 0
-0.0593965 0.0431488 0
-0.0644753 0.0478388 0
-0.0703786 0.0521161 0
-0.0833048 0.0562248 0
-0.097021 0.0597399 0
-0.1114 0.0622873 0
-0.126221 0.0635219 0
-0.141186 0.0631231 0
-0.155939 0.0608084 0
-0.170085 0.0563599 0
-0.183208 0.0496518 0
-0.194888 0.0406713 0
-0.204711 0.0295296 0
-0.210546 0.0164623 0
-0.213741 0.00183051 0
-0.215773 -0.0128376 0
-0.214682 -0.0279851 0
-0.210245 -0.0427728 0
-0.202374 -0.0563938 0
-0.191116 -0.068032 0
-0.176685 -0.0769243 0
-0.159491 -0.0824296 0
-0.140159 -0.0841093 0
-0.119521 -0.0818036 0
-0.0985681 -0.0756857 0
-0.086942 -0.0662715 0
-0.0771306 -0.0544341 0
-0.0608286 -0.0442464 0
-0.0464979 -0.0342703 0
-0.0343627 -0.0245186 0
-0.0244819 -0.0153819 0
-0.0167397 -0.00726632 0
-0.0109068 -0.000486806 0
-0.00669621 0.00475148 0
-0.00380533 0.00834269 0
-0.00194285 0.010262 0
-0.000844074 0.0105477 0
-0.000278049 0.00928549 0
-4.96311e-05 0.00659604 0
1.16242e-06 0.00262427 0
-0.000333524 0.00233358 0
-0.0016434 0.00724026 0
-0.00423667 0.0123827 0
-0.0080952 0.0176478 0
-0.0131783 0.0229618 0
-0.0194328 0.0282923 0
-0.0268041 0.0336412 0
-0.0352451 0.0390267 0
-0.0447207 0.044457 0
-0.0552047 0.0499025 0
-0.0666708 0.0552705 0
-0.0722633 0.060389 0
-0.0787276 0.0649845 0
-0.0928486 0.0694389 0
-0.107776 0.0732162 0
-0.123366 0.0758665 0
-0.139386 0.0769927 0
-0.155535 0.0762397 0
-0.171459 0.0733058 0
-0.186772 0.0679665 0
-0.201067 0.0600985 0
-0.21394 0.0496973 0
-0.224995 0.0368829 0
-0.231397 0.0218955 0
-0.235247 0.00510674 0
-0.238657 -0.0118922 0
-0.238853 -0.029607 0
-0.235595 -0.0471216 0
-0.228734 -0.063582 0
-0.21822 -0.0780937 0
-0.204146 -0.0897786 0
-0.186792 -0.0978393 0
-0.166669 -0.101645 0
-0.144538 -0.100825 0
-0.121395 -0.0953542 0
-0.108677 -0.0855946 0
-0.0973501 -0.0723632 0
-0.0776622 -0.0610448 0
-0.060063 -0.0494331 0
-0.0449752 -0.0376906 0
-0.0325398 -0.0264197 0
-0.0226647 -0.0161936 0
-0.0151095 -0.00744332 0
-0.00955367 -0.000446586 0
-0.00564868 0.0046519 0
-0.00305187 0.00781222 0
-0.00144751 0.0090728 0
-0.00055747 0.00852888 0
-0.00014519 0.00631599 0
-1.57834e-05 0.00259764 0
-0.00038244 0.00365934 0
-0.00187589 0.0108818 0
-0.0048151 0.0180536 0
-0.00916209 0.0250531 0
-0.0148543 0.0318186 0
-0.021817 0.0383485 0
-0.0299759 0.0446875 0
-0.039268 0.0509005 0
-0.0496455 0.0570374 0
-0.0610737 0.0630965 0
-0.0735215 0.0689955 0
-0.079586 0.0745558 0
-0.0865642 0.0794879 0
-0.101775 0.084281 0
-0.117797 0.0882933 0
-0.134468 0.091005 0
-0.151548 0.0919722 0
-0.168732 0.0908099 0
-0.18567 0.0872008 0
-0.201984 0.0809167 0
-0.217281 0.07184 0
-0.231177 0.0599782 0
-0.243306 0.0454661 0
-0.250156 0.0285575 0
-0.25461 0.00964559 0
-0.259421 -0.00982472 0
-0.261018 -0.0302198 0
-0.25918 -0.0506059 0
-0.25371 -0.0701137 0
-0.244462 -0.0878037 0
-0.231387 -0.102709 0
-0.214593 -0.113889 0
-0.194412 -0.120509 0
-0.171448 -0.12195 0
-0.146603 -0.117915 0
-0.133165 -0.108521 0
-0.120371 -0.0944156 0
-0.0970057 -0.0820934 0
-0.0758103 -0.0686702 0
-0.0574181 -0.0546046 0
-0.0420699 -0.0407746 0
-0.0297229 -0.0279649 0
-0.0201453 -0.0167594 0
-0.0129938 -0.00753709 0
-0.00787615 -0.000500932 0
-0.00439547 0.00428272 0
-0.00217949 0.00684766 0
-0.000896194 0.00729822 0
-0.000260646 0.00578736 0
-3.61181e-05 0.00250098 0
-0.000427424 0.00521092 0
-0.0020894 0.0151157 0
-0.00534547 0.0246104 0
-0.0101386 0.0335684 0
-0.0163852 0.041948 0
-0.0239893 0.0497885 0
-0.0328578 0.0571893 0
-0.0429114 0.0642733 0
-0.0540904 0.0711414 0
-0.0663518 0.0778276 0
-0.0796598 0.0842659 0
-0.0861385 0.0902762 0
-0.0935612 0.095559 0
-0.109705 0.100671 0
-0.126644 0.104877 0
-0.144202 0.107596 0
-0.162126 0.108341 0
-0.180109 0.106702 0
-0.197802 0.102349 0
-0.214834 0.0950559 0
-0.230828 0.084716 0
-0.245429 0.0713582 0
-0.258316 0.055145 0
-0.265425 0.0363596 0
-0.270345 0.0154321 0
-0.276405 -0.00658078 0
-0.279375 -0.0296561 0
-0.279089 -0.0529295 0
-0.27532 -0.0755528 0
-0.267839 -0.0965894 0
-0.256452 -0.11503 0
-0.241067 -0.129826 0
-0.221776 -0.139955 0
-0.198939 -0.144533 0
-0.173246 -0.142941 0
-0.159692 -0.134958 0
-0.145674 -0.120917 0
-0.118639 -0.107802 0
-0.0937445 -0.0924855 0
-0.0718206 -0.0758361 0
-0.0532499 -0.0590456 0
-0.0380924 -0.0431562 0
-0.0261677 -0.0289548 0
-0.0171356 -0.0169641 0
-0.0105722 -0.00747669 0
-0.00602848 -0.000604505 0
-0.00307198 0.0036719 0
-0.00131014 0.00546298 0
-0.000401941 0.00494003 0
-6.1018e-05 0.00231427 0
-0.000465414 0.0069761 0
-0.00226985 0.0199097 0
-0.00579408 0.0320043 0
-0.010965 0.0431316 0
-0.0176809 0.0532767 0
-0.025827 0.0625294 0
-0.0352927 0.0710544 0
-0.0459834 0.0790436 0
-0.0578272 0.0866585 0
-0.0707724 0.0939764 0
-0.0847777 0.100954 0
-0.0915952 0.107413 0
-0.0993695 0.11305 0
-0.116228 0.118443 0
-0.133843 0.122782 0
-0.152018 0.125433 0
-0.170488 0.125871 0
-0.188939 0.123665 0
-0.207021 0.118478 0
-0.224369 0.11009 0
-0.240628 0.0984177 0
-0.255481 0.083527 0
-0.268668 0.0656255 0
-0.275792 0.0450458 0
-0.280959 0.0222673 0
-0.287934 -0.00224865 0
-0.292092 -0.0278661 0
-0.293338 -0.0538819 0
-0.291444 -0.0795064 0
-0.286127 -0.103864 0
-0.277063 -0.125964 0
-0.263957 -0.144711 0
-0.246629 -0.158945 0
-0.225123 -0.167538 0
-0.199808 -0.169531 0
-0.186936 -0.164301 0
-0.172195 -0.151721 0
-0.141996 -0.138186 0
-0.113658 -0.121133 0
-0.0881935 -0.101836 0
-0.0662044 -0.0817986 0
-0.0479401 -0.0623703 0
-0.0333411 -0.0446079 0
-0.0221183 -0.0292423 0
-0.0138424 -0.0167053 0
-0.00802354 -0.00718763 0
-0.00416957 -0.000702515 0
-0.00182256 0.00285847 0
-0.000578101 0.00368334 0
-9.23325e-05 0.00201035 0
-0.000493251 0.00892666 0
-0.00240282 0.0251918 0
-0.00612649 0.040131 0
-0.0115806 0.0536153 0
-0.0186503 0.0656612 0
-0.0272063 0.0764158 0
-0.0371227 0.0861179 0
-0.0482911 0.0950374 0
-0.0606269 0.103405 0
-0.0740682 0.111348 0
-0.088566 0.118852 0
-0.0956295 0.125745 0
-0.103638 0.131721 0
-0.120935 0.137334 0
-0.138919 0.141722 0
-0.15737 0.144202 0
-0.176011 0.144221 0
-0.194515 0.141326 0
-0.212531 0.135182 0
-0.229703 0.125588 0
-0.245704 0.112499 0
-0.260267 0.0960353 0
-0.273205 0.076471 0
-0.280072 0.0542048 0
-0.285216 0.0297708 0
-0.292634 0.00293327 0
-0.297649 -0.0249472 0
-0.30024 -0.0533907 0
-0.300214 -0.0817029 0
-0.297266 -0.109126 0
-0.290984 -0.13476 0
-0.2809 -0.157542 0
-0.266571 -0.176254 0
-0.247697 -0.189589 0
-0.22425 -0.196282 0