# vtk DataFile Version 2.0
Velocidades
ASCII

DATASET STRUCTURED_GRID
DIMENSIONS   40   40   20

POINTS   32000   double
0.0125   0.0125   0.025
0.0125   0.0375   0.025
0.0125   0.0625   0.025
0.0125   0.0875   0.025
0.0125   0.1125   0.025
0.0125   0.1375   0.025
0.0125   0.1625   0.025
0.0125   0.1875   0.025
0.0125   0.2125   0.025
0.0125   0.2375   0.025
0.0125   0.2625   0.025
0.0125   0.2875   0.025
0.0125   0.3125   0.025
0.0125   0.3375   0.025
0.0125   0.3625   0.025
0.0125   0.3875   0.025
0.0125   0.4125   0.025
0.0125   0.4375   0.025
0.0125   0.4625   0.025
0.0125   0.4875   0.025
0.0125   0.5125   0.025
0.0125   0.5375   0.025
0.0125   0.5625   0.025
0.0125   0.5875   0.025
0.0125   0.6125   0.025
0.0125   0.6375   0.025
0.0125   0.6625   0.025
0.0125   0.6875   0.025
0.0125   0.7125   0.025
0.0125   0.7375   0.025
0.0125   0.7625   0.025
0.0125   0.7875   0.025
0.0125   0.8125   0.025
0.0125   0.8375   0.025
0.0125   0.8625   0.025
0.0125   0.8875   0.025
0.0125   0.9125   0.025
0.0125   0.9375   0.025
0.0125   0.9625   0.025
0.0125   0.9875   0.025
0.0375   0.0125   0.025
0.0375   0.0375   0.025
0.0375   0.0625   0.025
0.0375   0.0875   0.025
0.0375   0.1125   0.025
0.0375   0.1375   0.025
0.0375   0.1625   0.025
0.0375   0.1875   0.025
0.0375   0.2125   0.025
0.0375   0.2375   0.025
0.0375   0.2625   0.025
0.0375   0.2875   0.025
0.0375   0.3125   0.025
0.0375   0.3375   0.025
0.0375   0.3625   0.025
0.0375   0.3875   0.025
0.0375   0.4125   0.025
0.0375   0.4375   0.025
0.0375   0.4625   0.025
0.0375   0.4875   0.025
0.0375   0.5125   0.025
0.0375   0.5375   0.025
0.0375   0.5625   0.025
0.0375   0.5875   0.025
0.0375   0.6125   0.025
0.0375   0.6375   0.025
0.0375   0.6625   0.025
0.0375   0.6875   0.025
0.0375   0.7125   0.025
0.0375   0.7375   0.025
0.0375   0.7625   0.025
0.0375   0.7875   0.025
0.0375   0.8125   0.025
0.0375   0.8375   0.025
0.0375   0.8625   0.025
0.0375   0.8875   0.025
0.0375   0.9125   0.025
0.0375   0.9375   0.025
0.0375   0.9625   0.025
0.0375   0.9875   0.025
0.0625   0.0125   0.025
0.0625   0.0375   0.025
0.0625   0.0625   0.025
0.0625   0.0875   0.025
0.0625   0.1125   0.025
0.0625   0.1375   0.025
0.0625   0.1625   0.025
0.0625   0.1875   0.025
0.0625   0.2125   0.025
0.0625   0.2375   0.025
0.0625   0.2625   0.025
0.0625   0.2875   0.025
0.0625   0.3125   0.025
0.0625   0.3375   0.025
0.0625   0.3625   0.025
0.0625   0.3875   0.025
0.0625   0.4125   0.025
0.0625   0.4375   0.025
0.0625   0.4625   0.025
0.0625   0.4875   0.025
0.0625   0.5125   0.025
0.0625   0.5375   0.025
0.0625   0.5625   0.025
0.0625   0.5875   0.025
0.0625   0.6125   0.025
0.0625   0.6375   0.025
0.0625   0.6625   0.025
0.0625   0.6875   0.025
0.0625   0.7125   0.025
0.0625   0.7375   0.025
0.0625   0.7625   0.025
0.0625   0.7875   0.025
0.0625   0.8125   0.025
0.0625   0.8375   0.025
0.0625   0.8625   0.025
0.0625   0.8875   0.025
0.0625   0.9125   0.025
0.0625   0.9375   0.025
0.0625   0.9625   0.025
0.0625   0.9875   0.025
0.0875   0.0125   0.025
0.0875   0.0375   0.025
0.0875   0.0625   0.025
0.0875   0.0875   0.025
0.0875   0.1125   0.025
0.0875   0.1375   0.025
0.0875   0.1625   0.025
0.0875   0.1875   0.025
0.0875   0.2125   0.025
0.0875   0.2375   0.025
0.0875   0.2625   0.025
0.0875   0.2875   0.025
0.0875   0.3125   0.025
0.0875   0.3375   0.025
0.0875   0.3625   0.025
0.0875   0.3875   0.025
0.0875   0.4125   0.025
0.0875   0.4375   0.025
0.0875   0.4625   0.025
0.0875   0.4875   0.025
0.0875   0.5125   0.025
0.0875   0.5375   0.025
0.0875   0.5625   0.025
0.0875   0.5875   0.025
0.0875   0.6125   0.025
0.0875   0.6375   0.025
0.0875   0.6625   0.025
0.0875   0.6875   0.025
0.0875   0.7125   0.025
0.0875   0.7375   0.025
0.0875   0.7625   0.025
0.0875   0.7875   0.025
0.0875   0.8125   0.025
0.0875   0.8375   0.025
0.0875   0.8625   0.025
0.0875   0.8875   0.025
0.0875   0.9125   0.025
0.0875   0.9375   0.025
0.0875   0.9625   0.025
0.0875   0.9875   0.025
0.1125   0.0125   0.025
0.1125   0.0375   0.025
0.1125   0.0625   0.025
0.1125   0.0875   0.025
0.1125   0.1125   0.025
0.1125   0.1375   0.025
0.1125   0.1625   0.025
0.1125   0.1875   0.025
0.1125   0.2125   0.025
0.1125   0.2375   0.025
0.1125   0.2625   0.025
0.1125   0.2875   0.025
0.1125   0.3125   0.025
0.1125   0.3375   0.025
0.1125   0.3625   0.025
0.1125   0.3875   0.025
0.1125   0.4125   0.025
0.1125   0.4375   0.025
0.1125   0.4625   0.025
0.1125   0.4875   0.025
0.1125   0.5125   0.025
0.1125   0.5375   0.025
0.1125   0.5625   0.025
0.1125   0.5875   0.025
0.1125   0.6125   0.025
0.1125   0.6375   0.025
0.1125   0.6625   0.025
0.1125   0.6875   0.025
0.1125   0.7125   0.025
0.1125   0.7375   0.025
0.1125   0.7625   0.025
0.1125   0.7875   0.025
0.1125   0.8125   0.025
0.1125   0.8375   0.025
0.1125   0.8625   0.025
0.1125   0.8875   0.025
0.1125   0.9125   0.025
0.1125   0.9375   0.025
0.1125   0.9625   0.025
0.1125   0.9875   0.025
0.1375   0.0125   0.025
0.1375   0.0375   0.025
0.1375   0.0625   0.025
0.1375   0.0875   0.025
0.1375   0.1125   0.025
0.1375   0.1375   0.025
0.1375   0.1625   0.025
0.1375   0.1875   0.025
0.1375   0.2125   0.025
0.1375   0.2375   0.025
0.1375   0.2625   0.025
0.1375   0.2875   0.025
0.1375   0.3125   0.025
0.1375   0.3375   0.025
0.1375   0.3625   0.025
0.1375   0.3875   0.025
0.1375   0.4125   0.025
0.1375   0.4375   0.025
0.1375   0.4625   0.025
0.1375   0.4875   0.025
0.1375   0.5125   0.025
0.1375   0.5375   0.025
0.1375   0.5625   0.025
0.1375   0.5875   0.025
0.1375   0.6125   0.025
0.1375   0.6375   0.025
0.1375   0.6625   0.025
0.1375   0.6875   0.025
0.1375   0.7125   0.025
0.1375   0.7375   0.025
0.1375   0.7625   0.025
0.1375   0.7875   0.025
0.1375   0.8125   0.025
0.1375   0.8375   0.025
0.1375   0.8625   0.025
0.1375   0.8875   0.025
0.1375   0.9125   0.025
0.1375   0.9375   0.025
0.1375   0.9625   0.025
0.1375   0.9875   0.025
0.1625   0.0125   0.025
0.1625   0.0375   0.025
0.1625   0.0625   0.025
0.1625   0.0875   0.025
0.1625   0.1125   0.025
0.1625   0.1375   0.025
0.1625   0.1625   0.025
0.1625   0.1875   0.025
0.1625   0.2125   0.025
0.1625   0.2375   0.025
0.1625   0.2625   0.025
0.1625   0.2875   0.025
0.1625   0.3125   0.025
0.1625   0.3375   0.025
0.1625   0.3625   0.025
0.1625   0.3875   0.025
0.1625   0.4125   0.025
0.1625   0.4375   0.025
0.1625   0.4625   0.025
0.1625   0.4875   0.025
0.1625   0.5125   0.025
0.1625   0.5375   0.025
0.1625   0.5625   0.025
0.1625   0.5875   0.025
0.1625   0.6125   0.025
0.1625   0.6375   0.025
0.1625   0.6625   0.025
0.1625   0.6875   0.025
0.1625   0.7125   0.025
0.1625   0.7375   0.025
0.1625   0.7625   0.025
0.1625   0.7875   0.025
0.1625   0.8125   0.025
0.1625   0.8375   0.025
0.1625   0.8625   0.025
0.1625   0.8875   0.025
0.1625   0.9125   0.025
0.1625   0.9375   0.025
0.1625   0.9625   0.025
0.1625   0.9875   0.025
0.1875   0.0125   0.025
0.1875   0.0375   0.025
0.1875   0.0625   0.025
0.1875   0.0875   0.025
0.1875   0.1125   0.025
0.1875   0.1375   0.025
0.1875   0.1625   0.025
0.1875   0.1875   0.025
0.1875   0.2125   0.025
0.1875   0.2375   0.025
0.1875   0.2625   0.025
0.1875   0.2875   0.025
0.1875   0.3125   0.025
0.1875   0.3375   0.025
0.1875   0.3625   0.025
0.1875   0.3875   0.025
0.1875   0.4125   0.025
0.1875   0.4375   0.025
0.1875   0.4625   0.025
0.1875   0.4875   0.025
0.1875   0.5125   0.025
0.1875   0.5375   0.025
0.1875   0.5625   0.025
0.1875   0.5875   0.025
0.1875   0.6125   0.025
0.1875   0.6375   0.025
0.1875   0.6625   0.025
0.1875   0.6875   0.025
0.1875   0.7125   0.025
0.1875   0.7375   0.025
0.1875   0.7625   0.025
0.1875   0.7875   0.025
0.1875   0.8125   0.025
0.1875   0.8375   0.025
0.1875   0.8625   0.025
0.1875   0.8875   0.025
0.1875   0.9125   0.025
0.1875   0.9375   0.025
0.1875   0.9625   0.025
0.1875   0.9875   0.025
0.2125   0.0125   0.025
0.2125   0.0375   0.025
0.2125   0.0625   0.025
0.2125   0.0875   0.025
0.2125   0.1125   0.025
0.2125   0.1375   0.025
0.2125   0.1625   0.025
0.2125   0.1875   0.025
0.2125   0.2125   0.025
0.2125   0.2375   0.025
0.2125   0.2625   0.025
0.2125   0.2875   0.025
0.2125   0.3125   0.025
0.2125   0.3375   0.025
0.2125   0.3625   0.025
0.2125   0.3875   0.025
0.2125   0.4125   0.025
0.2125   0.4375   0.025
0.2125   0.4625   0.025
0.2125   0.4875   0.025
0.2125   0.5125   0.025
0.2125   0.5375   0.025
0.2125   0.5625   0.025
0.2125   0.5875   0.025
0.2125   0.6125   0.025
0.2125   0.6375   0.025
0.2125   0.6625   0.025
0.2125   0.6875   0.025
0.2125   0.7125   0.025
0.2125   0.7375   0.025
0.2125   0.7625   0.025
0.2125   0.7875   0.025
0.2125   0.8125   0.025
0.2125   0.8375   0.025
0.2125   0.8625   0.025
0.2125   0.8875   0.025
0.2125   0.9125   0.025
0.2125   0.9375   0.025
0.2125   0.9625   0.025
0.2125   0.9875   0.025
0.2375   0.0125   0.025
0.2375   0.0375   0.025
0.2375   0.0625   0.025
0.2375   0.0875   0.025
0.2375   0.1125   0.025
0.2375   0.1375   0.025
0.2375   0.1625   0.025
0.2375   0.1875   0.025
0.2375   0.2125   0.025
0.2375   0.2375   0.025
0.2375   0.2625   0.025
0.2375   0.2875   0.025
0.2375   0.3125   0.025
0.2375   0.3375   0.025
0.2375   0.3625   0.025
0.2375   0.3875   0.025
0.2375   0.4125   0.025
0.2375   0.4375   0.025
0.2375   0.4625   0.025
0.2375   0.4875   0.025
0.2375   0.5125   0.025
0.2375   0.5375   0.025
0.2375   0.5625   0.025
0.2375   0.5875   0.025
0.2375   0.6125   0.025
0.2375   0.6375   0.025
0.2375   0.6625   0.025
0.2375   0.6875   0.025
0.2375   0.7125   0.025
0.2375   0.7375   0.025
0.2375   0.7625   0.025
0.2375   0.7875   0.025
0.2375   0.8125   0.025
0.2375   0.8375   0.025
0.2375   0.8625   0.025
0.2375   0.8875   0.025
0.2375   0.9125   0.025
0.2375   0.9375   0.025
0.2375   0.9625   0.025
0.2375   0.9875   0.025
0.2625   0.0125   0.025
0.2625   0.0375   0.025
0.2625   0.0625   0.025
0.2625   0.0875   0.025
0.2625   0.1125   0.025
0.2625   0.1375   0.025
0.2625   0.1625   0.025
0.2625   0.1875   0.025
0.2625   0.2125   0.025
0.2625   0.2375   0.025
0.2625   0.2625   0.025
[...]
POINT_DATA   32000
VECTORS Velocidades double

4.18014e-05 0 0
0.000125383 0 0
0.00020903 0 0
0.000292912 0 0
0.00037727 0 0
0.000462405 0 0
0.000548678 0 0
0.000636506 0 0
0.000726365 0 0
0.000818799 0 0
0.000914424 0 0
0.00101395 0 0
0.00111818 0 0
0.00122806 0 0
0.00134469 0 0
0.00146937 0 0
0.00160367 0 0
0.00174945 0 0
0.001909 0 0
0.00208512 0 0
0.00228127 0 0
0.00250178 0 0
0.00275208 0 0
0.00303907 0 0
0.00337165 0 0
0.00376137 0 0
0.00422359 0 0
0.00477911 0 0
0.00545679 0 0
0.00629772 0 0
0.00736236 0 0
0.00874294 0 0
0.0105866 0 0
0.0131417 0 0
0.016857 0 0
0.0226191 0 0
0.032394 0 0
0.0512447 0 0
0.0949524 0 0
0.225921 0 0
0.000119057 0 0
0.000357121 0 0
0.000595402 0 0
0.000834393 0 0
0.00107478 0 0
0.00131744 0 0
0.0015634 0 0
0.00181385 0 0
0.00207016 0 0
0.00233387 0 0
0.00260675 0 0
0.00289083 0 0
0.00318841 0 0
0.0035022 0 0
0.00383534 0 0
0.00419157 0 0
0.00457534 0 0
0.00499201 0 0
0.00544812 0 0
0.00595169 0 0
0.00651265 0 0
0.00714339 0 0
0.00785953 0 0
0.00868089 0 0
0.00963295 0 0
0.010749 0 0
0.012073 0 0
0.0136649 0 0
0.0156075 0 0
0.0180187 0 0
0.0210718 0 0
0.0250307 0 0
0.0303145 0 0
0.0376256 0 0
0.0482182 0 0
0.0645173 0 0
0.091702 0 0
0.142285 0 0
0.251407 0 0
0.53661 0 0
0.000185872 0 0
0.000557572 0 0
0.000929686 0 0
0.00130301 0 0
0.00167866 0 0
0.00205799 0 0
0.00244264 0 0
0.00283448 0 0
0.00323566 0 0
0.00364861 0 0
0.00407611 0 0
0.00452133 0 0
0.00498793 0 0
0.00548012 0 0
0.00600289 0 0
0.00656208 0 0
0.00716471 0 0
0.00781922 0 0
0.00853589 0 0
0.00932736 0 0
0.0102093 0 0
0.0112012 0 0
0.0123278 0 0
0.0136205 0 0
0.0151194 0 0
0.0168773 0 0
0.0189637 0 0
0.0214732 0 0
0.0245364 0 0
0.0283395 0 0
0.0331546 0 0
0.0393942 0 0
0.0477093 0 0
0.0591765 0 0
0.0756807 0 0
0.10075 0 0
0.141529 0 0
0.213824 0 0
0.355917 0 0
0.665393 0 0
0.000245794 0 0
0.000737374 0 0
0.00122962 0 0
0.00172365 0 0
0.00222097 0 0
0.00272341 0 0
0.00323315 0 0
0.00375272 0 0
0.00428497 0 0
0.00483315 0 0
0.00540097 0 0
0.00599265 0 0
0.00661306 0 0
0.00726784 0 0
0.00796362 0 0
0.00870821 0 0
0.00951097 0 0
0.0103831 0 0
0.0113385 0 0
0.0123938 0 0
0.01357 0 0
0.0148933 0 0
0.0163967 0 0
0.0181221 0 0
0.0201237 0 0
0.0224717 0 0
0.0252594 0 0
0.028613 0 0
0.032707 0 0
0.0377886 0 0
0.0442183 0 0
0.0525386 0 0
0.0635968 0 0
0.0787738 0 0
0.100433 0 0
0.132852 0 0
0.18426 0 0
0.271509 0 0
0.430681 0 0
0.735726 0 0
0.000300886 0 0
0.000902711 0 0
0.00150552 0 0
0.00211075 0 0
0.00272031 0 0
0.00333649 0 0
0.00396203 0 0
0.00460002 0 0
0.00525402 0 0
0.00592804 0 0
0.00662666 0 0
0.00735509 0 0
0.00811935 0 0
0.00892642 0 0
0.00978446 0 0
0.0107031 0 0
0.011694 0 0
0.0127709 0 0
0.0139509 0 0
0.0152546 0 0
0.016708 0 0
0.0183433 0 0
0.0202014 0 0
0.0223343 0 0
0.024809 0 0
0.0277125 0 0
0.0311599 0 0
0.0353067 0 0
0.0403673 0 0
0.0466446 0 0
0.0545774 0 0
0.0648211 0 0
0.0783876 0 0
0.0968999 0 0
0.123074 0 0
0.161669 0 0
0.221429 0 0
0.319078 0 0
0.486825 0 0
0.779241 0 0
0.000352393 0 0
0.00105732 0 0
0.0017636 0 0
0.00247303 0 0
0.00318792 0 0
0.00391104 0 0
0.00464562 0 0
0.00539538 0 0
0.0061645 0 0
0.00695776 0 0
0.00778055 0 0
0.00863904 0 0
0.00954035 0 0
0.0104927 0 0
0.0115058 0 0
0.012591 0 0
0.013762 0 0
0.0150351 0 0
0.0164304 0 0
0.0179723 0 0
0.0196912 0 0
0.0216254 0 0
0.023823 0 0
0.0263457 0 0
0.0292725 0 0
0.032706 0 0
0.0367819 0 0
0.0416826 0 0
0.0476593 0 0
0.0550646 0 0
0.0644069 0 0
0.0764386 0 0
0.0923079 0 0
0.113827 0 0
0.143964 0 0
0.187765 0 0
0.25412 0 0
0.359029 0 0
0.530522 0 0
0.80843 0 0
0.000401092 0 0
0.00120352 0 0
0.00200775 0 0
0.00281594 0 0
0.00363081 0 0
0.00445563 0 0
0.00529416 0 0
0.00615067 0 0
0.00703 0 0
0.00793764 0 0
0.00887979 0 0
0.00986354 0 0
0.0108971 0 0
0.0119898 0 0
0.0131529 0 0
0.0143995 0 0
0.0157452 0 0
0.0172087 0 0
0.0188131 0 0
0.0205862 0 0
0.0225629 0 0
0.0247868 0 0
0.027313 0 0
0.0302122 0 0
0.0335751 0 0
0.0375189 0 0
0.0421982 0 0
0.0478204 0 0
0.0546698 0 0
0.0631442 0 0
0.0738126 0 0
0.0875104 0 0
0.105497 0 0
0.129731 0 0
0.163352 0 0
0.211554 0 0
0.283139 0 0
0.393092 0 0
0.565496 0 0
0.829225 0 0
0.000447471 0 0
0.0013428 0 0
0.00224042 0 0
0.0031429 0 0
0.00405344 0 0
0.00497575 0 0
0.00591414 0 0
0.00687347 0 0
0.0078592 0 0
0.00887751 0 0
0.0099354 0 0
0.0110409 0 0
0.0122031 0 0
0.0134327 0 0
0.0147423 0 0
0.0161465 0 0
0.0176631 0 0
0.0193131 0 0
0.0211223 0 0
0.0231221 0 0
0.0253513 0 0
0.0278586 0 0
0.0307055 0 0
0.0339714 0 0
0.037758 0 0
0.0421962 0 0
0.0474579 0 0
0.0537733 0 0
0.061457 0 0
0.0709469 0 0
0.0828651 0 0
0.098117 0 0
0.118053 0 0
0.14474 0 0
0.181429 0 0
0.233361 0 0
0.309102 0 0
0.422509 0 0
0.594135 0 0
0.844761 0 0
0.000491838 0 0
0.00147606 0 0
0.00246314 0 0
0.0034561 0 0
0.00445859 0 0
0.00547486 0 0
0.00650972 0 0
0.00756862 0 0
0.00865766 0 0
0.00978369 0 0
0.0109545 0 0
0.0121789 0 0
0.0134672 0 0
0.0148311 0 0
0.0162845 0 0
0.0178438 0 0
0.0195285 0 0
0.0213623 0 0
0.0233734 0 0
0.0255968 0 0
0.0280753 0 0
0.0308622 0 0
0.034025 0 0
0.0376503 0 0
0.0418512 0 0
0.0467708 0 0
0.0525969 0 0
0.0595808 0 0
0.0680642 0 0
0.0785206 0 0
0.0916183 0 0
0.108321 0 0
0.130052 0 0
0.158956 0 0
0.198351 0 0
0.253448 0 0
0.332493 0 0
0.448196 0 0
0.61804 0 0
0.856825 0 0
0.000534373 0 0
0.00160385 0 0
0.00267684 0 0
0.00375683 0 0
0.00484798 0 0
0.00595506 0 0
0.00708344 0 0
0.00823914 0 0
0.00942888 0 0
0.0106602 0 0
0.0119416 0 0
0.0132828 0 0
0.014695 0 0
0.0161911 0 0
0.0177864 0 0
0.0194987 0 0
0.0213497 0 0
0.023365 0 0
0.025576 0 0
0.0280211 0 0
0.0307473 0 0
0.0338136 0 0
0.0372947 0 0
0.0412897 0 0
0.045901 0 0
0.0512923 0 0
0.0576684 0 0
0.0653002 0 0
0.0745545 0 0
0.0859358 0 0
0.100152 0 0
0.118216 0 0
0.141604 0 0
0.17252 0 0
0.214305 0 0
0.272093 0 0
0.353754 0 0
0.470892 0 0
0.638358 0 0
0.866512 0 0
0.000575166 0 0
0.00172645 0 0
0.00288197 0 0
0.00404575 0 0
0.00522248 0 0
0.00641747 0 0
0.00763666 0 0
0.00888667 0 0
0.0101748 0 0
0.0115093 0 0
0.0128994 0 0
0.0143556 0 0
0.0158901 0 0
0.0175168 0 0
0.0192523 0 0
0.021116 0 0
0.0231314 0 0
0.0253265 0 0
0.0277354 0 0
0.0304 0 0
0.0333717 0 0
0.0367154 0 0
0.0405127 0 0
0.0448699 0 0
0.0498867 0 0
0.0557408 0 0
0.0626532 0 0
0.0709136 0 0
0.080911 0 0
0.093178 0 0
0.108456 0 0
0.127798 0 0
0.152724 0 0
0.18547 0 0
0.229374 0 0
0.289455 0 0
0.373185 0 0
0.491121 0 0
0.655875 0 0
0.874493 0 0
0.000614233 0 0
0.0018439 0 0
0.00307863 0 0
0.00432301 0 0
0.0055823 0 0
0.00686241 0 0
0.00816985 0 0
0.00951182 0 0
0.0108963 0 0
0.012332 0 0
0.0138291 0 0
0.0153988 0 0
0.0170541 0 0
0.01881 0 0
0.0206844 0 0
0.0226982 0 0
0.0248764 0 0
0.0272494 0 0
0.0298539 0 0
0.0327348 0 0
0.0359476 0 0
0.0395615 0 0
0.0436623 0 0
0.0483562 0 0
0.053766 0 0
0.0600708 0 0
0.0675038 0 0
0.0763712 0 0
0.0870825 0 0
0.100195 0 0
0.116479 0 0
0.137019 0 0
0.163368 0 0
0.197781 0 0
0.243569 0 0
0.305613 0 0
0.390975 0 0
0.509244 0 0
0.671132 0 0
0.881193 0 0
0.00065153 0 0
0.00195609 0 0
0.00326662 0 0
0.00458836 0 0
0.00592719 0 0
0.00728961 0 0
0.00868274 0 0
0.0101144 0 0
0.0115931 0 0
0.0131284 0 0
0.0147309 0 0
0.0164127 0 0
0.0181875 0 0
0.0200716 0 0
0.0220837 0 0
0.0242462 0 0
0.0265858 0 0
0.0291348 0 0
0.0319322 0 0
0.0350258 0 0
0.0384746 0 0
0.042351 0 0
0.0467449 0 0
0.0517674 0 0
0.0575565 0 0
0.0642977 0 0
0.0722348 0 0
0.0816882 0 0
0.0930853 0 0
0.107005 0 0
0.124242 0 0
0.145907 0 0
0.173576 0 0
0.209508 0 0
0.256974 0 0
0.320698 0 0
0.407336 0 0
0.525591 0 0
0.68456 0 0
0.886917 0 0
0.000686963 0 0
0.00206272 0 0
0.00344548 0 0
0.00484119 0 0
0.00625638 0 0
0.0076982 0 0
0.00917441 0 0
0.0106934 0 0
0.0122644 0 0
0.0138974 0 0
0.0156039 0 0
0.0173965 0 0
0.0192899 0 0
0.0213011 0 0
0.0234499 0 0
0.02576 0 0
0.0282596 0 0
0.0309828 0 0
0.0339707 0 0
0.0372737 0 0
0.0409536 0 0
0.0450864 0 0
0.0497664 0 0
0.0551109 0 0
0.0612683 0 0
0.0684327 0 0
0.0768576 0 0
0.0868765 0 0
0.0989324 0 0
0.113623 0 0
0.131764 0 0
0.154486 0 0
0.18338 0 0
0.2207 0 0
0.269661 0 0
0.334823 0 0
0.422446 0 0
0.540425 0 0
0.696488 0 0
0.891881 0 0
0.000720386 0 0
0.00216336 0 0
0.00361452 0 0
0.00508054 0 0
0.00656869 0 0
0.00808682 0 0
0.00964332 0 0
0.0112472 0 0
0.0129084 0 0
0.0146375 0 0
0.0164464 0 0
0.0183487 0 0
0.0203596 0 0
0.022497 0 0
0.0247818 0 0
0.0272387 0 0
0.0298972 0 0
0.0327931 0 0
0.0359694 0 0
0.0394789 0 0
0.0433862 0 0
0.0477708 0 0
0.0527314 0 0
0.0583915 0 0
0.0649081 0 0
0.0724835 0 0
0.081381 0 0
0.0919456 0 0
0.104635 0 0
0.120062 0 0
0.13906 0 0
0.162777 0 0
0.192809 0 0
0.231397 0 0
0.281693 0 0
0.348084 0 0
0.436454 0 0
0.553962 0 0
0.70717 0 0
0.896237 0 0
0.000751607 0 0
0.00225745 0 0
0.00377278 0 0
0.00530512 0 0
0.00686252 0 0
0.00845357 0 0
0.0100873 0 0
0.0117736 0 0
0.0135226 0 0
0.0153459 0 0
0.0172559 0 0
0.0192666 0 0
0.0213942 0 0
0.0236573 0 0
0.0260774 0 0
0.0286804 0 0
0.0314971 0 0
0.0345646 0 0
0.0379279 0 0
0.0416418 0 0
0.0457735 0 0
0.0504062 0 0
0.055643 0 0
0.0616131 0 0
0.0684806 0 0
0.076456 0 0
0.0858116 0 0
0.0969034 0 0
0.110201 0 0
0.126333 0 0
0.146145 0 0
0.170797 0 0
0.201887 0 0
0.241636 0 0
0.293124 0 0
0.360566 0 0
0.449485 0 0
0.566374 0 0
0.716805 0 0
0.900102 0 0
0.000780383 0 0
0.00234426 0 0
0.00391909 0 0
0.0055133 0 0
0.00713582 0 0
0.00879602 0 0
0.0105037 0 0
0.0122693 0 0
0.0141038 0 0
0.0160193 0 0
0.0180287 0 0
0.0201468 0 0
0.0223903 0 0
0.0247784 0 0
0.0273336 0 0
0.0300825 0 0
0.033057 0 0
0.0362957 0 0
0.039845 0 0
0.0437619 0 0
0.0481162 0 0
0.0529943 0 0
0.0585034 0 0
0.0647783 0 0
0.0719894 0 0
0.0803547 0 0
0.0901551 0 0
0.101756 0 0
0.11564 0 0
0.132445 0 0
0.153031 0 0
0.178563 0 0
0.210638 0 0
0.25145 0 0
0.304004 0 0
0.372342 0 0
0.461645 0 0
0.577808 0 0
0.72555 0 0
0.90356 0 0
0.000806424 0 0
0.00242292 0 0
0.004052 0 0
0.00570311 0 0
0.00738609 0 0
0.00911119 0 0
0.010889 0 0
0.0127307 0 0
0.0146479 0 0
0.0166532 0 0
0.0187604 0 0
0.0209847 0 0
0.0233433 0 0
0.0258561 0 0
0.0285462 0 0
0.0314411 0 0
0.0345736 0 0
0.0379835 0 0
0.0417187 0 0
0.045838 0 0
0.0504138 0 0
0.0555354 0 0
0.061314 0 0
0.0678891 0 0
0.0754373 0 0
0.0841833 0 0
0.0944161 0 0
0.106511 0 0
0.120958 0 0
0.138408 0 0
0.159728 0 0
0.18609 0 0
0.219083 0 0
0.260869 0 0
0.314375 0 0
0.383475 0 0
0.473027 0 0
0.588382 0 0
0.733534 0 0
0.906679 0 0
0.00082939 0 0
0.00249242 0 0
0.00416984 0 0
0.0058722 0 0
0.00761037 0 0
0.00939551 0 0
0.0112391 0 0
0.013153 0 0
0.0151497 0 0
0.0172424 0 0
0.0194454 0 0
0.0217744 0 0
0.0242474 0 0
0.0268845 0 0
0.0297097 0 0
0.0327511 0 0
0.0360423 0 0
0.039624 0 0
0.0435457 0 0
0.0478678 0 0
0.0526649 0 0
0.0580291 0 0
0.0640751 0 0
0.070947 0 0
0.0788267 0 0
0.0879454 0 0
0.0985993 0 0
0.111171 0 0
0.126162 0 0
0.144229 0 0
0.166248 0 0
0.193392 0 0
0.22724 0 0
0.26992 0 0
0.324277 0 0
0.394022 0 0
0.483708 0 0
0.598198 0 0
0.740859 0 0
0.909512 0 0
0.000848892 0 0
0.0025516 0 0
0.00427067 0 0
0.00601787 0 0
0.00780519 0 0
0.00964481 0 0
0.0115491 0 0
0.0135309 0 0
0.0156033 0 0
0.0177802 0 0
0.0200766 0 0
0.0225088 0 0
0.0250951 0 0
0.0278564 0 0
0.0308171 0 0
0.0340057 0 0
0.0374568 0 0
0.0412118 0 0
0.0453213 0 0
0.0498474 0 0
0.0548666 0 0
0.0604737 0 0
0.0667868 0 0
0.0739547 0 0
0.0821621 0 0
0.0916469 0 0
0.102712 0 0
0.115748 0 0
0.131264 0 0
0.149923 0 0
0.172608 0 0
0.20049 0 0
0.235135 0 0
0.278635 0 0
0.333753 0 0
0.404039 0 0
0.493764 0 0
0.607347 0 0
0.747614 0 0
0.9121 0 0
0.00086449 0 0
0.00259912 0 0
0.00435228 0 0
0.00613704 0 0
0.0079666 0 0
0.00985425 0 0
0.0118134 0 0
0.0138577 0 0
0.0160013 0 0
0.0182587 0 0
0.0206456 0 0
0.0231789 0 0
0.0258774 0 0
0.0287626 0 0
0.0318591 0 0
0.0351962 0 0
0.0388087 0 0
0.042739 0 0
0.0470386 0 0
0.0517709 0 0
0.057014 0 0
0.0628652 0 0
0.0694457 0 0
0.076908 0 0
0.08544 0 0
0.0952852 0 0
0.106753 0 0
0.120241 0 0
0.136263 0 0
0.155493 0 0
0.178812 0 0
0.207392 0 0
0.242781 0 0
0.287035 0 0
0.342833 0 0
0.41357 0 0
0.503253 0 0
0.615899 0 0
0.753868 0 0
0.914479 0 0
0.000875695 0 0
0.00263353 0 0
0.00441221 0 0
0.00622624 0 0
0.00809009 0 0
0.0100183 0 0
0.0120253 0 0
0.0141259 0 0
0.0163351 0 0
0.0186684 0 0
0.021142 0 0
0.0237737 0 0
0.0265829 0 0
0.0295912 0 0
0.0328241 0 0
0.0363109 0 0
0.0400871 0 0
0.0441954 0 0
0.0486882 0 0
0.0536296 0 0
0.0590994 0 0
0.0651966 0 0
0.0720449 0 0
0.079799 0 0
0.0886526 0 0
0.098853 0 0
0.110715 0 0
0.124643 0 0
0.141156 0 0
0.160933 0 0
0.184858 0 0
0.214096 0 0
0.250183 0 0
0.295129 0 0
0.351535 0 0
0.422646 0 0
0.51222 0 0
0.623914 0 0
0.759679 0 0
0.916672 0 0
0.000881981 0 0
0.00265323 0 0
0.00444779 0 0
0.00628165 0 0
0.00817068 0 0
0.0101307 0 0
0.0121775 0 0
0.0143268 0 0
0.0165948 0 0
0.0189981 0 0
0.0215537 0 0
0.0242801 0 0
0.0271974 0 0
0.0303279 0 0
0.0336972 0 0
0.0373352 0 0
0.0412775 0 0
0.0455672 0 0
0.0502571 0 0
0.055412 0 0
0.0611125 0 0
0.0674591 0 0
0.0745771 0 0
0.0826241 0 0
0.0917977 0 0
0.102349 0 0
0.114599 0 0
0.128955 0 0
0.145945 0 0
0.166248 0 0
0.190751 0 0
0.220615 0 0
0.257353 0 0
0.302936 0 0
0.359885 0 0
0.431302 0 0
0.520712 0 0
0.631444 0 0
0.765094 0 0
0.918703 0 0
0.000882792 0 0
0.00265654 0 0
0.00445616 0 0
0.00629919 0 0
0.00820298 0 0
0.0101847 0 0
0.0122615 0 0
0.0144505 0 0
0.0167691 0 0
0.0192348 0 0
0.0218661 0 0
0.0246822 0 0
0.027704 0 0
0.0309545 0 0
0.0344598 0 0
0.0382501 0 0
0.0423612 0 0
0.0468363 0 0
0.0517282 0 0
0.0571022 0 0
0.0630392 0 0
0.0696406 0 0
0.077033 0 0
0.085376 0 0
0.0948705 0 0
0.105772 0 0
0.118403 0 0
0.13318 0 0
0.150632 0 0
0.171443 0 0
0.1965 0 0
0.226954 0 0
0.264303 0 0
0.310473 0 0
0.367907 0 0
0.439569 0 0
0.528769 0 0
0.638535 0 0
0.770158 0 0
0.92059 0 0
0.000877555 0 0
0.00264172 0 0
0.00443435 0 0
0.00627458 0 0
0.00818124 0 0
0.010173 0 0
0.0122685 0 0
0.0144862 0 0
0.0168449 0 0
0.0193637 0 0
0.0220623 0 0
0.0249611 0 0
0.028082 0 0
0.0314489 0 0
0.0350885 0 0
0.0390315 0 0
0.0433138 0 0
0.0479786 0 0
0.0530785 0 0
0.0586787 0 0
0.0648601 0 0
0.0717242 0 0
0.0793983 0 0
0.0880433 0 0
0.0978625 0 0
0.109114 0 0
0.122125 0 0
0.137315 0 0
0.155218 0 0
0.17652 0 0
0.202107 0 0
0.233124 0 0
0.271044 0 0
0.317756 0 0
0.375622 0 0
0.447476 0 0
0.536426 0 0
0.645229 0 0
0.774905 0 0
0.922351 0 0
0.000865706 0 0
0.00260705 0 0
0.0043794 0 0
0.00620345 0 0
0.00809955 0 0
0.0100879 0 0
0.0121886 0 0
0.0144219 0 0
0.0168082 0 0
0.019368 0 0
0.0221228 0 0
0.0250946 0 0
0.0283066 0 0
0.031784 0 0
0.0355543 0 0
0.0396489 0 0
0.0441039 0 0
0.0489624 0 0
0.0542769 0 0
0.0601119 0 0
0.0665477 0 0
0.0736853 0 0
0.081652 0 0
0.0906088 0 0
0.10076 0 0
0.112366 0 0
0.125758 0 0
0.141357 0 0
0.159702 0 0
0.181482 0 0
0.207579 0 0
0.239129 0 0
0.277587 0 0
0.324797 0 0
0.383048 0 0
0.455048 0 0
0.543715 0 0
0.651561 0 0
0.779368 0 0
0.923998 0 0
0.000846715 0 0
0.0025509 0 0
0.00428848 0 0
0.00608159 0 0
0.00795209 0 0
0.00992169 0 0
0.0120121 0 0
0.0142453 0 0
0.0166434 0 0
0.0192292 0 0
0.0220257 0 0
0.0250572 0 0
0.0283487 0 0
0.031927 0 0
0.0358212 0 0
0.0400636 0 0
0.0446909 0 0
0.0497463 0 0
0.0552818 0 0
0.0613611 0 0
0.0680634 0 0
0.0754886 0 0
0.0837627 0 0
0.0930457 0 0
0.103542 0 0
0.115512 0 0
0.129289 0 0
0.145299 0 0
0.164082 0 0
0.186327 0 0
0.212916 0 0
0.244976 0 0
0.28394 0 0
0.331611 0 0
0.390203 0 0
0.462307 0 0
0.550665 0 0
0.657562 0 0
0.783573 0 0
0.925544 0 0
0.000820124 0 0
0.00247185 0 0
0.00415905 0 0
0.00590518 0 0
0.00773343 0 0
0.00966696 0 0
0.0117291 0 0
0.0139437 0 0
0.0163348 0 0
0.0189273 0 0
0.0217469 0 0
0.02482 0 0
0.0281745 0 0
0.0318393 0 0
0.0358456 0 0
0.0402276 0 0
0.045023 0 0
0.0502756 0 0
0.0560371 0 0
0.0623702 0 0
0.0693527 0 0
0.0770825 0 0
0.0856834 0 0
0.0953129 0 0
0.106172 0 0
0.118523 0 0
0.132698 0 0
0.149125 0 0
0.168345 0 0
0.19105 0 0
0.218119 0 0
0.250668 0 0
0.29011 0 0
0.338207 0 0
0.397103 0 0
0.469275 0 0
0.557301 0 0
0.66326 0 0
0.787545 0 0
0.926998 0 0
0.000785588 0 0
0.00236882 0 0
0.00398915 0 0
0.00567109 0 0
0.00743895 0 0
0.00931719 0 0
0.0113307 0 0
0.013505 0 0
0.0158664 0 0
0.0184422 0 0
0.0212608 0 0
0.0243518 0 0
0.027746 0 0
0.0314758 0 0
0.0355755 0 0
0.0400818 0 0
0.0450348 0 0
0.0504796 0 0
0.0564682 0 0
0.0630626 0 0
0.0703388 0 0
0.0783921 0 0
0.0873432 0 0
0.0973459 0 0
0.108596 0 0
0.121352 0 0
0.135946 0 0
0.152805 0 0
0.172472 0 0
0.195638 0 0
0.223179 0 0
0.256203 0 0
0.2961 0 0
0.344595 0 0
0.403761 0 0
0.47597 0 0
0.563644 0 0
0.668677 0 0
0.791301 0 0
0.928366 0 0
0.000742929 0 0
0.00224121 0 0
0.00377761 0 0
0.0053773 0 0
0.0070654 0 0
0.00886739 0 0
0.0108095 0 0
0.0129188 0 0
0.0152239 0 0
0.0177545 0 0
0.0205421 0 0
0.0236198 0 0
0.0270223 0 0
0.0307863 0 0
0.0349504 0 0
0.0395555 0 0
0.0446454 0 0
0.0502681 0 0
0.0564771 0 0
0.0633344 0 0
0.070914 0 0
0.079307 0 0
0.0886273 0 0
0.0990153 0 0
0.110689 0 0
0.123887 0 0
0.138935 0 0
0.156255 0 0
0.176388 0 0
0.200024 0 0
0.228036 0 0
0.261525 0 0
0.301861 0 0
0.35073 0 0
0.410141 0 0
0.482364 0 0
0.569677 0 0
0.673803 0 0
0.794832 0 0
0.92964 0 0
0.00069218 0 0
0.00208906 0 0
0.00352431 0 0
0.00502328 0 0
0.00661145 0 0
0.0083149 0 0
0.0101608 0 0
0.0121776 0 0
0.0143957 0 0
0.0168474 0 0
0.0195673 0 0
0.0225922 0 0
0.0259616 0 0
0.0297171 0 0
0.0339032 0 0
0.0385667 0 0
0.0437573 0 0
0.0495282 0 0
0.055937 0 0
0.0630476 0 0
0.0709333 0 0
0.0796811 0 0
0.0893976 0 0
0.100215 0 0
0.112359 0 0
0.126053 0 0
0.141608 0 0
0.159435 0 0
0.180071 0 0
0.2042 0 0
0.232693 0 0
0.266643 0 0
0.307403 0 0
0.356625 0 0
0.416258 0 0
0.488474 0 0
0.575419 0 0
0.67866 0 0
0.798163 0 0
0.930833 0 0
0.000633635 0 0
0.00191322 0 0
0.0032305 0 0
0.00461043 0 0
0.00607829 0 0
0.00766019 0 0
0.00938366 0 0
0.0112781 0 0
0.0133752 0 0
0.0157094 0 0
0.018318 0 0
0.0212419 0 0
0.0245251 0 0
0.0282153 0 0
0.0323639 0 0
0.0370255 0 0
0.0422584 0 0
0.0481241 0 0
0.0546882 0 0
0.0620209 0 0
0.0701992 0 0
0.0793109 0 0
0.0894604 0 0
0.100782 0 0
0.113466 0 0
0.127734 0 0
0.143879 0 0
0.162295 0 0
0.183503 0 0
0.208178 0 0
0.237184 0 0
0.271605 0 0
0.312784 0 0
0.362342 0 0
0.422172 0 0
0.49436 0 0
0.580927 0 0
0.683296 0 0
0.801328 0 0
0.931966 0 0
0.000567905 0 0
0.00171549 0 0
0.00289905 0 0
0.00414254 0 0
0.00547032 0 0
0.00690786 0 0
0.00848235 0 0
0.0102233 0 0
0.0121629 0 0
0.0143369 0 0
0.0167849 0 0
0.0195508 0 0
0.0226831 0 0
0.0262356 0 0
0.0302671 0 0
0.0348415 0 0
0.0400281 0 0
0.0459007 0 0
0.0525377 0 0
0.0600221 0 0
0.0684423 0 0
0.0778942 0 0
0.0884868 0 0
0.100351 0 0
0.113656 0 0
0.128604 0 0
0.145465 0 0
0.164604 0 0
0.186511 0 0
0.211839 0 0
0.241436 0 0
0.276377 0 0
0.317991 0 0
0.36788 0 0
0.427892 0 0
0.500034 0 0
0.586218 0 0
0.687738 0 0
0.80436 0 0
0.93306 0 0
0.000495944 0 0
0.0014987 0 0
0.00253468 0 0
0.00362607 0 0
0.00479562 0 0
0.00606737 0 0
0.00746725 0 0
0.00902382 0 0
0.0107689 0 0
0.0127382 0 0
0.0149721 0 0
0.0175164 0 0
0.0204229 0 0
0.0237501 0 0
0.0275639 0 0
0.0319377 0 0
0.0369529 0 0
0.0426984 0 0
0.0492707 0 0
0.0567729 0 0
0.0653145 0 0
0.0750115 0 0
0.0859888 0 0
0.0983844 0 0
0.112357 0 0
0.128095 0 0
0.145835 0 0
0.165898 0 0
0.188724 0 0
0.214914 0 0
0.245276 0 0
0.280859 0 0
0.32298 0 0
0.373226 0 0
0.433419 0 0
0.505503 0 0
0.591291 0 0
0.691959 0 0
0.807191 0 0
0.934048 0 0
0.00041907 0 0
0.00126683 0 0
0.00214404 0 0
0.00307042 0 0
0.00406638 0 0
0.00515363 0 0
0.00635591 0 0
0.00769971 0 0
0.00921492 0 0
0.0109358 0 0
0.0129016 0 0
0.0151579 0 0
0.0177573 0 0
0.0207607 0 0
0.0242384 0 0
0.0282712 0 0
0.0329513 0 0
0.0383829 0 0
0.0446827 0 0
0.0519796 0 0
0.0604138 0 0
0.0701359 0 0
0.0813056 0 0
0.0940913 0 0
0.10867 0 0
0.125234 0 0
0.143999 0 0
0.16524 0 0
0.18932 0 0
0.21675 0 0
0.248242 0 0
0.284771 0 0
0.327608 0 0
0.378326 0 0
0.438743 0 0
0.510784 0 0
0.596207 0 0
0.696119 0 0
0.810134 0 0
0.935205 0 0
0.000338968 0 0
0.00102499 0 0
0.00173577 0 0
0.00248798 0 0
0.00329896 0 0
0.00418731 0 0
0.00517359 0 0
0.00628098 0 0
0.00753603 0 0
0.00896954 0 0
0.0106175 0 0
0.0125224 0 0
0.0147342 0 0
0.0173122 0 0
0.0203266 0 0
0.0238603 0 0
0.0280109 0 0
0.0328929 0 0
0.0386395 0 0
0.0454038 0 0
0.0533604 0 0
0.0627042 0 0
0.0736495 0 0
0.0864262 0 0
0.101275 0 0
0.118441 0 0
0.138178 0 0
0.16075 0 0
0.186464 0 0
0.21571 0 0
0.249031 0 0
0.287212 0 0
0.331359 0 0
0.382946 0 0
0.443781 0 0
0.515816 0 0
0.600788 0 0
0.69966 0 0
0.811997 0 0
0.935416 0 0