# vtk DataFile Version 2.0
Presion
ASCII

DATASET STRUCTURED_GRID
DIMENSIONS   40   40   20

POINTS   32000   double
0.0125   0.0125   0.025
0.0375   0.0125   0.025
0.0625   0.0125   0.025
0.0875   0.0125   0.025
0.1125   0.0125   0.025
0.1375   0.0125   0.025
0.1625   0.0125   0.025
0.1875   0.0125   0.025
0.2125   0.0125   0.025
0.2375   0.0125   0.025
0.2625   0.0125   0.025
0.2875   0.0125   0.025
0.3125   0.0125   0.025
0.3375   0.0125   0.025
0.3625   0.0125   0.025
0.3875   0.0125   0.025
0.4125   0.0125   0.025
0.4375   0.0125   0.025
0.4625   0.0125   0.025
0.4875   0.0125   0.025
0.5125   0.0125   0.025
0.5375   0.0125   0.025
0.5625   0.0125   0.025
0.5875   0.0125   0.025
0.6125   0.0125   0.025
0.6375   0.0125   0.025
0.6625   0.0125   0.025
0.6875   0.0125   0.025
0.7125   0.0125   0.025
0.7375   0.0125   0.025
0.7625   0.0125   0.025
0.7875   0.0125   0.025
0.8125   0.0125   0.025
0.8375   0.0125   0.025
0.8625   0.0125   0.025
0.8875   0.0125   0.025
0.9125   0.0125   0.025
0.9375   0.0125   0.025
0.9625   0.0125   0.025
0.9875   0.0125   0.025
0.0125   0.0375   0.025
0.0375   0.0375   0.025
0.0625   0.0375   0.025
0.0875   0.0375   0.025
0.1125   0.0375   0.025
0.1375   0.0375   0.025
0.1625   0.0375   0.025
0.1875   0.0375   0.025
0.2125   0.0375   0.025
0.2375   0.0375   0.025
0.2625   0.0375   0.025
0.2875   0.0375   0.025
0.3125   0.0375   0.025
0.3375   0.0375   0.025
0.3625   0.0375   0.025
0.3875   0.0375   0.025
0.4125   0.0375   0.025
0.4375   0.0375   0.025
0.4625   0.0375   0.025
0.4875   0.0375   0.025
0.5125   0.0375   0.025
0.5375   0.0375   0.025
0.5625   0.0375   0.025
0.5875   0.0375   0.025
0.6125   0.0375   0.025
0.6375   0.0375   0.025
0.6625   0.0375   0.025
0.6875   0.0375   0.025
0.7125   0.0375   0.025
0.7375   0.0375   0.025
0.7625   0.0375   0.025
0.7875   0.0375   0.025
0.8125   0.0375   0.025
0.8375   0.0375   0.025
0.8625   0.0375   0.025
0.8875   0.0375   0.025
0.9125   0.0375   0.025
0.9375   0.0375   0.025
0.9625   0.0375   0.025
0.9875   0.0375   0.025
0.0125   0.0625   0.025
0.0375   0.0625   0.025
0.0625   0.0625   0.025
0.0875   0.0625   0.025
0.1125   0.0625   0.025
0.1375   0.0625   0.025
0.1625   0.0625   0.025
0.1875   0.0625   0.025
0.2125   0.0625   0.025
0.2375   0.0625   0.025
0.2625   0.0625   0.025
0.2875   0.0625   0.025
0.3125   0.0625   0.025
0.3375   0.0625   0.025
0.3625   0.0625   0.025
0.3875   0.0625   0.025
0.4125   0.0625   0.025
0.4375   0.0625   0.025
0.4625   0.0625   0.025
0.4875   0.0625   0.025
0.5125   0.0625   0.025
0.5375   0.0625   0.025
0.5625   0.0625   0.025
0.5875   0.0625   0.025
0.6125   0.0625   0.025
0.6375   0.0625   0.025
0.6625   0.0625   0.025
0.6875   0.0625   0.025
0.7125   0.0625   0.025
0.7375   0.0625   0.025
0.7625   0.0625   0.025
0.7875   0.0625   0.025
0.8125   0.0625   0.025
0.8375   0.0625   0.025
0.8625   0.0625   0.025
0.8875   0.0625   0.025
0.9125   0.0625   0.025
0.9375   0.0625   0.025
0.9625   0.0625   0.025
0.9875   0.0625   0.025
0.0125   0.0875   0.025
0.0375   0.0875   0.025
0.0625   0.0875   0.025
0.0875   0.0875   0.025
0.1125   0.0875   0.025
0.1375   0.0875   0.025
0.1625   0.0875   0.025
0.1875   0.0875   0.025
0.2125   0.0875   0.025
0.2375   0.0875   0.025
0.2625   0.0875   0.025
0.2875   0.0875   0.025
0.3125   0.0875   0.025
0.3375   0.0875   0.025
0.3625   0.0875   0.025
0.3875   0.0875   0.025
0.4125   0.0875   0.025
0.4375   0.0875   0.025
0.4625   0.0875   0.025
0.4875   0.0875   0.025
0.5125   0.0875   0.025
0.5375   0.0875   0.025
0.5625   0.0875   0.025
0.5875   0.0875   0.025
0.6125   0.0875   0.025
0.6375   0.0875   0.025
0.6625   0.0875   0.025
0.6875   0.0875   0.025
0.7125   0.0875   0.025
0.7375   0.0875   0.025
0.7625   0.0875   0.025
0.7875   0.0875   0.025
0.8125   0.0875   0.025
0.8375   0.0875   0.025
0.8625   0.0875   0.025
0.8875   0.0875   0.025
0.9125   0.0875   0.025
0.9375   0.0875   0.025
0.9625   0.0875   0.025
0.9875   0.0875   0.025
0.0125   0.1125   0.025
0.0375   0.1125   0.025
0.0625   0.1125   0.025
0.0875   0.1125   0.025
0.1125   0.1125   0.025
0.1375   0.1125   0.025
0.1625   0.1125   0.025
0.1875   0.1125   0.025
0.2125   0.1125   0.025
0.2375   0.1125   0.025
0.2625   0.1125   0.025
0.2875   0.1125   0.025
0.3125   0.1125   0.025
0.3375   0.1125   0.025
0.3625   0.1125   0.025
0.3875   0.1125   0.025
0.4125   0.1125   0.025
0.4375   0.1125   0.025
0.4625   0.1125   0.025
0.4875   0.1125   0.025
0.5125   0.1125   0.025
0.5375   0.1125   0.025
0.5625   0.1125   0.025
0.5875   0.1125   0.025
0.6125   0.1125   0.025
0.6375   0.1125   0.025
0.6625   0.1125   0.025
0.6875   0.1125   0.025
0.7125   0.1125   0.025
0.7375   0.1125   0.025
0.7625   0.1125   0.025
0.7875   0.1125   0.025
0.8125   0.1125   0.025
0.8375   0.1125   0.025
0.8625   0.1125   0.025
0.8875   0.1125   0.025
0.9125   0.1125   0.025
0.9375   0.1125   0.025
0.9625   0.1125   0.025
0.9875   0.1125   0.025
0.0125   0.1375   0.025
0.0375   0.1375   0.025
0.0625   0.1375   0.025
0.0875   0.1375   0.025
0.1125   0.1375   0.025
0.1375   0.1375   0.025
0.1625   0.1375   0.025
0.1875   0.1375   0.025
0.2125   0.1375   0.025
0.2375   0.1375   0.025
0.2625   0.1375   0.025
0.2875   0.1375   0.025
0.3125   0.1375   0.025
0.3375   0.1375   0.025
0.3625   0.1375   0.025
0.3875   0.1375   0.025
0.4125   0.1375   0.025
0.4375   0.1375   0.025
0.4625   0.1375   0.025
0.4875   0.1375   0.025
0.5125   0.1375   0.025
0.5375   0.1375   0.025
0.5625   0.1375   0.025
0.5875   0.1375   0.025
0.6125   0.1375   0.025
0.6375   0.1375   0.025
0.6625   0.1375   0.025
0.6875   0.1375   0.025
0.7125   0.1375   0.025
0.7375   0.1375   0.025
0.7625   0.1375   0.025
0.7875   0.1375   0.025
0.8125   0.1375   0.025
0.8375   0.1375   0.025
0.8625   0.1375   0.025
0.8875   0.1375   0.025
0.9125   0.1375   0.025
0.9375   0.1375   0.025
0.9625   0.1375   0.025
0.9875   0.1375   0.025
0.0125   0.1625   0.025
0.0375   0.1625   0.025
0.0625   0.1625   0.025
0.0875   0.1625   0.025
0.1125   0.1625   0.025
0.1375   0.1625   0.025
0.1625   0.1625   0.025
0.1875   0.1625   0.025
0.2125   0.1625   0.025
0.2375   0.1625   0.025
0.2625   0.1625   0.025
0.2875   0.1625   0.025
0.3125   0.1625   0.025
0.3375   0.1625   0.025
0.3625   0.1625   0.025
0.3875   0.1625   0.025
0.4125   0.1625   0.025
0.4375   0.1625   0.025
0.4625   0.1625   0.025
0.4875   0.1625   0.025
0.5125   0.1625   0.025
0.5375   0.1625   0.025
0.5625   0.1625   0.025
0.5875   0.1625   0.025
0.6125   0.1625   0.025
0.6375   0.1625   0.025
0.6625   0.1625   0.025
0.6875   0.1625   0.025
0.7125   0.1625   0.025
0.7375   0.1625   0.025
0.7625   0.1625   0.025
0.7875   0.1625   0.025
0.8125   0.1625   0.025
0.8375   0.1625   0.025
0.8625   0.1625   0.025
0.8875   0.1625   0.025
0.9125   0.1625   0.025
0.9375   0.1625   0.025
0.9625   0.1625   0.025
0.9875   0.1625   0.025
0.0125   0.1875   0.025
0.0375   0.1875   0.025
0.0625   0.1875   0.025
0.0875   0.1875   0.025
0.1125   0.1875   0.025
0.1375   0.1875   0.025
0.1625   0.1875   0.025
0.1875   0.1875   0.025
0.2125   0.1875   0.025
0.2375   0.1875   0.025
0.2625   0.1875   0.025
0.2875   0.1875   0.025
0.3125   0.1875   0.025
0.3375   0.1875   0.025
0.3625   0.1875   0.025
0.3875   0.1875   0.025
0.4125   0.1875   0.025
0.4375   0.1875   0.025
0.4625   0.1875   0.025
0.4875   0.1875   0.025
0.5125   0.1875   0.025
0.5375   0.1875   0.025
0.5625   0.1875   0.025
0.5875   0.1875   0.025
0.6125   0.1875   0.025
0.6375   0.1875   0.025
0.6625   0.1875   0.025
0.6875   0.1875   0.025
0.7125   0.1875   0.025
0.7375   0.1875   0.025
0.7625   0.1875   0.025
0.7875   0.1875   0.025
0.8125   0.1875   0.025
0.8375   0.1875   0.025
0.8625   0.1875   0.025
0.8875   0.1875   0.025
0.9125   0.1875   0.025
0.9375   0.1875   0.025
0.9625   0.1875   0.025
0.9875   0.1875   0.025
0.0125   0.2125   0.025
0.0375   0.2125   0.025
0.0625   0.2125   0.025
0.0875   0.2125   0.025
0.1125   0.2125   0.025
0.1375   0.2125   0.025
0.1625   0.2125   0.025
0.1875   0.2125   0.025
0.2125   0.2125   0.025
0.2375   0.2125   0.025
0.2625   0.2125   0.025
0.2875   0.2125   0.025
0.3125   0.2125   0.025
0.3375   0.2125   0.025
0.3625   0.2125   0.025
0.3875   0.2125   0.025
0.4125   0.2125   0.025
0.4375   0.2125   0.025
0.4625   0.2125   0.025
0.4875   0.2125   0.025
0.5125   0.2125   0.025
0.5375   0.2125   0.025
0.5625   0.2125   0.025
0.5875   0.2125   0.025
0.6125   0.2125   0.025
0.6375   0.2125   0.025
0.6625   0.2125   0.025
0.6875   0.2125   0.025
0.7125   0.2125   0.025
0.7375   0.2125   0.025
0.7625   0.2125   0.025
0.7875   0.2125   0.025
0.8125   0.2125   0.025
0.8375   0.2125   0.025
0.8625   0.2125   0.025
0.8875   0.2125   0.025
0.9125   0.2125   0.025
0.9375   0.2125   0.025
0.9625   0.2125   0.025
0.9875   0.2125   0.025
0.0125   0.2375   0.025
0.0375   0.2375   0.025
0.0625   0.2375   0.025
0.0875   0.2375   0.025
0.1125   0.2375   0.025
0.1375   0.2375   0.025
0.1625   0.2375   0.025
0.1875   0.2375   0.025
0.2125   0.2375   0.025
0.2375   0.2375   0.025
0.2625   0.2375   0.025
0.2875   0.2375   0.025
0.3125   0.2375   0.025
0.3375   0.2375   0.025
0.3625   0.2375   0.025
0.3875   0.2375   0.025
0.4125   0.2375   0.025
0.4375   0.2375   0.025
0.4625   0.2375   0.025
0.4875   0.2375   0.025
0.5125   0.2375   0.025
0.5375   0.2375   0.025
0.5625   0.2375   0.025
0.5875   0.2375   0.025
0.6125   0.2375   0.025
0.6375   0.2375   0.025
0.6625   0.2375   0.025
0.6875   0.2375   0.025
0.7125   0.2375   0.025
0.7375   0.2375   0.025
0.7625   0.2375   0.025
0.7875   0.2375   0.025
0.8125   0.2375   0.025
0.8375   0.2375   0.025
0.8625   0.2375   0.025
0.8875   0.2375   0.025
0.9125   0.2375   0.025
0.9375   0.2375   0.025
0.9625   0.2375   0.025
0.9875   0.2375   0.025
0.0125   0.2625   0.025
0.0375   0.2625   0.025
0.0625   0.2625   0.025
0.0875   0.2625   0.025
0.1125   0.2625   0.025
0.1375   0.2625   0.025
0.1625   0.2625   0.025
0.1875   0.2625   0.025
0.2125   0.2625   0.025
0.2375   0.2625   0.025
0.2625   0.2625   0.025
[...]
POINT_DATA   32000
SCALARS Presion double
LOOKUP_TABLE   Presion

0 0 0 0 0 0 0 0 0 0 0 0 0 0 0 0 0 0 0 0 0 0 0 0 0 0 0 0 0 0 0 0 0 0 0 0 0 0 0 0 -5.06384e-06 -5.02122e-06 -4.94284e-06 -4.83243e-06 -4.69241e-06 -4.52461e-06 -4.33058e-06 -4.11169e-06 -3.86912e-06 -3.60387e-06 -3.31676e-06 -3.00848e-06 -2.6792e-06 -2.32898e-06 -1.95761e-06 -1.56473e-06 -1.14978e-06 -7.12108e-07 -2.51073e-07 2.3389e-07 7.43138e-07 1.27664e-06 1.83402e-06 2.41421e-06 3.01536e-06 3.63472e-06 4.26846e-06 4.91158e-06 5.55786e-06 6.19981e-06 6.82877e-06 7.43524e-06 8.00863e-06 8.53812e-06 9.01299e-06 9.42317e-06 9.75976e-06 1.00157e-05 1.01865e-05 1.02707e-05 -1.01204e-05 -1.00361e-05 -9.88e-06 -9.6595e-06 -9.37948e-06 -9.0437e-06 -8.65537e-06 -8.21732e-06 -7.732e-06 -7.20152e-06 -6.62752e-06 -6.01149e-06 -5.35376e-06 -4.65446e-06 -3.91322e-06 -3.12925e-06 -2.3014e-06 -1.42834e-06 -5.08697e-07 4.58725e-07 1.47473e-06 2.53938e-06 3.652e-06 4.81059e-06 6.01159e-06 7.24961e-06 8.51711e-06 9.80422e-06 1.10985e-05 1.23851e-05 1.36466e-05 1.48639e-05 1.60157e-05 1.70801e-05 1.80355e-05 1.88613e-05 1.95395e-05 2.00558e-05 2.04007e-05 2.05712e-05 -1.51807e-05 -1.50545e-05 -1.48205e-05 -1.44892e-05 -1.40682e-05 -1.35633e-05 -1.29794e-05 -1.23211e-05 -1.15922e-05 -1.07959e-05 -9.93505e-06 -9.01184e-06 -8.02687e-06 -6.98036e-06 -5.87173e-06 -4.69972e-06 -3.46251e-06 -2.15797e-06 -7.83872e-07 6.61797e-07 2.18048e-06 3.77252e-06 5.4372e-06 7.17184e-06 8.97142e-06 1.08282e-05 1.2731e-05 1.46655e-05 1.6613e-05 1.85513e-05 2.04541e-05 2.22927e-05 2.40344e-05 2.5646e-05 2.70941e-05 2.83473e-05 2.93775e-05 3.01624e-05 3.06873e-05 3.0947e-05 -2.02549e-05 -2.00864e-05 -1.97732e-05 -1.93296e-05 -1.87656e-05 -1.80892e-05 -1.73075e-05 -1.64267e-05 -1.54524e-05 -1.43893e-05 -1.32412e-05 -1.20114e-05 -1.07007e-05 -9.30954e-06 -7.83701e-06 -6.28132e-06 -4.63985e-06 -2.90948e-06 -1.0869e-06 8.30954e-07 2.84646e-06 4.96058e-06 7.17291e-06 9.48044e-06 1.18771e-05 1.43531e-05 1.68943e-05 1.94817e-05 2.20909e-05 2.46922e-05 2.72506e-05 2.97268e-05 3.20767e-05 3.42547e-05 3.62148e-05 3.79133e-05 3.93114e-05 4.03778e-05 4.10916e-05 4.14449e-05 -2.53534e-05 -2.51417e-05 -2.47475e-05 -2.41887e-05 -2.34783e-05 -2.26268e-05 -2.16436e-05 -2.0537e-05 -1.93145e-05 -1.79826e-05 -1.65465e-05 -1.50105e-05 -1.3376e-05 -1.16433e-05 -9.81143e-06 -7.87781e-06 -5.83884e-06 -3.69016e-06 -1.42711e-06 9.54807e-07 3.45928e-06 6.08831e-06 8.8423e-06 1.17184e-05 1.47101e-05 1.7806e-05 2.09895e-05 2.42373e-05 2.75198e-05 3.07996e-05 3.40327e-05 3.71692e-05 4.01525e-05 4.29234e-05 4.54221e-05 4.75911e-05 4.93792e-05 5.07447e-05 5.16595e-05 5.21125e-05 -3.04872e-05 -3.02306e-05 -2.97525e-05 -2.90746e-05 -2.8213e-05 -2.71812e-05 -2.5991e-05 -2.46536e-05 -2.31788e-05 -2.15751e-05 -1.98494e-05 -1.80074e-05 -1.60511e-05 -1.39809e-05 -1.17953e-05 -9.49101e-06 -7.06316e-06 -4.50581e-06 -1.81255e-06 1.02293e-06 4.00615e-06 7.1407e-06 1.04284e-05 1.38672e-05 1.74507e-05 2.11669e-05 2.49969e-05 2.89144e-05 3.28842e-05 3.68619e-05 4.07942e-05 4.462e-05 4.8269e-05 5.16672e-05 5.47391e-05 5.74116e-05 5.96186e-05 6.13065e-05 6.24384e-05 6.29992e-05 -3.56679e-05 -3.53643e-05 -3.47982e-05 -3.39957e-05 -3.29762e-05 -3.17566e-05 -3.0352e-05 -2.87767e-05 -2.70436e-05 -2.51637e-05 -2.3146e-05 -2.09978e-05 -1.87218e-05 -1.63187e-05 -1.37863e-05 -1.11204e-05 -8.31431e-06 -5.36031e-06 -2.24973e-06 1.0261e-06 4.47507e-06 8.10303e-06 1.19139e-05 1.59073e-05 2.00778e-05 2.44135e-05 2.88944e-05 3.34915e-05 3.8165e-05 4.28638e-05 4.75249e-05 5.20752e-05 5.643e-05 6.04986e-05 6.41874e-05 6.74049e-05 7.00679e-05 7.21079e-05 7.34774e-05 7.41563e-05 -4.09081e-05 -4.05547e-05 -3.98954e-05 -3.89607e-05 -3.77742e-05 -3.63568e-05 -3.47275e-05 -3.29047e-05 -3.09049e-05 -2.87424e-05 -2.6429e-05 -2.39738e-05 -2.13805e-05 -1.86498e-05 -1.5779e-05 -1.27623e-05 -9.59112e-06 -6.25523e-06 -2.74322e-06 9.5653e-07 4.85497e-06 8.96095e-06 1.32813e-05 1.78183e-05 2.25684e-05 2.75211e-05 3.26563e-05 3.79434e-05 4.33387e-05 4.87847e-05 5.42092e-05 5.95263e-05 6.46354e-05 6.94268e-05 7.37862e-05 7.76005e-05 8.07656e-05 8.31951e-05 8.48281e-05 8.56381e-05 -4.62225e-05 -4.58155e-05 -4.50558e-05 -4.39789e-05 -4.26134e-05 -4.09847e-05 -3.9117e-05 -3.70336e-05 -3.47557e-05 -3.23018e-05 -2.96872e-05 -2.69234e-05 -2.40151e-05 -2.09632e-05 -1.77639e-05 -1.44096e-05 -1.08892e-05 -7.18942e-06 -3.29537e-06 8.08178e-07 5.13594e-06 9.70059e-06 1.45128e-05 1.95785e-05 2.48976e-05 3.04619e-05 3.62528e-05 4.22395e-05 4.83756e-05 5.45981e-05 6.08254e-05 6.69587e-05 7.28795e-05 7.8457e-05 8.35525e-05 8.80269e-05 9.17512e-05 9.46166e-05 9.65456e-05 9.75029e-05 -5.16279e-05 -5.11625e-05 -5.0293e-05 -4.90609e-05 -4.75002e-05 -4.56424e-05 -4.3518e-05 -4.11564e-05 -3.85849e-05 -3.58277e-05 -3.29041e-05 -2.9829e-05 -2.66082e-05 -2.32425e-05 -1.97269e-05 -1.6051e-05 -1.22006e-05 -8.15852e-06 -3.90584e-06 5.77072e-07 5.30948e-06 1.03087e-05 1.55904e-05 2.11653e-05 2.7038e-05 3.32044e-05 3.96494e-05 4.63433e-05 5.32392e-05 6.02696e-05 6.73441e-05 7.43502e-05 8.11503e-05 8.75893e-05 9.34997e-05 9.87118e-05 0.000103065 0.000106424 0.000108689 0.000109814 -5.71447e-05 -5.66144e-05 -5.5623e-05 -5.42186e-05 -5.24419e-05 -5.03315e-05 -4.79259e-05 -4.52626e-05 -4.2377e-05 -3.93001e-05 -3.60571e-05 -3.26665e-05 -2.91358e-05 -2.54655e-05 -2.16482e-05 -1.76701e-05 -1.35128e-05 -9.15451e-06 -4.57124e-06 2.61694e-07 5.36888e-06 1.07732e-05 1.64962e-05 2.25547e-05 2.89597e-05 3.57132e-05 4.28057e-05 5.02113e-05 5.78845e-05 6.57552e-05 7.37257e-05 8.16693e-05 8.94276e-05 9.68174e-05 0.000103638 0.000109681 0.00011475 0.000118672 0.000121323 0.000122641 -6.27974e-05 -6.21941e-05 -6.10652e-05 -5.94664e-05 -5.74462e-05 -5.50526e-05 -5.23336e-05 -4.93376e-05 -4.61101e-05 -4.26917e-05 -3.9115e-05 -3.54033e-05 -3.1566e-05 -2.76022e-05 -2.35013e-05 -1.92449e-05 -1.48087e-05 -1.01652e-05 -5.2847e-06 -1.36591e-07 5.30964e-06 1.10832e-05 1.72124e-05 2.37217e-05 3.06302e-05 3.79484e-05 4.56748e-05 5.37909e-05 6.22557e-05 7.09994e-05 7.99185e-05 8.88727e-05 9.76807e-05 0.000106127 0.000113971 0.000120961 0.000126849 0.000131423 0.000134522 0.000136063 -6.86167e-05 -6.793e-05 -6.66437e-05 -6.4822e-05 -6.25231e-05 -5.98059e-05 -5.67313e-05 -5.3361e-05 -4.97547e-05 -4.59655e-05 -4.20362e-05 -3.79961e-05 -3.38564e-05 -2.96139e-05 -2.52525e-05 -2.0747e-05 -1.60658e-05 -1.11741e-05 -6.03549e-06 -6.13057e-07 5.13009e-06 1.12299e-05 1.77225e-05 2.46411e-05 3.20147e-05 3.98652e-05 4.82025e-05 5.70196e-05 6.62843e-05 7.59317e-05 8.58554e-05 9.59024e-05 0.000105866 0.000115495 0.0001245 0.000132573 0.000139411 0.000144743 0.000148365 0.00015017 -7.46409e-05 -7.38577e-05 -7.23887e-05 -7.0308e-05 -6.76849e-05 -6.45919e-05 -6.11058e-05 -5.73062e-05 -5.32714e-05 -4.90722e-05 -4.47651e-05 -4.03878e-05 -3.59524e-05 -3.14511e-05 -2.68592e-05 -2.21414e-05 -1.72562e-05 -1.21599e-05 -6.80869e-06 -1.15909e-06 4.83209e-06 1.12077e-05 1.80119e-05 2.52879e-05 3.30767e-05 4.14142e-05 5.03262e-05 5.98222e-05 6.98856e-05 8.04626e-05 9.1449e-05 0.000102681 0.000113925 0.000124886 0.000135217 0.000144542 0.000152486 0.000158709 0.000162949 0.000165065 -8.09182e-05 -8.00224e-05 -7.83392e-05 -7.59537e-05 -7.29485e-05 -6.9412e-05 -6.54411e-05 -6.11385e-05 -5.66082e-05 -5.19456e-05 -4.72276e-05 -4.25027e-05 -3.77832e-05 -3.30518e-05 -2.82697e-05 -2.33863e-05 -1.83468e-05 -1.3097e-05 -7.58513e-06 -1.76162e-06 4.42209e-06 1.1015e-05 1.80694e-05 2.56391e-05 3.37789e-05 4.25418e-05 5.19743e-05 6.21094e-05 7.2955e-05 8.44782e-05 9.65855e-05 0.000109106 0.000121776 0.000134249 0.000146106 0.000156889 0.000166132 0.000173408 0.000178384 0.00018087 -8.75093e-05 -8.64811e-05 -8.45449e-05 -8.1798e-05 -7.83374e-05 -7.42704e-05 -6.97182e-05 -6.48137e-05 -5.96958e-05 -5.44965e-05 -4.93233e-05 -4.4241e-05 -3.92583e-05 -3.43398e-05 -2.94228e-05 -2.4434e-05 -1.93007e-05 -1.39563e-05 -8.34144e-06 -2.40243e-06 3.91248e-06 1.06566e-05 1.78895e-05 2.56759e-05 3.40858e-05 4.3192e-05 5.30667e-05 6.3775e-05 7.53618e-05 8.7831e-05 0.000101115 0.000115042 0.000129314 0.000143518 0.000157146 0.000169637 0.000180415 0.000188945 0.000194799 0.00019773 -9.44907e-05 -9.33062e-05 -9.10704e-05 -8.78926e-05 -8.38856e-05 -7.91775e-05 -7.39176e-05 -6.82771e-05 -6.24432e-05 -5.66029e-05 -5.09142e-05 -4.54681e-05 -4.02615e-05 -3.52231e-05 -3.02494e-05 -2.52335e-05 -2.00792e-05 -1.47065e-05 -9.05064e-06 -3.05739e-06 3.32356e-06 1.01462e-05 1.74756e-05 2.53876e-05 3.39676e-05 4.33098e-05 5.35166e-05 6.46946e-05 7.69431e-05 9.03278e-05 0.000104834 0.000120306 0.000136399 0.000152607 0.000168308 0.000182814 0.000195414 0.00020544 0.000212349 0.000215816 -0.000101957 -0.000100589 -9.79982e-05 -9.43072e-05 -8.96432e-05 -8.41552e-05 -7.80234e-05 -7.14645e-05 -6.47309e-05 -5.80951e-05 -5.18041e-05 -4.60001e-05 -4.06451e-05 -3.55948e-05 -3.0677e-05 -2.57358e-05 -2.06468e-05 -1.53178e-05 -9.6831e-06 -3.69515e-06 2.68653e-06 9.50975e-06 1.6844e-05 2.47758e-05 3.34056e-05 4.28481e-05 5.32365e-05 6.4727e-05 7.74947e-05 9.17083e-05 0.000107461 0.000124649 0.000142849 0.000161414 0.000179564 0.000196457 0.000211226 0.000223043 0.000231221 0.000235334 -0.000110025 -0.000108442 -0.000105434 -0.000101134 -9.5683e-05 -8.92465e-05 -8.20331e-05 -7.43079e-05 -6.64058e-05 -5.87304e-05 -5.16996e-05 -4.55784e-05 -4.02242e-05 -3.53396e-05 -3.06393e-05 -2.59034e-05 -2.09788e-05 -1.57664e-05 -1.02082e-05 -4.27511e-06 2.04861e-06 8.79105e-06 1.60282e-05 2.38606e-05 3.24012e-05 4.17788e-05 5.21508e-05 6.37224e-05 7.67647e-05 9.16117e-05 0.00010858 0.00012772 0.000148436 0.000169826 0.000190897 0.000210627 0.000227974 0.000241932 0.000251635 0.000256529 -0.000118836 -0.000117003 -0.000113509 -0.000108496 -0.000102111 -9.45295e-05 -8.59768e-05 -7.67549e-05 -6.72841e-05 -5.81536e-05 -5.01226e-05 -4.38306e-05 -3.87803e-05 -3.43528e-05 -3.00965e-05 -2.57259e-05 -2.10718e-05 -1.60418e-05 -1.05974e-05 -4.74362e-06 1.48354e-06 8.05788e-06 1.50833e-05 2.26855e-05 3.09858e-05 4.01116e-05 5.02225e-05 6.15505e-05 7.44601e-05 8.95228e-05 0.000107518 0.000129015 0.000152889 0.000177752 0.00020233 0.000225422 0.00024582 0.000262324 0.000273855 0.000279688 -0.000128554 -0.000126436 -0.000122386 -0.00011655 -0.000109076 -0.000100137 -8.99507e-05 -7.88163e-05 -6.71899e-05 -5.58478e-05 -4.61815e-05 -4.02207e-05 -3.61002e-05 -3.25892e-05 -2.90699e-05 -2.52417e-05 -2.09586e-05 -1.6157e-05 -1.08302e-05 -5.0286e-06 1.11791e-06 7.40942e-06 1.40842e-05 2.13189e-05 2.92306e-05 3.79179e-05 4.74995e-05 5.81691e-05 7.03047e-05 8.47053e-05 0.000103022 0.000127808 0.000155954 0.000185188 0.000213971 0.000241005 0.000264972 0.000284475 0.000298184 0.000305146 -0.00013937 -0.000136932 -0.000132255 -0.000125489 -0.000116778 -0.000106277 -9.41645e-05 -8.06656e-05 -6.61096e-05 -5.11653e-05 -3.78386e-05 -3.40814e-05 -3.21305e-05 -3.01631e-05 -2.76904e-05 -2.45596e-05 -2.07197e-05 -1.61626e-05 -1.09117e-05 -5.04193e-06 1.2135e-06 6.97338e-06 1.31085e-05 1.98436e-05 2.72496e-05 3.53552e-05 4.41805e-05 5.37675e-05 6.42642e-05 7.62569e-05 9.22124e-05 0.00012321 0.000157622 0.000192361 0.000226076 0.000257626 0.000285686 0.000308678 0.000324963 0.000333277 -0.000151498 -0.000148704 -0.000143332 -0.000135538 -0.00012546 -0.000113232 -9.89783e-05 -8.27893e-05 -6.4636e-05 -4.40829e-05 -1.91477e-05 -2.53683e-05 -2.74222e-05 -2.74982e-05 -2.62359e-05 -2.3864e-05 -2.04858e-05 -1.61598e-05 -1.09198e-05 -4.75923e-06 2.47513e-06 6.82246e-06 1.21818e-05 1.83327e-05 2.51871e-05 3.26686e-05 4.06659e-05 4.89797e-05 5.71901e-05 6.42168e-05 6.66054e-05 0.000115272 0.00015877 0.000199945 0.000239104 0.000275622 0.000308257 0.000335249 0.000354561 0.000364493 -0.000165169 -0.000161985 -0.000155853 -0.000146941 -0.00013539 -0.000121326 -0.00010485 -8.60048e-05 -6.469e-05 -4.05073e-05 -1.25095e-05 -1.99665e-05 -2.38518e-05 -2.53456e-05 -2.50779e-05 -2.33738e-05 -2.0411e-05 -1.62939e-05 -1.1083e-05 -4.79703e-06 2.60312e-06 6.39007e-06 1.11833e-05 1.68252e-05 2.31891e-05 3.01375e-05 3.74789e-05 4.49013e-05 5.18486e-05 5.72742e-05 5.9265e-05 0.000112696 0.00016219 0.000209071 0.00025363 0.00029535 0.000332973 0.000364491 0.000387352 0.000399225 -0.000180629 -0.000177018 -0.000170061 -0.000159942 -0.000146821 -0.000130838 -0.000112111 -9.07128e-05 -6.66362e-05 -3.97672e-05 -9.94568e-06 -1.71807e-05 -2.17364e-05 -2.4035e-05 -2.44525e-05 -2.32532e-05 -2.06153e-05 -1.66605e-05 -1.14737e-05 -5.11516e-06 2.36489e-06 5.76024e-06 1.01341e-05 1.53813e-05 2.13765e-05 2.79652e-05 3.49379e-05 4.19906e-05 4.86698e-05 5.4326e-05 5.81981e-05 0.000114392 0.000168333 0.00022023 0.000270013 0.000317072 0.000360058 0.000396665 0.000423688 0.00043791 -0.000198134 -0.000194055 -0.000186197 -0.000174775 -0.000159976 -0.000141977 -0.000120939 -9.70016e-05 -7.02797e-05 -4.08814e-05 -8.99741e-06 -1.60052e-05 -2.08312e-05 -2.35793e-05 -2.44362e-05 -2.35813e-05 -2.11636e-05 -1.73024e-05 -1.20957e-05 -5.63025e-06 2.00282e-06 5.04809e-06 9.0956e-06 1.40602e-05 1.98262e-05 2.62465e-05 3.31321e-05 4.02377e-05 4.72531e-05 5.38294e-05 5.97003e-05 0.000118824 0.000176813 0.000233431 0.000288363 0.000340908 0.000389636 0.000431952 0.000463879 0.000480979 -0.000217949 -0.000213352 -0.000204501 -0.000191654 -0.000175042 -0.000154889 -0.000131416 -0.000104836 -7.53648e-05 -4.32467e-05 -8.80972e-06 -1.58118e-05 -2.08308e-05 -2.38658e-05 -2.50054e-05 -2.43675e-05 -2.20708e-05 -1.8225e-05 -1.2931e-05 -6.28616e-06 1.60461e-06 4.32727e-06 8.11973e-06 1.29025e-05 1.85701e-05 2.49929e-05 3.20152e-05 3.94556e-05 4.71166e-05 5.48183e-05 6.24737e-05 0.000125027 0.000187151 0.000248489 0.000308633 0.00036686 0.000421732 0.000470439 0.000508166 0.000528835 -0.000240348 -0.000235167 -0.000225206 -0.000210779 -0.000192175 -0.000169678 -0.000143575 -0.000114151 -8.16981e-05 -4.65356e-05 -9.04453e-06 -1.62504e-05 -2.14944e-05 -2.47572e-05 -2.60889e-05 -2.55754e-05 -2.33151e-05 -1.94079e-05 -1.39521e-05 -7.04589e-06 1.20649e-06 3.639e-06 7.23926e-06 1.19281e-05 1.7609e-05 2.41704e-05 3.14892e-05 3.94357e-05 4.78864e-05 5.67481e-05 6.59925e-05 0.000132446 0.000198955 0.000265171 0.000330689 0.00039484 0.00045627 0.000512099 0.000556696 0.000581847 -0.000265612 -0.000259761 -0.000248538 -0.000232328 -0.000211499 -0.000186411 -0.000157422 -0.000124884 -8.9145e-05 -5.05678e-05 -9.54913e-06 -1.7122e-05 -2.26482e-05 -2.61241e-05 -2.75962e-05 -2.71406e-05 -2.48475e-05 -2.08106e-05 -1.51235e-05 -7.87928e-06 8.25954e-07 3.00682e-06 6.47354e-06 1.11443e-05 1.69285e-05 2.373e-05 3.14516e-05 4.00013e-05 4.9302e-05 5.93051e-05 7.00022e-05 0.000140741 0.000211915 0.000283232 0.000354346 0.000424689 0.000493089 0.000556784 0.00060949 0.000640323 -0.000294032 -0.000287396 -0.000274706 -0.000256452 -0.000233101 -0.000205112 -0.000172926 -0.000136957 -9.75971e-05 -5.52287e-05 -1.02429e-05 -1.83023e-05 -2.41607e-05 -2.78475e-05 -2.94256e-05 -2.89782e-05 -2.65968e-05 -2.23738e-05 -1.63979e-05 -8.75429e-06 4.74604e-07 2.44798e-06 5.83743e-06 1.05552e-05 1.65132e-05 2.36262e-05 3.18165e-05 4.10185e-05 5.11852e-05 6.22944e-05 7.4349e-05 0.000149671 0.000225763 0.000302415 0.000379365 0.000456182 0.000531938 0.000604205 0.000666396 0.000704487 -0.000325908 -0.000318329 -0.000303897 -0.000283251 -0.000257005 -0.000225742 -0.00019 -0.000150257 -0.000106936 -6.042e-05 -1.10724e-05 -1.96973e-05 -2.59173e-05 -2.98075e-05 -3.14618e-05 -3.09818e-05 -2.84687e-05 -2.40172e-05 -1.77128e-05 -9.63045e-06 1.64771e-07 1.98181e-06 5.34968e-06 1.01708e-05 1.63561e-05 2.38275e-05 3.25213e-05 4.2391e-05 5.34114e-05 6.55804e-05 7.89146e-05 0.000159024 0.000240229 0.000322417 0.000405433 0.000488996 0.00057246 0.00065392 0.000727032 0.000774424 -0.000361547 -0.000352799 -0.000336246 -0.00031275 -0.000283135 -0.000248154 -0.000208459 -0.000164591 -0.000116993 -6.60237e-05 -1.19898e-05 -2.12165e-05 -2.77985e-05 -3.18701e-05 -3.35673e-05 -3.30188e-05 -3.03412e-05 -2.56355e-05 -1.89848e-05 -1.04535e-05 -8.60603e-08 1.63589e-06 5.03934e-06 1.00132e-05 1.64647e-05 2.43203e-05 3.35268e-05 4.40528e-05 5.58907e-05 6.90572e-05 8.35884e-05 0.000168588 0.000255013 0.000342871 0.000432134 0.000522686 0.000614164 0.000705307 0.000790708 0.000850007 -0.000401259 -0.000391007 -0.00037179 -0.000344825 -0.000311247 -0.00027203 -0.000227962 -0.000179642 -0.000127509 -7.18703e-05 -1.29377e-05 -2.27523e-05 -2.96614e-05 -3.38728e-05 -3.55732e-05 -3.49241e-05 -3.20613e-05 -2.70943e-05 -2.01062e-05 -1.11512e-05 -2.51965e-07 1.45027e-06 4.94936e-06 1.01189e-05 1.68618e-05 2.51081e-05 3.48135e-05 4.59595e-05 5.85539e-05 7.26324e-05 8.82551e-05 0.000178129 0.000269767 0.000363319 0.000458914 0.000556625 0.000656366 0.00075753 0.000856321 0.000930781 -0.000445339 -0.000433061 -0.000410381 -0.000379107 -0.000340824 -0.000296791 -0.000247938 -0.000194901 -0.000138084 -7.77047e-05 -1.3836e-05 -2.41623e-05 -3.13238e-05 -3.56138e-05 -3.72735e-05 -3.64985e-05 -3.34445e-05 -2.82315e-05 -2.09448e-05 -1.1632e-05 -2.96803e-07 1.47815e-06 5.13535e-06 1.05354e-05 1.758e-05 2.62041e-05 3.63724e-05 4.80778e-05 6.13418e-05 7.62172e-05 9.27899e-05 0.000187386 0.000284081 0.000383197 0.000485057 0.000589962 0.000698111 0.000809491 0.00092225 0.00101578 -0.000494033 -0.000478861 -0.000451518 -0.000414796 -0.000370919 -0.000321471 -0.000267492 -0.000209606 -0.000148131 -8.31538e-05 -1.4568e-05 -2.52554e-05 -3.25569e-05 -3.6852e-05 -3.84314e-05 -3.7519e-05 -3.42881e-05 -2.88694e-05 -2.13543e-05 -1.17914e-05 -1.75781e-07 1.78013e-06 5.65558e-06 1.13087e-05 1.86472e-05 2.76156e-05 3.81888e-05 5.03699e-05 6.41911e-05 7.97175e-05 9.7056e-05 0.000196062 0.000297482 0.000401834 0.000509672 0.000621583 0.000738078 0.000859748 0.000986227 0.00110328 -0.000547429 -0.000527836 -0.000493999 -0.000450357 -0.000399933 -0.000344576 -0.000285325 -0.000222694 -0.000156851 -8.77103e-05 -1.49709e-05 -2.57929e-05 -3.31004e-05 -3.73342e-05 -3.88132e-05 -3.77769e-05 -3.44091e-05 -2.88508e-05 -2.12047e-05 -1.15331e-05 1.55265e-07 2.40532e-06 6.54569e-06 1.24538e-05 2.00565e-05 2.93141e-05 4.02137e-05 5.27672e-05 6.7013e-05 8.30199e-05 0.000100902 0.00020383 0.000309436 0.000418457 0.000531702 0.000650105 0.000774509 0.000906391 0.00104526 0.00119033 -0.000605137 -0.000578268 -0.000535273 -0.000483071 -0.000425369 -0.000363989 -0.000299733 -0.000232854 -0.000163292 -9.07785e-05 -1.48511e-05 -2.55379e-05 -3.2736e-05 -3.68797e-05 -3.82779e-05 -3.71656e-05 -3.37289e-05 -2.81172e-05 -2.04507e-05 -1.08213e-05 7.14483e-07 3.34915e-06 7.76901e-06 1.39041e-05 2.17163e-05 3.11882e-05 4.23204e-05 5.51315e-05 6.96608e-05 8.59695e-05 0.000104159 0.000210324 0.000319355 0.000432215 0.000549961 0.000673927 0.000805222 0.000946858 0.00109572 0.00127206 -0.000665052 -0.000625601 -0.000570309 -0.000508566 -0.00044381 -0.000377182 -0.00030891 -0.000238841 -0.000166648 -9.19006e-05 -1.40882e-05 -2.44277e-05 -3.14826e-05 -3.55738e-05 -3.69574e-05 -3.58473e-05 -3.24245e-05 -2.68458e-05 -1.92519e-05 -9.77695e-06 1.43919e-06 4.4759e-06 9.1355e-06 1.54343e-05 2.33799e-05 3.29794e-05 4.42457e-05 5.72019e-05 7.18836e-05 8.83356e-05 0.000106624 0.000215136 0.000326611 0.000442215 0.000563214 0.00069132 0.000827815 0.000977682 0.00113392 0.00134037 -0.000717898 -0.000658661 -0.000590682 -0.000521417 -0.000452045 -0.000382411 -0.000312054 -0.000240445 -0.000167055 -9.13756e-05 -1.29728e-05 -2.29884e-05 -2.99833e-05 -3.41034e-05 -3.55438e-05 -3.44972e-05 -3.11406e-05 -2.5636e-05 -1.81404e-05 -8.82427e-06 2.08719e-06 5.40519e-06 1.02002e-05 1.65746e-05 2.4573e-05 3.42196e-05 4.55353e-05 5.85449e-05 7.32794e-05 8.9769e-05 0.000108038 0.000217803 0.000330554 0.000447587 0.000570305 0.000700606 0.000840086 0.000994427 0.00115697 0.00138213 0 0 0 0 0 0 0 0 0 0 0 0 0 0 0 0 0 0 0 0 0 0 0 0 0 0 0 0 0 0 0 0 0 0 0 0 0 0 0 0 -5.02847e-06 -4.99095e-06 -4.91819e-06 -4.8127e-06 -4.67673e-06 -4.51224e-06 -4.32096e-06 -4.10439e-06 -3.86384e-06 -3.60041e-06 -3.31496e-06 -3.00826e-06 -2.68049e-06 -2.33176e-06 -1.96189e-06 -1.57053e-06 -1.15713e-06 -7.21056e-07 -2.61664e-07 2.21619e-07 7.29168e-07 1.26098e-06 1.81671e-06 2.39537e-06 2.99518e-06 3.61348e-06 4.24657e-06 4.88957e-06 5.5364e-06 6.17971e-06 6.81096e-06 7.42075e-06 7.99855e-06 8.53353e-06 9.01492e-06 9.43246e-