# vtk DataFile Version 2.0
Presion
ASCII

DATASET STRUCTURED_GRID
DIMENSIONS   40   40   20

POINTS   32000   double
0.0125   0.0125   0.025
0.0375   0.0125   0.025
0.0625   0.0125   0.025
0.0875   0.0125   0.025
0.1125   0.0125   0.025
0.1375   0.0125   0.025
0.1625   0.0125   0.025
0.1875   0.0125   0.025
0.2125   0.0125   0.025
0.2375   0.0125   0.025
0.2625   0.0125   0.025
0.2875   0.0125   0.025
0.3125   0.0125   0.025
0.3375   0.0125   0.025
0.3625   0.0125   0.025
0.3875   0.0125   0.025
0.4125   0.0125   0.025
0.4375   0.0125   0.025
0.4625   0.0125   0.025
0.4875   0.0125   0.025
0.5125   0.0125   0.025
0.5375   0.0125   0.025
0.5625   0.0125   0.025
0.5875   0.0125   0.025
0.6125   0.0125   0.025
0.6375   0.0125   0.025
0.6625   0.0125   0.025
0.6875   0.0125   0.025
0.7125   0.0125   0.025
0.7375   0.0125   0.025
0.7625   0.0125   0.025
0.7875   0.0125   0.025
0.8125   0.0125   0.025
0.8375   0.0125   0.025
0.8625   0.0125   0.025
0.8875   0.0125   0.025
0.9125   0.0125   0.025
0.9375   0.0125   0.025
0.9625   0.0125   0.025
0.9875   0.0125   0.025
0.0125   0.0375   0.025
0.0375   0.0375   0.025
0.0625   0.0375   0.025
0.0875   0.0375   0.025
0.1125   0.0375   0.025
0.1375   0.0375   0.025
0.1625   0.0375   0.025
0.1875   0.0375   0.025
0.2125   0.0375   0.025
0.2375   0.0375   0.025
0.2625   0.0375   0.025
0.2875   0.0375   0.025
0.3125   0.0375   0.025
0.3375   0.0375   0.025
0.3625   0.0375   0.025
0.3875   0.0375   0.025
0.4125   0.0375   0.025
0.4375   0.0375   0.025
0.4625   0.0375   0.025
0.4875   0.0375   0.025
0.5125   0.0375   0.025
0.5375   0.0375   0.025
0.5625   0.0375   0.025
0.5875   0.0375   0.025
0.6125   0.0375   0.025
0.6375   0.0375   0.025
0.6625   0.0375   0.025
0.6875   0.0375   0.025
0.7125   0.0375   0.025
0.7375   0.0375   0.025
0.7625   0.0375   0.025
0.7875   0.0375   0.025
0.8125   0.0375   0.025
0.8375   0.0375   0.025
0.8625   0.0375   0.025
0.8875   0.0375   0.025
0.9125   0.0375   0.025
0.9375   0.0375   0.025
0.9625   0.0375   0.025
0.9875   0.0375   0.025
0.0125   0.0625   0.025
0.0375   0.0625   0.025
0.0625   0.0625   0.025
0.0875   0.0625   0.025
0.1125   0.0625   0.025
0.1375   0.0625   0.025
0.1625   0.0625   0.025
0.1875   0.0625   0.025
0.2125   0.0625   0.025
0.2375   0.0625   0.025
0.2625   0.0625   0.025
0.2875   0.0625   0.025
0.3125   0.0625   0.025
0.3375   0.0625   0.025
0.3625   0.0625   0.025
0.3875   0.0625   0.025
0.4125   0.0625   0.025
0.4375   0.0625   0.025
0.4625   0.0625   0.025
0.4875   0.0625   0.025
0.5125   0.0625   0.025
0.5375   0.0625   0.025
0.5625   0.0625   0.025
0.5875   0.0625   0.025
0.6125   0.0625   0.025
0.6375   0.0625   0.025
0.6625   0.0625   0.025
0.6875   0.0625   0.025
0.7125   0.0625   0.025
0.7375   0.0625   0.025
0.7625   0.0625   0.025
0.7875   0.0625   0.025
0.8125   0.0625   0.025
0.8375   0.0625   0.025
0.8625   0.0625   0.025
0.8875   0.0625   0.025
0.9125   0.0625   0.025
0.9375   0.0625   0.025
0.9625   0.0625   0.025
0.9875   0.0625   0.025
0.0125   0.0875   0.025
0.0375   0.0875   0.025
0.0625   0.0875   0.025
0.0875   0.0875   0.025
0.1125   0.0875   0.025
0.1375   0.0875   0.025
0.1625   0.0875   0.025
0.1875   0.0875   0.025
0.2125   0.0875   0.025
0.2375   0.0875   0.025
0.2625   0.0875   0.025
0.2875   0.0875   0.025
0.3125   0.0875   0.025
0.3375   0.0875   0.025
0.3625   0.0875   0.025
0.3875   0.0875   0.025
0.4125   0.0875   0.025
0.4375   0.0875   0.025
0.4625   0.0875   0.025
0.4875   0.0875   0.025
0.5125   0.0875   0.025
0.5375   0.0875   0.025
0.5625   0.0875   0.025
0.5875   0.0875   0.025
0.6125   0.0875   0.025
0.6375   0.0875   0.025
0.6625   0.0875   0.025
0.6875   0.0875   0.025
0.7125   0.0875   0.025
0.7375   0.0875   0.025
0.7625   0.0875   0.025
0.7875   0.0875   0.025
0.8125   0.0875   0.025
0.8375   0.0875   0.025
0.8625   0.0875   0.025
0.8875   0.0875   0.025
0.9125   0.0875   0.025
0.9375   0.0875   0.025
0.9625   0.0875   0.025
0.9875   0.0875   0.025
0.0125   0.1125   0.025
0.0375   0.1125   0.025
0.0625   0.1125   0.025
0.0875   0.1125   0.025
0.1125   0.1125   0.025
0.1375   0.1125   0.025
0.1625   0.1125   0.025
0.1875   0.1125   0.025
0.2125   0.1125   0.025
0.2375   0.1125   0.025
0.2625   0.1125   0.025
0.2875   0.1125   0.025
0.3125   0.1125   0.025
0.3375   0.1125   0.025
0.3625   0.1125   0.025
0.3875   0.1125   0.025
0.4125   0.1125   0.025
0.4375   0.1125   0.025
0.4625   0.1125   0.025
0.4875   0.1125   0.025
0.5125   0.1125   0.025
0.5375   0.1125   0.025
0.5625   0.1125   0.025
0.5875   0.1125   0.025
0.6125   0.1125   0.025
0.6375   0.1125   0.025
0.6625   0.1125   0.025
0.6875   0.1125   0.025
0.7125   0.1125   0.025
0.7375   0.1125   0.025
0.7625   0.1125   0.025
0.7875   0.1125   0.025
0.8125   0.1125   0.025
0.8375   0.1125   0.025
0.8625   0.1125   0.025
0.8875   0.1125   0.025
0.9125   0.1125   0.025
0.9375   0.1125   0.025
0.9625   0.1125   0.025
0.9875   0.1125   0.025
0.0125   0.1375   0.025
0.0375   0.1375   0.025
0.0625   0.1375   0.025
0.0875   0.1375   0.025
0.1125   0.1375   0.025
0.1375   0.1375   0.025
0.1625   0.1375   0.025
0.1875   0.1375   0.025
0.2125   0.1375   0.025
0.2375   0.1375   0.025
0.2625   0.1375   0.025
0.2875   0.1375   0.025
0.3125   0.1375   0.025
0.3375   0.1375   0.025
0.3625   0.1375   0.025
0.3875   0.1375   0.025
0.4125   0.1375   0.025
0.4375   0.1375   0.025
0.4625   0.1375   0.025
0.4875   0.1375   0.025
0.5125   0.1375   0.025
0.5375   0.1375   0.025
0.5625   0.1375   0.025
0.5875   0.1375   0.025
0.6125   0.1375   0.025
0.6375   0.1375   0.025
0.6625   0.1375   0.025
0.6875   0.1375   0.025
0.7125   0.1375   0.025
0.7375   0.1375   0.025
0.7625   0.1375   0.025
0.7875   0.1375   0.025
0.8125   0.1375   0.025
0.8375   0.1375   0.025
0.8625   0.1375   0.025
0.8875   0.1375   0.025
0.9125   0.1375   0.025
0.9375   0.1375   0.025
0.9625   0.1375   0.025
0.9875   0.1375   0.025
0.0125   0.1625   0.025
0.0375   0.1625   0.025
0.0625   0.1625   0.025
0.0875   0.1625   0.025
0.1125   0.1625   0.025
0.1375   0.1625   0.025
0.1625   0.1625   0.025
0.1875   0.1625   0.025
0.2125   0.1625   0.025
0.2375   0.1625   0.025
0.2625   0.1625   0.025
0.2875   0.1625   0.025
0.3125   0.1625   0.025
0.3375   0.1625   0.025
0.3625   0.1625   0.025
0.3875   0.1625   0.025
0.4125   0.1625   0.025
0.4375   0.1625   0.025
0.4625   0.1625   0.025
0.4875   0.1625   0.025
0.5125   0.1625   0.025
0.5375   0.1625   0.025
0.5625   0.1625   0.025
0.5875   0.1625   0.025
0.6125   0.1625   0.025
0.6375   0.1625   0.025
0.6625   0.1625   0.025
0.6875   0.1625   0.025
0.7125   0.1625   0.025
0.7375   0.1625   0.025
0.7625   0.1625   0.025
0.7875   0.1625   0.025
0.8125   0.1625   0.025
0.8375   0.1625   0.025
0.8625   0.1625   0.025
0.8875   0.1625   0.025
0.9125   0.1625   0.025
0.9375   0.1625   0.025
0.9625   0.1625   0.025
0.9875   0.1625   0.025
0.0125   0.1875   0.025
0.0375   0.1875   0.025
0.0625   0.1875   0.025
0.0875   0.1875   0.025
0.1125   0.1875   0.025
0.1375   0.1875   0.025
0.1625   0.1875   0.025
0.1875   0.1875   0.025
0.2125   0.1875   0.025
0.2375   0.1875   0.025
0.2625   0.1875   0.025
0.2875   0.1875   0.025
0.3125   0.1875   0.025
0.3375   0.1875   0.025
0.3625   0.1875   0.025
0.3875   0.1875   0.025
0.4125   0.1875   0.025
0.4375   0.1875   0.025
0.4625   0.1875   0.025
0.4875   0.1875   0.025
0.5125   0.1875   0.025
0.5375   0.1875   0.025
0.5625   0.1875   0.025
0.5875   0.1875   0.025
0.6125   0.1875   0.025
0.6375   0.1875   0.025
0.6625   0.1875   0.025
0.6875   0.1875   0.025
0.7125   0.1875   0.025
0.7375   0.1875   0.025
0.7625   0.1875   0.025
0.7875   0.1875   0.025
0.8125   0.1875   0.025
0.8375   0.1875   0.025
0.8625   0.1875   0.025
0.8875   0.1875   0.025
0.9125   0.1875   0.025
0.9375   0.1875   0.025
0.9625   0.1875   0.025
0.9875   0.1875   0.025
0.0125   0.2125   0.025
0.0375   0.2125   0.025
0.0625   0.2125   0.025
0.0875   0.2125   0.025
0.1125   0.2125   0.025
0.1375   0.2125   0.025
0.1625   0.2125   0.025
0.1875   0.2125   0.025
0.2125   0.2125   0.025
0.2375   0.2125   0.025
0.2625   0.2125   0.025
0.2875   0.2125   0.025
0.3125   0.2125   0.025
0.3375   0.2125   0.025
0.3625   0.2125   0.025
0.3875   0.2125   0.025
0.4125   0.2125   0.025
0.4375   0.2125   0.025
0.4625   0.2125   0.025
0.4875   0.2125   0.025
0.5125   0.2125   0.025
0.5375   0.2125   0.025
0.5625   0.2125   0.025
0.5875   0.2125   0.025
0.6125   0.2125   0.025
0.6375   0.2125   0.025
0.6625   0.2125   0.025
0.6875   0.2125   0.025
0.7125   0.2125   0.025
0.7375   0.2125   0.025
0.7625   0.2125   0.025
0.7875   0.2125   0.025
0.8125   0.2125   0.025
0.8375   0.2125   0.025
0.8625   0.2125   0.025
0.8875   0.2125   0.025
0.9125   0.2125   0.025
0.9375   0.2125   0.025
0.9625   0.2125   0.025
0.9875   0.2125   0.025
0.0125   0.2375   0.025
0.0375   0.2375   0.025
0.0625   0.2375   0.025
0.0875   0.2375   0.025
0.1125   0.2375   0.025
0.1375   0.2375   0.025
0.1625   0.2375   0.025
0.1875   0.2375   0.025
0.2125   0.2375   0.025
0.2375   0.2375   0.025
0.2625   0.2375   0.025
0.2875   0.2375   0.025
0.3125   0.2375   0.025
0.3375   0.2375   0.025
0.3625   0.2375   0.025
0.3875   0.2375   0.025
0.4125   0.2375   0.025
0.4375   0.2375   0.025
0.4625   0.2375   0.025
0.4875   0.2375   0.025
0.5125   0.2375   0.025
0.5375   0.2375   0.025
0.5625   0.2375   0.025
0.5875   0.2375   0.025
0.6125   0.2375   0.025
0.6375   0.2375   0.025
0.6625   0.2375   0.025
0.6875   0.2375   0.025
0.7125   0.2375   0.025
0.7375   0.2375   0.025
0.7625   0.2375   0.025
0.7875   0.2375   0.025
0.8125   0.2375   0.025
0.8375   0.2375   0.025
0.8625   0.2375   0.025
0.8875   0.2375   0.025
0.9125   0.2375   0.025
0.9375   0.2375   0.025
0.9625   0.2375   0.025
0.9875   0.2375   0.025
0.0125   0.2625   0.025
0.0375   0.2625   0.025
0.0625   0.2625   0.025
0.0875   0.2625   0.025
0.1125   0.2625   0.025
0.1375   0.2625   0.025
0.1625   0.2625   0.025
0.1875   0.2625   0.025
0.2125   0.2625   0.025
0.2375   0.2625   0.025
0.2625   0.2625   0.025
[...]
POINT_DATA   32000
SCALARS Presion double
LOOKUP_TABLE   Presion

0 0 0 0 0 0 0 0 0 0 0 0 0 0 0 0 0 0 0 0 0 0 0 0 0 0 0 0 0 0 0 0 0 0 0 0 0 0 0 0 -0.00211654 -0.00249451 -0.00312936 -0.00384875 -0.00457599 -0.00526255 -0.00587316 -0.00638179 -0.00676969 -0.00702396 -0.00713633 -0.0071024 -0.00692074 -0.00659275 -0.00612252 -0.0055169 -0.00478566 -0.00394163 -0.00300075 -0.00198207 -0.000907423 0.000198721 0.00131021 0.0023997 0.00343959 0.00440297 0.00526456 0.00600171 0.00659531 0.00703065 0.0072982 0.00739416 0.00732097 0.00708743 0.00670842 0.00620422 0.00559961 0.00492555 0.00423701 0.00372136 -0.00233371 -0.00254177 -0.00302932 -0.00365069 -0.00431547 -0.00496435 -0.00555626 -0.00606205 -0.00646109 -0.00673905 -0.00688636 -0.00689744 -0.00676961 -0.00650298 -0.00610022 -0.00556664 -0.00491024 -0.00414188 -0.0032753 -0.00232717 -0.00131679 -0.000266228 0.000800768 0.00185893 0.00288233 0.00384516 0.00472266 0.005492 0.0061333 0.00663049 0.00697224 0.00715272 0.00717239 0.00703855 0.00676592 0.00637744 0.00590646 0.00540345 0.00495652 0.00474957 -0.00206226 -0.00232933 -0.00280492 -0.00339935 -0.00404041 -0.0046744 -0.00526219 -0.00577551 -0.00619402 -0.0065033 -0.00669326 -0.00675749 -0.00669209 -0.00649564 -0.00616901 -0.00571539 -0.00514046 -0.00445249 -0.00366252 -0.00278444 -0.00183481 -0.000833244 0.000198673 0.00123732 0.00225777 0.00323453 0.0041424 0.00495747 0.00565808 0.00622599 0.00664745 0.00691407 0.00702404 0.00698285 0.00680425 0.00651147 0.00613957 0.00574052 0.00539432 0.00522817 -0.00152175 -0.00192829 -0.00247125 -0.00309649 -0.00375284 -0.00439827 -0.00500034 -0.00553474 -0.00598348 -0.00633331 -0.00657435 -0.0066998 -0.00670463 -0.00658581 -0.00634215 -0.00597441 -0.00548551 -0.00488077 -0.00416821 -0.0033587 -0.00246595 -0.00150716 -0.000501941 0.000527389 0.00155644 0.00255944 0.00351007 0.00438255 0.00515276 0.0057995 0.00630588 0.00666031 0.00685801 0.00690185 0.00680341 0.00658401 0.00627633 0.00592709 0.00560147 0.00538675 -0.000852269 -0.00142115 -0.00207055 -0.00276426 -0.00346679 -0.00414772 -0.00478267 -0.00535283 -0.00584375 -0.00624424 -0.0065453 -0.00674002 -0.00682244 -0.0067879 -0.00663305 -0.00635602 -0.00595677 -0.00543746 -0.00480285 -0.00406066 -0.00322169 -0.00230072 -0.00131548 -0.000287176 0.000760051 0.00179976 0.00280406 0.00374475 0.00459457 0.00532868 0.00592625 0.00637169 0.00665639 0.0067797 0.00674996 0.00658537 0.00631485 0.00597918 0.00563206 0.00533911 -0.000148987 -0.000880892 -0.00165236 -0.00243556 -0.00320534 -0.00394069 -0.00462482 -0.0052446 -0.00578956 -0.00625099 -0.00662107 -0.00689305 -0.00706017 -0.00711623 -0.00705567 -0.00687394 -0.00656794 -0.00613652 -0.00558108 -0.00490608 -0.00411928 -0.003233 -0.00226302 -0.00122948 -0.000156342 0.000929094 0.00199708 0.00301656 0.00395657 0.00478794 0.00548507 0.00602742 0.00640161 0.00660252 0.00663444 0.00651186 0.00625993 0.00591482 0.00552345 0.00514156 0.000518111 -0.000368968 -0.00126543 -0.00214752 -0.00299695 -0.00379987 -0.00454596 -0.00522722 -0.00583698 -0.00636903 -0.00681682 -0.00717387 -0.00743272 -0.00758568 -0.00762506 -0.0075436 -0.0073351 -0.00699506 -0.00652142 -0.0059152 -0.005181 -0.00432844 -0.00337123 -0.00232824 -0.00122319 -8.41847e-05 0.00105701 0.00216617 0.00320817 0.00414873 0.00495661 0.0056053 0.00607555 0.00635677 0.00644842 0.00636092 0.00611608 0.00574705 0.00529776 0.00482112 0.00109376 6.26039e-05 -0.000954986 -0.00193784 -0.0028726 -0.00375104 -0.00456806 -0.00532006 -0.00600369 -0.00661498 -0.00714856 -0.00759821 -0.00795579 -0.00821222 -0.0083577 -0.00838234 -0.00827682 -0.00803324 -0.00764592 -0.0071123 -0.00643353 -0.00561625 -0.00467172 -0.00361722 -0.0024759 -0.00127654 -5.28661e-05 0.00115756 0.00231492 0.00337916 0.00431241 0.00508097 0.00565853 0.00602783 0.00618259 0.00612878 0.00588509 0.00548303 0.00496624 0.00438895 0.00153184 0.000368957 -0.000762244 -0.00184294 -0.00286391 -0.00382152 -0.00471497 -0.0055443 -0.00630893 -0.00700677 -0.00763342 -0.00818283 -0.00864621 -0.0090131 -0.00927168 -0.00940946 -0.00941402 -0.00927395 -0.00897981 -0.0085252 -0.00790746 -0.00712977 -0.00620046 -0.00513469 -0.00395455 -0.0026891 -0.00137386 -4.98183e-05 0.00123816 0.00244348 0.00352054 0.00442716 0.00512844 0.00559904 0.00582579 0.00580946 0.00556567 0.00512511 0.00453289 0.00384723 0.00179233 0.000510652 -0.000724579 -0.0018972 -0.00300186 -0.00403897 -0.00501142 -0.00592223 -0.0067731 -0.00756343 -0.00828958 -0.00894553 -0.00952186 -0.0100068 -0.0103864 -0.0106459 -0.0107695 -0.0107422 -0.0105508 -0.0101845 -0.00963643 -0.00890575 -0.00799713 -0.0069229 -0.00570342 -0.00436744 -0.0029519 -0.00150112 -6.53475e-05 0.00130154 0.00254505 0.003613 0.00446011 0.0050512 0.0053646 0.00539482 0.00515395 0.00467221 0.0039973 0.00319312 0.00183973 0.00045257 -0.000875858 -0.00213255 -0.00331605 -0.00443057 -0.00548221 -0.00647655 -0.00741716 -0.00830461 -0.00913582 -0.00990475 -0.0106013 -0.0112123 -0.0117222 -0.0121133 -0.012367 -0.0124644 -0.0123879 -0.0121224 -0.011656 -0.0109831 -0.0101039 -0.00902706 -0.0077702 -0.00636096 -0.0048371 -0.00324604 -0.00164353 -9.14485e-05 0.00134561 0.00260365 0.003625 0.00436232 0.00478342 0.00487487 0.00464432 0.00412134 0.00335682 0.00242142 0.00164217 0.000163286 -0.00124667 -0.00257831 -0.00383422 -0.00502223 -0.00615141 -0.00722959 -0.00826189 -0.00924987 -0.0101909 -0.0110788 -0.0119029 -0.0126487 -0.0132989 -0.0138333 -0.01423 -0.0144663 -0.0145201 -0.014371 -0.0140018 -0.0134011 -0.0125639 -0.0114937 -0.0102044 -0.00872158 -0.00708279 -0.00533802 -0.00354852 -0.00178469 -0.000122535 0.00136026 0.00259109 0.00350774 0.00406476 0.00423847 0.00403049 0.00346908 0.00260843 0.00152664 0.00117121 -0.000385192 -0.0018644 -0.00326103 -0.00458177 -0.00583802 -0.00704162 -0.00820244 -0.009327 -0.0104177 -0.0114724 -0.0124848 -0.0134436 -0.0143333 -0.0151348 -0.0158254 -0.0163799 -0.0167717 -0.0169737 -0.0169599 -0.0167069 -0.0161969 -0.0154181 -0.0143679 -0.0130551 -0.0115014 -0.00974342 -0.0078326 -0.00583531 -0.00383088 -0.00190785 -0.00015968 0.00132325 0.00246049 0.00318978 0.0034741 0.00330667 0.00271309 0.00175056 0.000504961 0.000401835 -0.00121742 -0.00275316 -0.00420424 -0.00558145 -0.00689961 -0.00817323 -0.00941411 -0.0106301 -0.0118246 -0.0129956 -0.0141372 -0.0152375 -0.0162801 -0.0172442 -0.0181048 -0.0188334 -0.0193991 -0.0197697 -0.0199131 -0.019799 -0.0194019 -0.0187022 -0.0176898 -0.0163667 -0.0147494 -0.0128714 -0.0107845 -0.00855937 -0.00628422 -0.00406105 -0.00200117 -0.000215889 0.00119205 0.0021392 0.00257098 0.00246887 0.00185376 0.00078499 -0.000643725 -0.00068726 -0.00235433 -0.00393363 -0.00542824 -0.00685289 -0.0082257 -0.00956369 -0.0108806 -0.0121857 -0.0134832 -0.0147721 -0.0160463 -0.0172939 -0.0184979 -0.0196358 -0.0206803 -0.0215998 -0.0223591 -0.0229205 -0.0232453 -0.0232954 -0.0230372 -0.0224417 -0.0214898 -0.0201748 -0.0185061 -0.016512 -0.014243 -0.0117726 -0.00919704 -0.00663239 -0.00420964 -0.00206439 -0.000326322 0.000894469 0.0015204 0.00151659 0.000896101 -0.000281029 -0.00191361 -0.00211324 -0.00381298 -0.00542283 -0.00694983 -0.00841232 -0.00983146 -0.0112268 -0.0126139 -0.0140037 -0.0154017 -0.0168077 -0.0182163 -0.0196155 -0.0209878 -0.0223095 -0.0235513 -0.0246783 -0.025651 -0.026426 -0.0269576 -0.0271997 -0.027109 -0.0266466 -0.0257825 -0.0244995 -0.0227975 -0.0206977 -0.0182464 -0.0155178 -0.0126148 -0.0096674 -0.0068275 -0.00425828 -0.00212147 -0.000560338 0.000317556 0.000454761 -0.000148002 -0.00143234 -0.00329035 -0.00388872 -0.00560625 -0.00723391 -0.00878206 -0.0102722 -0.0117281 -0.0131718 -0.0146212 -0.0160889 -0.017582 -0.0191017 -0.0206434 -0.0221958 -0.023741 -0.0252545 -0.026705 -0.0280545 -0.0292591 -0.0302698 -0.0310338 -0.031496 -0.0316034 -0.0313055 -0.0305604 -0.0293385 -0.0276281 -0.02544 -0.0228136 -0.0198209 -0.0165693 -0.0132009 -0.00988911 -0.0068275 -0.00421513 -0.0022359 -0.00103602 -0.000703779 -0.00125713 -0.00264291 -0.00474795 -0.00602133 -0.00774265 -0.00937602 -0.0109341 -0.0124408 -0.0139224 -0.0154033 -0.0169038 -0.018439 -0.0200182 -0.0216444 -0.0233146 -0.025018 -0.0267372 -0.0284469 -0.0301141 -0.031698 -0.0331503 -0.0344165 -0.0354363 -0.0361458 -0.0364814 -0.0363805 -0.0357882 -0.0346608 -0.0329724 -0.0307211 -0.0279359 -0.0246828 -0.0210698 -0.0172489 -0.0134138 -0.00979021 -0.00661934 -0.00413394 -0.00252925 -0.00193515 -0.00239703 -0.00387239 -0.0062451 -0.00851349 -0.0102262 -0.0118544 -0.0134115 -0.0149227 -0.0164165 -0.01792 -0.0194566 -0.0210445 -0.022696 -0.0244167 -0.0262054 -0.028053 -0.0299424 -0.031848 -0.0337353 -0.0355608 -0.0372721 -0.038809 -0.0401041 -0.0410846 -0.0416759 -0.0418033 -0.0413976 -0.0404 -0.0387687 -0.0364863 -0.0335677 -0.0300687 -0.0260934 -0.0217991 -0.0173972 -0.0131451 -0.0093302 -0.00624221 -0.00413733 -0.00320054 -0.00351667 -0.00506185 -0.00772076 -0.0113623 -0.0130568 -0.0146705 -0.0162158 -0.0177181 -0.0192077 -0.020715 -0.0222673 -0.0238873 -0.0255913 -0.0273882 -0.0292797 -0.0312585 -0.0333084 -0.0354037 -0.0375084 -0.0395766 -0.041552 -0.0433687 -0.0449524 -0.0462214 -0.0470907 -0.047473 -0.0472849 -0.0464517 -0.0449143 -0.0426375 -0.039619 -0.0358998 -0.0315747 -0.0268002 -0.0218005 -0.016862 -0.0123198 -0.00852786 -0.00581621 -0.0044413 -0.00454342 -0.00612885 -0.00908894 -0.01456 -0.0162304 -0.0178231 -0.0193463 -0.0208241 -0.0222888 -0.0237752 -0.0253164 -0.0269406 -0.0286698 -0.0305176 -0.032489 -0.0345791 -0.036773 -0.0390448 -0.0413573 -0.0436621 -0.0458988 -0.0479965 -0.0498739 -0.0514409 -0.0526021 -0.0532583 -0.0533121 -0.0526729 -0.0512638 -0.0490302 -0.0459501 -0.0420458 -0.0373965 -0.0321515 -0.0265397 -0.0208711 -0.0155265 -0.0109292 -0.00749576 -0.005573 -0.0053773 -0.00696149 -0.0102326 -0.0180944 -0.0197407 -0.021309 -0.0227998 -0.0242346 -0.0256484 -0.0270819 -0.0285764 -0.0301684 -0.0318871 -0.033752 -0.0357727 -0.0379469 -0.040261 -0.0426889 -0.0451921 -0.0477193 -0.0502065 -0.0525773 -0.0547437 -0.0566077 -0.0580641 -0.0590023 -0.0593118 -0.0588866 -0.0576325 -0.0554753 -0.0523717 -0.0483218 -0.0433847 -0.0376941 -0.0314749 -0.0250511 -0.0188438 -0.0133459 -0.00907146 -0.00647814 -0.00588412 -0.00741149 -0.0109967 -0.0219504 -0.02358 -0.0251248 -0.026573 -0.0279421 -0.0292712 -0.0306104 -0.0320126 -0.0335257 -0.0351885 -0.0370283 -0.0390596 -0.0412832 -0.0436866 -0.0462432 -0.0489128 -0.0516409 -0.0543591 -0.0569856 -0.059426 -0.0615745 -0.0633168 -0.0645318 -0.0650966 -0.0648914 -0.0638057 -0.0617467 -0.0586497 -0.0544914 -0.0493065 -0.0432066 -0.0364022 -0.0292195 -0.0221086 -0.0156278 -0.0103944 -0.00699753 -0.00588739 -0.00728598 -0.0111794 -0.026112 -0.0277425 -0.02927 -0.0306642 -0.0319384 -0.033139 -0.0343306 -0.0355826 -0.0369586 -0.0385102 -0.0402738 -0.0422696 -0.0445015 -0.0469573 -0.0496095 -0.052415 -0.0553154 -0.0582376 -0.0610939 -0.0637832 -0.066192 -0.0681973 -0.0696685 -0.0704715 -0.0704742 -0.0695515 -0.067594 -0.0645174 -0.0602755 -0.0548769 -0.0484062 -0.0410504 -0.033124 -0.0250909 -0.0175629 -0.0112604 -0.00692019 -0.00515876 -0.00633787 -0.010523 -0.0305651 -0.0322278 -0.0337498 -0.0350761 -0.0362167 -0.0372314 -0.038207 -0.0392368 -0.0404054 -0.0417803 -0.0434087 -0.0453169 -0.0475109 -0.0499783 -0.0526889 -0.0555956 -0.0586352 -0.0617284 -0.0647812 -0.0676851 -0.0703191 -0.0725517 -0.0742428 -0.0752488 -0.0754263 -0.0746381 -0.0727606 -0.0696929 -0.0653685 -0.0597715 -0.0529578 -0.0450839 -0.03644 -0.0274856 -0.0188669 -0.0113975 -0.00597176 -0.00340683 -0.00425434 -0.00870174 -0.0353031 -0.0370465 -0.0385808 -0.0398193 -0.0407731 -0.0415261 -0.0421991 -0.0429185 -0.0437966 -0.0449203 -0.0463486 -0.0481133 -0.0502213 -0.052658 -0.0553886 -0.0583604 -0.0615033 -0.0647311 -0.067942 -0.0710196 -0.0738345 -0.0762466 -0.0781069 -0.0792624 -0.0795599 -0.0788517 -0.077003 -0.0738997 -0.0694596 -0.0636465 -0.0564899 -0.0481137 -0.0387746 -0.0289088 -0.0191733 -0.010454 -0.0038013 -0.000263739 -0.00064266 -0.00530787 -0.040334 -0.0422295 -0.0437982 -0.0449169 -0.045609 -0.0459998 -0.0462607 -0.0465643 -0.0470569 -0.047848 -0.0490083 -0.0505733 -0.0525486 -0.0549142 -0.0576285 -0.0606306 -0.0638417 -0.0671666 -0.0704946 -0.0737003 -0.0766452 -0.0791797 -0.0811457 -0.0823808 -0.0827223 -0.0820135 -0.0801102 -0.0768889 -0.0722568 -0.0661634 -0.0586185 -0.049717 -0.0396784 -0.0289017 -0.0180284 -0.00798657 3.34623e-05 0.00473117 0.00498792 0.000167425 -0.0456936 -0.047841 -0.0494663 -0.0504107 -0.0507327 -0.0506275 -0.0503405 -0.0501043 -0.0501068 -0.0504806 -0.0513064 -0.0526199 -0.0544209 -0.056681 -0.0593479 -0.0623498 -0.0655969 -0.0689832 -0.0723873 -0.0756735 -0.0786931 -0.0812862 -0.0832845 -0.0845155 -0.0848069 -0.0839927 -0.0819205 -0.0784598 -0.0735112 -0.0670173 -0.0589768 -0.0494648 -0.0386684 -0.0269431 -0.0148923 -0.00345106 0.00608278 0.0121521 0.0132506 0.00836018 -0.0514669 -0.0540012 -0.0556945 -0.0563691 -0.0561624 -0.0553833 -0.0543812 -0.0534642 -0.0528658 -0.0527397 -0.0531713 -0.0541902 -0.0557855 -0.0579147 -0.0605113 -0.0634893 -0.0667454 -0.0701608 -0.0736018 -0.076921 -0.0799581 -0.0825417 -0.0844922 -0.0856256 -0.0857586 -0.0847149 -0.0823331 -0.0784757 -0.0730393 -0.0659645 -0.0572482 -0.0469582 -0.0352613 -0.0224742 -0.00915028 0.00380269 0.0150231 0.022714 0.0249164 0.0200733 -0.057827 -0.0609218 -0.0626605 -0.0628975 -0.0619283 -0.0602397 -0.0583206 -0.0565676 -0.0552575 -0.0545577 -0.054548 -0.0552437 -0.056615 -0.0585999 -0.0611133 -0.0640516 -0.0672958 -0.0707122 -0.0741536 -0.0774593 -0.0804566 -0.082961 -0.0847802 -0.0857171 -0.0855753 -0.0841656 -0.0813151 -0.076877 -0.0707423 -0.062851 -0.0532037 -0.0418724 -0.0290202 -0.0149405 -0.000139103 0.0145259 0.0276755 0.0373107 0.0409672 0.0363413 -0.0651038 -0.0689667 -0.0706456 -0.0701514 -0.0680749 -0.0651677 -0.0620941 -0.0593409 -0.0572167 -0.0558852 -0.055406 -0.0557675 -0.0569122 -0.0587524 -0.0611797 -0.0640702 -0.067287 -0.0706803 -0.0740881 -0.0773357 -0.0802367 -0.0825929 -0.0841975 -0.0848388 -0.0843047 -0.0823899 -0.0789055 -0.0736904 -0.0666241 -0.0576409 -0.0467432 -0.0340118 -0.0196197 -0.00385724 0.0127997 0.029546 0.04502 0.0570661 0.0626819 0.0585422 -0.0739136 -0.0787525 -0.0800844 -0.0783509 -0.0746609 -0.0701358 -0.0656356 -0.0617187 -0.0586948 -0.056697 -0.055743 -0.0557793 -0.0567107 -0.0584175 -0.0607643 -0.0636047 -0.0667825 -0.0701311 -0.0734732 -0.0766198 -0.0793706 -0.0815126 -0.0828242 -0.0830772 -0.0820414 -0.0794921 -0.0752192 -0.0690391 -0.0608101 -0.0504481 -0.0379444 -0.023379 -0.00693426 0.0110892 0.0302239 0.0497022 0.0681889 0.0834028 0.0917745 0.0886011 -0.0854076 -0.0913173 -0.0916292 -0.0877866 -0.0817492 -0.0751015 -0.0688747 -0.0636415 -0.0596591 -0.056989 -0.05558 -0.0553195 -0.056065 -0.057659 -0.0599367 -0.062728 -0.065857 -0.0691407 -0.072387 -0.0753929 -0.0779443 -0.0798142 -0.0807656 -0.080553 -0.0789269 -0.0756399 -0.070455 -0.0631582 -0.0535722 -0.0415754 -0.027122 -0.0102617 0.00884073 0.0298898 0.0524239 0.0757002 0.0984022 0.118112 0.13062 0.129368 -0.101776 -0.108394 -0.106209 -0.0987908 -0.0893629 -0.0799729 -0.0717048 -0.0650293 -0.0600667 -0.0567528 -0.0549355 -0.0544259 -0.055025 -0.0565343 -0.0587584 -0.0615038 -0.0645764 -0.067778 -0.0709028 -0.0737356 -0.0760497 -0.077605 -0.0781503 -0.0774236 -0.0751556 -0.0710743 -0.0649123 -0.0564165 -0.0453601 -0.03156 -0.0148966 0.00466217 0.0270338 0.0519958 0.0791506 0.107825 0.136756 0.163365 0.1826 0.185325 -0.12732 -0.132812 -0.125 -0.111593 -0.0973403 -0.0844847 -0.0738787 -0.0656926 -0.0597885 -0.055909 -0.0537666 -0.0530801 -0.0535887 -0.0550519 -0.0572455 -0.0599552 -0.0629713 -0.0660829 -0.0690736 -0.071718 -0.0737793 -0.0750069 -0.0751374 -0.0738945 -0.0709907 -0.0661304 -0.0590141 -0.0493448 -0.0368351 -0.0212178 -0.00225985 0.0202198 0.046323 0.0760405 0.109209 0.145418 0.183688 0.221466 0.252546 0.263873 -0.170904 -0.168902 -0.149046 -0.125837 -0.104909 -0.087859 -0.0747522 -0.0651402 -0.0584622 -0.0541912 -0.0518737 -0.0511287 -0.0516352 -0.0531157 -0.0553229 -0.0580274 -0.0610086 -0.0640474 -0.0669204 -0.0693957 -0.0712301 -0.0721659 -0.0719313 -0.0702392 -0.0667879 -0.0612616 -0.0533319 -0.0426585 -0.02889 -0.0116634 0.00939754 0.0346839 0.0645993 0.0995506 0.139924 0.186026 0.237845 0.293834 0.346994 0.377693 -0.251798 -0.222118 -0.177687 -0.139106 -0.109592 -0.0880936 -0.0728447 -0.0623039 -0.055308 -0.0510117 -0.0487974 -0.0482005 -0.0488579 -0.0504715 -0.0527832 -0.055558 -0.0585723 -0.0616049 -0.0644306 -0.066816 -0.0685159 -0.0692699 -0.0688024 -0.066821 -0.0630152 -0.0570558 -0.0485928 -0.0372517 -0.0226261 -0.00426444 0.0183518 0.0458443 0.0789911 0.118803 0.166619 0.224231 0.29398 0.378105 0.472917 0.549408 -0.412765 -0.294182 -0.202446 -0.142808 -0.105156 -0.081103 -0.0655055 -0.0554001 -0.0490545 -0.0454086 -0.0437734 -0.0436688 -0.0447361 -0.0466874 -0.049275 -0.0522735 -0.0554667 -0.0586394 -0.0615716 -0.0640336 -0.0657834 -0.0665631 -0.0660987 -0.0640978 -0.0602485 -0.0542168 -0.0456429 -0.0341342 -0.0192525 -0.000491039 0.0227648 0.0513074 0.0862266 0.129124 0.182492 0.250381 0.339571 0.461353 0.629584 0.822609 -0.752351 -0.344845 -0.18587 -0.116222 -0.0810995 -0.0613535 -0.0495224 -0.042335 -0.0381879 -0.0362029 -0.035842 -0.0367363 -0.0386054 -0.0412163 -0.0443604 -0.0478403 -0.0514608 -0.0550225 -0.058318 -0.0611278 -0.0632186 -0.0643401 -0.0642247 -0.0625861 -0.0591173 -0.0534891 -0.0453454 -0.0342967 -0.0199061 -0.00166623 0.0210434 0.0490324 0.0834421 0.126028 0.17977 0.25031 0.349607 0.504802 0.774104 1.27372 0 0 0 0 0 0 0 0 0 0 0 0 0 0 0 0 0 0 0 0 0 0 0 0 0 0 0 0 0 0 0 0 0 0 0 0 0 0 0 0 -0.00214691 -0.00251283 -0.00303852 -0.00358238 -0.00409488 -0.0045489 -0.00492543 -0.00521046 -0.00539397 -0.00546936 -0.00543294 -0.00528346 -0.00502197 -0.00465168 -0.00417799 -0.00360866 -0.00295386 -0.0022263 -0.00144114 -0.000615911 0.000229888 0.00107523 0.00189821 0.0026768 0.00338968 0.00401712 0.00454184 0.00494983 0.00523105 0.00538001 0.00539616 0.00528417 0.00505389 0.00472008 0.00430184 0.00382188 0.00330583 0.00278388 0.00230404 0.00200063 -0.00249015 -0.00267625 -0.00304199 -0.00346763 -0.00388974 -0.00427206 -0.00459179 -0.00483366 -0.00498732 -0.00504597 -0.00500561 -0.00486456 -0.00462323 -0.00428408 -0.00385163 -0.0033326 -0.002736 -0.00207321 -0.00135792 -0.000606045 0.000164638 0.00093488 0.00168458 0.00239344 0.00304182 0.00361153 0.00408671 0.00445459 0.00470629 0.0048373 0.00484795 0.00474361 0.00453467 0.00423647 0.00386899 0.00345704 0.00303141 0.00263335 0.00232713 0.00222857 -0.00245066 -0.00266014 -0.00298418 -0.00335429 -0.0037222 -0.00405631 -0.00433589 -0.00454715 -0.00468081 -0.00473073 -0.0046931 -0.00456599 -0.0043492 -0.00404426 -0.00365448 -0.00318518 -0.00264379 -0.00203998 -0.00138571 -0.000695152 1.55488e-05 0.000728613 0.00142518 0.00208594 0.0026919 0.0032253 0.00367047 0.00401476 0.00424932 0.00436979 0.00437674 0.00427594 0.00407838 0.00380006 0.00346187 0.00308961 0.00271485 0.00237739 0.00212958 0.00203967 -0.00222881 -0.00253065 -0.00287997 -0.00324302 -0.00359031 -0.00390009 -0.00415733 -0.00435182 -0.00447662 -0.00452697 -0.00449966 -0.00439272 -0.00420533 -0.00393795 -0.00359248 -0.00317254 -0.00268368 -0.00213365 -0.00153248 -0.00089257 -0.000228536 0.00044303 0.00110405 0.00173554 0.00231839 0.00283435 0.00326699 0.00360277 0.00383198 0.00394959 0.00395581 0.00385635 0.00366252 0.00339079 0.00306245 0.00270313 0.00234259 0.00201475 0.00175726 0.00160766 -0.00194355 -0.00235797 -0.00276538 -0.00315242 -0.00350476 -0.00381086 -0.00406251 -0.00425408 -0.00438166 -0.00444231 -0.00443367 -0.00435381 -0.00420128 -0.00397537 -0.00367639 -0.00330604 -0.00286782 -0.00236734 -0.0018126 -0.00121419 -0.000585274 5.85153e-05 0.000699535 0.00131862 0.00189594 0.00241199 0.00284878 0.00319099 0.00342721 0.00355093 0.00356128 0.00346339 0.0032684 0.00299293 0.00265829 0.00228945 0.00191386 0.00156006 0.00125556 0.00102267 -0.00167189 -0.00220118 -0.00268074 -0.00310953 -0.00348452 -0.0038031 -0.00406362 -0.00426518 -0.004407 -0.00448807 -0.00450696 -0.00446174 -0.00435026 -0.00417052 -0.00392109 -0.0036016 -0.00321329 -0.00275949 -0.0022460