# vtk DataFile Version 2.0
Presion
ASCII

DATASET STRUCTURED_GRID
DIMENSIONS   40   40   20

POINTS   32000   double
0.0125   0.0125   0.025
0.0375   0.0125   0.025
0.0625   0.0125   0.025
0.0875   0.0125   0.025
0.1125   0.0125   0.025
0.1375   0.0125   0.025
0.1625   0.0125   0.025
0.1875   0.0125   0.025
0.2125   0.0125   0.025
0.2375   0.0125   0.025
0.2625   0.0125   0.025
0.2875   0.0125   0.025
0.3125   0.0125   0.025
0.3375   0.0125   0.025
0.3625   0.0125   0.025
0.3875   0.0125   0.025
0.4125   0.0125   0.025
0.4375   0.0125   0.025
0.4625   0.0125   0.025
0.4875   0.0125   0.025
0.5125   0.0125   0.025
0.5375   0.0125   0.025
0.5625   0.0125   0.025
0.5875   0.0125   0.025
0.6125   0.0125   0.025
0.6375   0.0125   0.025
0.6625   0.0125   0.025
0.6875   0.0125   0.025
0.7125   0.0125   0.025
0.7375   0.0125   0.025
0.7625   0.0125   0.025
0.7875   0.0125   0.025
0.8125   0.0125   0.025
0.8375   0.0125   0.025
0.8625   0.0125   0.025
0.8875   0.0125   0.025
0.9125   0.0125   0.025
0.9375   0.0125   0.025
0.9625   0.0125   0.025
0.9875   0.0125   0.025
0.0125   0.0375   0.025
0.0375   0.0375   0.025
0.0625   0.0375   0.025
0.0875   0.0375   0.025
0.1125   0.0375   0.025
0.1375   0.0375   0.025
0.1625   0.0375   0.025
0.1875   0.0375   0.025
0.2125   0.0375   0.025
0.2375   0.0375   0.025
0.2625   0.0375   0.025
0.2875   0.0375   0.025
0.3125   0.0375   0.025
0.3375   0.0375   0.025
0.3625   0.0375   0.025
0.3875   0.0375   0.025
0.4125   0.0375   0.025
0.4375   0.0375   0.025
0.4625   0.0375   0.025
0.4875   0.0375   0.025
0.5125   0.0375   0.025
0.5375   0.0375   0.025
0.5625   0.0375   0.025
0.5875   0.0375   0.025
0.6125   0.0375   0.025
0.6375   0.0375   0.025
0.6625   0.0375   0.025
0.6875   0.0375   0.025
0.7125   0.0375   0.025
0.7375   0.0375   0.025
0.7625   0.0375   0.025
0.7875   0.0375   0.025
0.8125   0.0375   0.025
0.8375   0.0375   0.025
0.8625   0.0375   0.025
0.8875   0.0375   0.025
0.9125   0.0375   0.025
0.9375   0.0375   0.025
0.9625   0.0375   0.025
0.9875   0.0375   0.025
0.0125   0.0625   0.025
0.0375   0.0625   0.025
0.0625   0.0625   0.025
0.0875   0.0625   0.025
0.1125   0.0625   0.025
0.1375   0.0625   0.025
0.1625   0.0625   0.025
0.1875   0.0625   0.025
0.2125   0.0625   0.025
0.2375   0.0625   0.025
0.2625   0.0625   0.025
0.2875   0.0625   0.025
0.3125   0.0625   0.025
0.3375   0.0625   0.025
0.3625   0.0625   0.025
0.3875   0.0625   0.025
0.4125   0.0625   0.025
0.4375   0.0625   0.025
0.4625   0.0625   0.025
0.4875   0.0625   0.025
0.5125   0.0625   0.025
0.5375   0.0625   0.025
0.5625   0.0625   0.025
0.5875   0.0625   0.025
0.6125   0.0625   0.025
0.6375   0.0625   0.025
0.6625   0.0625   0.025
0.6875   0.0625   0.025
0.7125   0.0625   0.025
0.7375   0.0625   0.025
0.7625   0.0625   0.025
0.7875   0.0625   0.025
0.8125   0.0625   0.025
0.8375   0.0625   0.025
0.8625   0.0625   0.025
0.8875   0.0625   0.025
0.9125   0.0625   0.025
0.9375   0.0625   0.025
0.9625   0.0625   0.025
0.9875   0.0625   0.025
0.0125   0.0875   0.025
0.0375   0.0875   0.025
0.0625   0.0875   0.025
0.0875   0.0875   0.025
0.1125   0.0875   0.025
0.1375   0.0875   0.025
0.1625   0.0875   0.025
0.1875   0.0875   0.025
0.2125   0.0875   0.025
0.2375   0.0875   0.025
0.2625   0.0875   0.025
0.2875   0.0875   0.025
0.3125   0.0875   0.025
0.3375   0.0875   0.025
0.3625   0.0875   0.025
0.3875   0.0875   0.025
0.4125   0.0875   0.025
0.4375   0.0875   0.025
0.4625   0.0875   0.025
0.4875   0.0875   0.025
0.5125   0.0875   0.025
0.5375   0.0875   0.025
0.5625   0.0875   0.025
0.5875   0.0875   0.025
0.6125   0.0875   0.025
0.6375   0.0875   0.025
0.6625   0.0875   0.025
0.6875   0.0875   0.025
0.7125   0.0875   0.025
0.7375   0.0875   0.025
0.7625   0.0875   0.025
0.7875   0.0875   0.025
0.8125   0.0875   0.025
0.8375   0.0875   0.025
0.8625   0.0875   0.025
0.8875   0.0875   0.025
0.9125   0.0875   0.025
0.9375   0.0875   0.025
0.9625   0.0875   0.025
0.9875   0.0875   0.025
0.0125   0.1125   0.025
0.0375   0.1125   0.025
0.0625   0.1125   0.025
0.0875   0.1125   0.025
0.1125   0.1125   0.025
0.1375   0.1125   0.025
0.1625   0.1125   0.025
0.1875   0.1125   0.025
0.2125   0.1125   0.025
0.2375   0.1125   0.025
0.2625   0.1125   0.025
0.2875   0.1125   0.025
0.3125   0.1125   0.025
0.3375   0.1125   0.025
0.3625   0.1125   0.025
0.3875   0.1125   0.025
0.4125   0.1125   0.025
0.4375   0.1125   0.025
0.4625   0.1125   0.025
0.4875   0.1125   0.025
0.5125   0.1125   0.025
0.5375   0.1125   0.025
0.5625   0.1125   0.025
0.5875   0.1125   0.025
0.6125   0.1125   0.025
0.6375   0.1125   0.025
0.6625   0.1125   0.025
0.6875   0.1125   0.025
0.7125   0.1125   0.025
0.7375   0.1125   0.025
0.7625   0.1125   0.025
0.7875   0.1125   0.025
0.8125   0.1125   0.025
0.8375   0.1125   0.025
0.8625   0.1125   0.025
0.8875   0.1125   0.025
0.9125   0.1125   0.025
0.9375   0.1125   0.025
0.9625   0.1125   0.025
0.9875   0.1125   0.025
0.0125   0.1375   0.025
0.0375   0.1375   0.025
0.0625   0.1375   0.025
0.0875   0.1375   0.025
0.1125   0.1375   0.025
0.1375   0.1375   0.025
0.1625   0.1375   0.025
0.1875   0.1375   0.025
0.2125   0.1375   0.025
0.2375   0.1375   0.025
0.2625   0.1375   0.025
0.2875   0.1375   0.025
0.3125   0.1375   0.025
0.3375   0.1375   0.025
0.3625   0.1375   0.025
0.3875   0.1375   0.025
0.4125   0.1375   0.025
0.4375   0.1375   0.025
0.4625   0.1375   0.025
0.4875   0.1375   0.025
0.5125   0.1375   0.025
0.5375   0.1375   0.025
0.5625   0.1375   0.025
0.5875   0.1375   0.025
0.6125   0.1375   0.025
0.6375   0.1375   0.025
0.6625   0.1375   0.025
0.6875   0.1375   0.025
0.7125   0.1375   0.025
0.7375   0.1375   0.025
0.7625   0.1375   0.025
0.7875   0.1375   0.025
0.8125   0.1375   0.025
0.8375   0.1375   0.025
0.8625   0.1375   0.025
0.8875   0.1375   0.025
0.9125   0.1375   0.025
0.9375   0.1375   0.025
0.9625   0.1375   0.025
0.9875   0.1375   0.025
0.0125   0.1625   0.025
0.0375   0.1625   0.025
0.0625   0.1625   0.025
0.0875   0.1625   0.025
0.1125   0.1625   0.025
0.1375   0.1625   0.025
0.1625   0.1625   0.025
0.1875   0.1625   0.025
0.2125   0.1625   0.025
0.2375   0.1625   0.025
0.2625   0.1625   0.025
0.2875   0.1625   0.025
0.3125   0.1625   0.025
0.3375   0.1625   0.025
0.3625   0.1625   0.025
0.3875   0.1625   0.025
0.4125   0.1625   0.025
0.4375   0.1625   0.025
0.4625   0.1625   0.025
0.4875   0.1625   0.025
0.5125   0.1625   0.025
0.5375   0.1625   0.025
0.5625   0.1625   0.025
0.5875   0.1625   0.025
0.6125   0.1625   0.025
0.6375   0.1625   0.025
0.6625   0.1625   0.025
0.6875   0.1625   0.025
0.7125   0.1625   0.025
0.7375   0.1625   0.025
0.7625   0.1625   0.025
0.7875   0.1625   0.025
0.8125   0.1625   0.025
0.8375   0.1625   0.025
0.8625   0.1625   0.025
0.8875   0.1625   0.025
0.9125   0.1625   0.025
0.9375   0.1625   0.025
0.9625   0.1625   0.025
0.9875   0.1625   0.025
0.0125   0.1875   0.025
0.0375   0.1875   0.025
0.0625   0.1875   0.025
0.0875   0.1875   0.025
0.1125   0.1875   0.025
0.1375   0.1875   0.025
0.1625   0.1875   0.025
0.1875   0.1875   0.025
0.2125   0.1875   0.025
0.2375   0.1875   0.025
0.2625   0.1875   0.025
0.2875   0.1875   0.025
0.3125   0.1875   0.025
0.3375   0.1875   0.025
0.3625   0.1875   0.025
0.3875   0.1875   0.025
0.4125   0.1875   0.025
0.4375   0.1875   0.025
0.4625   0.1875   0.025
0.4875   0.1875   0.025
0.5125   0.1875   0.025
0.5375   0.1875   0.025
0.5625   0.1875   0.025
0.5875   0.1875   0.025
0.6125   0.1875   0.025
0.6375   0.1875   0.025
0.6625   0.1875   0.025
0.6875   0.1875   0.025
0.7125   0.1875   0.025
0.7375   0.1875   0.025
0.7625   0.1875   0.025
0.7875   0.1875   0.025
0.8125   0.1875   0.025
0.8375   0.1875   0.025
0.8625   0.1875   0.025
0.8875   0.1875   0.025
0.9125   0.1875   0.025
0.9375   0.1875   0.025
0.9625   0.1875   0.025
0.9875   0.1875   0.025
0.0125   0.2125   0.025
0.0375   0.2125   0.025
0.0625   0.2125   0.025
0.0875   0.2125   0.025
0.1125   0.2125   0.025
0.1375   0.2125   0.025
0.1625   0.2125   0.025
0.1875   0.2125   0.025
0.2125   0.2125   0.025
0.2375   0.2125   0.025
0.2625   0.2125   0.025
0.2875   0.2125   0.025
0.3125   0.2125   0.025
0.3375   0.2125   0.025
0.3625   0.2125   0.025
0.3875   0.2125   0.025
0.4125   0.2125   0.025
0.4375   0.2125   0.025
0.4625   0.2125   0.025
0.4875   0.2125   0.025
0.5125   0.2125   0.025
0.5375   0.2125   0.025
0.5625   0.2125   0.025
0.5875   0.2125   0.025
0.6125   0.2125   0.025
0.6375   0.2125   0.025
0.6625   0.2125   0.025
0.6875   0.2125   0.025
0.7125   0.2125   0.025
0.7375   0.2125   0.025
0.7625   0.2125   0.025
0.7875   0.2125   0.025
0.8125   0.2125   0.025
0.8375   0.2125   0.025
0.8625   0.2125   0.025
0.8875   0.2125   0.025
0.9125   0.2125   0.025
0.9375   0.2125   0.025
0.9625   0.2125   0.025
0.9875   0.2125   0.025
0.0125   0.2375   0.025
0.0375   0.2375   0.025
0.0625   0.2375   0.025
0.0875   0.2375   0.025
0.1125   0.2375   0.025
0.1375   0.2375   0.025
0.1625   0.2375   0.025
0.1875   0.2375   0.025
0.2125   0.2375   0.025
0.2375   0.2375   0.025
0.2625   0.2375   0.025
0.2875   0.2375   0.025
0.3125   0.2375   0.025
0.3375   0.2375   0.025
0.3625   0.2375   0.025
0.3875   0.2375   0.025
0.4125   0.2375   0.025
0.4375   0.2375   0.025
0.4625   0.2375   0.025
0.4875   0.2375   0.025
0.5125   0.2375   0.025
0.5375   0.2375   0.025
0.5625   0.2375   0.025
0.5875   0.2375   0.025
0.6125   0.2375   0.025
0.6375   0.2375   0.025
0.6625   0.2375   0.025
0.6875   0.2375   0.025
0.7125   0.2375   0.025
0.7375   0.2375   0.025
0.7625   0.2375   0.025
0.7875   0.2375   0.025
0.8125   0.2375   0.025
0.8375   0.2375   0.025
0.8625   0.2375   0.025
0.8875   0.2375   0.025
0.9125   0.2375   0.025
0.9375   0.2375   0.025
0.9625   0.2375   0.025
0.9875   0.2375   0.025
0.0125   0.2625   0.025
0.0375   0.2625   0.025
0.0625   0.2625   0.025
0.0875   0.2625   0.025
0.1125   0.2625   0.025
0.1375   0.2625   0.025
0.1625   0.2625   0.025
0.1875   0.2625   0.025
0.2125   0.2625   0.025
0.2375   0.2625   0.025
0.2625   0.2625   0.025
[...]
POINT_DATA   32000
SCALARS Presion double
LOOKUP_TABLE   Presion

0 0 0 0 0 0 0 0 0 0 0 0 0 0 0 0 0 0 0 0 0 0 0 0 0 0 0 0 0 0 0 0 0 0 0 0 0 0 0 0 -5.04239e-06 -4.99996e-06 -4.92188e-06 -4.81184e-06 -4.67223e-06 -4.5049e-06 -4.31139e-06 -4.09305e-06 -3.85108e-06 -3.58649e-06 -3.30008e-06 -2.99259e-06 -2.66416e-06 -2.31486e-06 -1.94451e-06 -1.55272e-06 -1.13897e-06 -7.02625e-07 -2.43035e-07 2.40347e-07 7.47868e-07 1.27948e-06 1.83481e-06 2.41277e-06 3.01154e-06 3.62834e-06 4.25938e-06 4.89967e-06 5.54301e-06 6.18196e-06 6.8079e-06 7.41142e-06 7.98196e-06 8.5088e-06 8.98129e-06 9.3894e-06 9.72433e-06 9.97908e-06 1.01491e-05 1.02329e-05 -1.00781e-05 -9.99409e-06 -9.83858e-06 -9.6188e-06 -9.33959e-06 -9.00474e-06 -8.61742e-06 -8.18046e-06 -7.69634e-06 -7.16714e-06 -6.59453e-06 -5.98005e-06 -5.32401e-06 -4.62654e-06 -3.8873e-06 -3.1055e-06 -2.28003e-06 -1.40958e-06 -4.92789e-07 4.71512e-07 1.48411e-06 2.54502e-06 3.65359e-06 4.80779e-06 6.00408e-06 7.23705e-06 8.49921e-06 9.78071e-06 1.10692e-05 1.23498e-05 1.36053e-05 1.48168e-05 1.59629e-05 1.70221e-05 1.79727e-05 1.87944e-05 1.94693e-05 1.99831e-05 2.03265e-05 2.04962e-05 -1.51182e-05 -1.49926e-05 -1.47594e-05 -1.44292e-05 -1.40094e-05 -1.35058e-05 -1.29234e-05 -1.22667e-05 -1.15395e-05 -1.07452e-05 -9.88636e-06 -8.96544e-06 -7.98295e-06 -6.93914e-06 -5.83345e-06 -4.66464e-06 -3.43094e-06 -2.13024e-06 -7.60338e-07 6.80737e-07 2.1944e-06 3.78094e-06 5.43966e-06 7.16784e-06 8.96046e-06 1.08098e-05 1.27047e-05 1.46309e-05 1.65698e-05 1.84993e-05 2.03933e-05 2.22231e-05 2.39564e-05 2.55602e-05 2.70012e-05 2.82481e-05 2.92733e-05 3.00546e-05 3.05771e-05 3.08358e-05 -2.01734e-05 -2.00056e-05 -1.96935e-05 -1.92512e-05 -1.86887e-05 -1.80141e-05 -1.72343e-05 -1.63557e-05 -1.53837e-05 -1.43231e-05 -1.31776e-05 -1.19508e-05 -1.06434e-05 -9.25569e-06 -7.78699e-06 -6.23547e-06 -4.59856e-06 -2.87318e-06 -1.05606e-06 8.55818e-07 2.8648e-06 4.97176e-06 7.17633e-06 9.47545e-06 1.1863e-05 1.43293e-05 1.68602e-05 1.94368e-05 2.20347e-05 2.46244e-05 2.71711e-05 2.96358e-05 3.19747e-05 3.41422e-05 3.60929e-05 3.77832e-05 3.91746e-05 4.0236e-05 4.09466e-05 4.12986e-05 -2.52543e-05 -2.50433e-05 -2.46504e-05 -2.40932e-05 -2.33847e-05 -2.25354e-05 -2.15545e-05 -2.04504e-05 -1.92308e-05 -1.79019e-05 -1.6469e-05 -1.49367e-05 -1.3306e-05 -1.15777e-05 -9.75042e-06 -7.82187e-06 -5.78843e-06 -3.64581e-06 -1.38937e-06 9.85305e-07 3.48186e-06 6.10222e-06 8.84679e-06 1.17127e-05 1.46933e-05 1.77775e-05 2.09483e-05 2.4183e-05 2.74516e-05 3.07172e-05 3.3936e-05 3.70583e-05 4.00279e-05 4.27858e-05 4.52727e-05 4.74316e-05 4.92113e-05 5.05705e-05 5.14813e-05 5.19326e-05 -3.0372e-05 -3.01162e-05 -2.96396e-05 -2.89636e-05 -2.81042e-05 -2.70748e-05 -2.58873e-05 -2.45529e-05 -2.30813e-05 -2.14811e-05 -1.97592e-05 -1.79215e-05 -1.59697e-05 -1.39044e-05 -1.17242e-05 -9.4258e-06 -7.00435e-06 -4.454e-06 -1.7684e-06 1.05871e-06 4.03277e-06 7.15729e-06 1.0434e-05 1.3861e-05 1.74318e-05 2.11342e-05 2.49496e-05 2.88516e-05 3.28052e-05 3.67663e-05 4.06817e-05 4.44907e-05 4.81234e-05 5.15063e-05 5.45641e-05 5.72243e-05 5.94214e-05 6.11017e-05 6.22287e-05 6.27874e-05 -3.55381e-05 -3.52356e-05 -3.46712e-05 -3.38707e-05 -3.28537e-05 -3.16368e-05 -3.02353e-05 -2.86634e-05 -2.69338e-05 -2.50579e-05 -2.30444e-05 -2.0901e-05 -1.86301e-05 -1.62325e-05 -1.37062e-05 -1.10468e-05 -8.24792e-06 -5.30175e-06 -2.19973e-06 1.06674e-06 4.50547e-06 8.12222e-06 1.19209e-05 1.5901e-05 2.00571e-05 2.43774e-05 2.88419e-05 3.34215e-05 3.80767e-05 4.27565e-05 4.73983e-05 5.19294e-05 5.62655e-05 6.03163e-05 6.39888e-05 6.7192e-05 6.98433e-05 7.18745e-05 7.32384e-05 7.39147e-05 -4.07658e-05 -4.04135e-05 -3.9756e-05 -3.88236e-05 -3.76398e-05 -3.62254e-05 -3.45995e-05 -3.27804e-05 -3.07845e-05 -2.86264e-05 -2.63176e-05 -2.38676e-05 -2.12799e-05 -1.85552e-05 -1.5691e-05 -1.26814e-05 -9.51808e-06 -6.19072e-06 -2.68803e-06 1.00154e-06 4.88884e-06 8.98261e-06 1.32896e-05 1.78121e-05 2.25466e-05 2.74824e-05 3.25995e-05 3.78674e-05 4.32425e-05 4.86675e-05 5.40704e-05 5.93662e-05 6.44542e-05 6.92255e-05 7.35664e-05 7.73644e-05 8.05161e-05 8.29355e-05 8.4562e-05 8.5369e-05 -4.60696e-05 -4.56638e-05 -4.4906e-05 -4.38316e-05 -4.24689e-05 -4.08435e-05 -3.89795e-05 -3.69e-05 -3.46263e-05 -3.21771e-05 -2.95675e-05 -2.68092e-05 -2.39069e-05 -2.08615e-05 -1.76693e-05 -1.43226e-05 -1.08106e-05 -7.11984e-06 -3.23571e-06 8.5699e-07 5.17289e-06 9.72452e-06 1.45226e-05 1.95728e-05 2.48752e-05 3.04213e-05 3.61929e-05 4.21588e-05 4.82731e-05 5.44728e-05 6.06766e-05 6.67864e-05 7.2684e-05 7.82392e-05 8.3314e-05 8.77702e-05 9.14794e-05 9.43333e-05 9.62549e-05 9.72088e-05 -5.14666e-05 -5.10023e-05 -5.01348e-05 -4.89053e-05 -4.73477e-05 -4.54934e-05 -4.33728e-05 -4.10153e-05 -3.84484e-05 -3.56962e-05 -3.27779e-05 -2.97085e-05 -2.64941e-05 -2.31352e-05 -1.9627e-05 -1.59591e-05 -1.21174e-05 -8.08483e-06 -3.84251e-06 6.29054e-07 5.34906e-06 1.03347e-05 1.56016e-05 2.11603e-05 2.70153e-05 3.31628e-05 3.95872e-05 4.62593e-05 5.3132e-05 6.0138e-05 6.71873e-05 7.41681e-05 8.0943e-05 8.73576e-05 9.32453e-05 9.84372e-05 0.000102774 0.00010612 0.000108376 0.000109498 -5.69769e-05 -5.64479e-05 -5.54586e-05 -5.40569e-05 -5.22833e-05 -5.01766e-05 -4.7775e-05 -4.51161e-05 -4.22352e-05 -3.91635e-05 -3.5926e-05 -3.25415e-05 -2.90174e-05 -2.53541e-05 -2.15443e-05 -1.75746e-05 -1.34263e-05 -9.07771e-06 -4.50512e-06 3.1615e-07 5.41058e-06 1.08009e-05 1.65086e-05 2.25504e-05 2.89373e-05 3.56712e-05 4.27424e-05 5.01252e-05 5.77741e-05 6.56193e-05 7.35632e-05 8.14798e-05 8.92111e-05 9.65747e-05 0.00010337 0.000109392 0.000114442 0.00011835 0.000120992 0.000122306 -6.26254e-05 -6.20233e-05 -6.08966e-05 -5.93005e-05 -5.72837e-05 -5.48938e-05 -5.2179e-05 -4.91875e-05 -4.59649e-05 -4.25519e-05 -3.89808e-05 -3.52754e-05 -3.14448e-05 -2.74882e-05 -2.33951e-05 -1.9147e-05 -1.472e-05 -1.00864e-05 -5.21671e-06 -8.04143e-08 5.3529e-06 1.11123e-05 1.7226e-05 2.37184e-05 3.06084e-05 3.79066e-05 4.56113e-05 5.37041e-05 6.21438e-05 7.08611e-05 7.97525e-05 8.86785e-05 9.74578e-05 0.000105876 0.000113694 0.00012066 0.000126528 0.000131086 0.000134174 0.000135711 -6.84424e-05 -6.7757e-05 -6.64728e-05 -6.4654e-05 -6.23585e-05 -5.96452e-05 -5.65749e-05 -5.32093e-05 -4.9608e-05 -4.58243e-05 -4.19008e-05 -3.78671e-05 -3.37342e-05 -2.94989e-05 -2.51453e-05 -2.06482e-05 -1.59761e-05 -1.10944e-05 -5.96658e-06 -5.55959e-07 5.17428e-06 1.126e-05 1.77371e-05 2.46387e-05 3.19939e-05 3.98242e-05 4.81397e-05 5.69331e-05 6.61725e-05 7.57929e-05 8.56881e-05 9.57058e-05 0.00010564 0.000115239 0.000124216 0.000132264 0.00013908 0.000144395 0.000148006 0.000149805 -7.44663e-05 -7.36844e-05 -7.22177e-05 -7.01398e-05 -6.75203e-05 -6.44313e-05 -6.09496e-05 -5.71549e-05 -5.31252e-05 -4.89316e-05 -4.46303e-05 -4.02593e-05 -3.58307e-05 -3.13366e-05 -2.67525e-05 -2.2043e-05 -1.71668e-05 -1.20804e-05 -6.73985e-06 -1.1019e-06 4.87654e-06 1.12382e-05 1.80271e-05 2.52864e-05 3.3057e-05 4.13745e-05 5.02649e-05 5.97373e-05 6.97754e-05 8.03251e-05 9.12827e-05 0.000102484 0.000113698 0.000124628 0.000134929 0.000144228 0.000152148 0.000158353 0.000162581 0.000164691 -8.07451e-05 -7.98507e-05 -7.81697e-05 -7.57872e-05 -7.27856e-05 -6.92533e-05 -6.52869e-05 -6.09893e-05 -5.64643e-05 -5.18073e-05 -4.70952e-05 -4.23767e-05 -3.76638e-05 -3.29395e-05 -2.8165e-05 -2.32897e-05 -1.82591e-05 -1.30188e-05 -7.51735e-06 -1.70519e-06 4.46611e-06 1.10454e-05 1.80849e-05 2.56384e-05 3.37605e-05 4.25039e-05 5.19152e-05 6.20271e-05 7.28476e-05 8.43437e-05 9.64221e-05 0.000108912 0.000121551 0.000133992 0.000145819 0.000156573 0.000165791 0.000173047 0.000178009 0.00018049 -8.73396e-05 -8.63127e-05 -8.43789e-05 -8.1635e-05 -7.8178e-05 -7.41154e-05 -6.95679e-05 -6.46685e-05 -5.9556e-05 -5.43624e-05 -4.9195e-05 -4.4119e-05 -3.91429e-05 -3.42312e-05 -2.93215e-05 -2.43405e-05 -1.92157e-05 -1.38805e-05 -8.27571e-06 -2.34764e-06 3.95536e-06 1.06864e-05 1.79051e-05 2.56759e-05 3.40688e-05 4.31562e-05 5.30104e-05 6.36963e-05 7.52587e-05 8.77012e-05 0.000100956 0.000114853 0.000129094 0.000143265 0.000156861 0.000169323 0.000180074 0.000188582 0.000194422 0.000197346 -9.43259e-05 -9.31428e-05 -9.09092e-05 -8.77346e-05 -8.37315e-05 -7.90278e-05 -7.37728e-05 -6.81376e-05 -6.23092e-05 -5.64748e-05 -5.07919e-05 -4.5352e-05 -4.01516e-05 -3.51197e-05 -3.01529e-05 -2.51444e-05 -1.99981e-05 -1.46342e-05 -8.98792e-06 -3.00508e-06 3.36455e-06 1.01748e-05 1.74908e-05 2.53881e-05 3.39519e-05 4.32764e-05 5.34638e-05 6.46204e-05 7.68453e-05 9.02043e-05 0.000104683 0.000120124 0.000136186 0.000152361 0.00016803 0.000182504 0.000195077 0.00020508 0.000211974 0.000215433 -0.000101799 -0.000100432 -9.78434e-05 -9.41556e-05 -8.94956e-05 -8.40123e-05 -7.78856e-05 -7.13323e-05 -6.46046e-05 -5.79747e-05 -5.16897e-05 -4.58915e-05 -4.05424e-05 -3.54981e-05 -3.05866e-05 -2.56523e-05 -2.05708e-05 -1.52501e-05 -9.62433e-06 -3.64618e-06 2.72487e-06 9.53655e-06 1.68582e-05 2.47764e-05 3.33913e-05 4.28172e-05 5.31875e-05 6.46579e-05 7.74034e-05 9.15925e-05 0.000107319 0.000124477 0.000142646 0.000161177 0.000179294 0.000196155 0.000210895 0.000222689 0.00023085 0.000234955 -0.000109874 -0.000108292 -0.000105287 -0.00010099 -9.55432e-05 -8.91116e-05 -8.19038e-05 -7.41846e-05 -6.62888e-05 -5.86196e-05 -5.15947e-05 -4.54791e-05 -4.01302e-05 -3.52508e-05 -3.05562e-05 -2.58264e-05 -2.09087e-05 -1.5704e-05 -1.01543e-05 -4.23032e-06 2.08353e-06 8.81539e-06 1.60411e-05 2.38611e-05 3.23881e-05 4.17507e-05 5.21061e-05 6.36593e-05 7.66811e-05 9.15052e-05 0.000108448 0.000127559 0.000148244 0.000169601 0.000190639 0.000210336 0.000227653 0.000241586 0.000251272 0.000256157 -0.000118693 -0.000116861 -0.00011337 -0.000108361 -0.00010198 -9.44038e-05 -8.58571e-05 -7.66418e-05 -6.71779e-05 -5.80544e-05 -5.00296e-05 -4.37425e-05 -3.86965e-05 -3.42733e-05 -3.00217e-05 -2.56565e-05 -2.10086e-05 -1.59855e-05 -1.05491e-05 -4.70386e-06 1.51418e-06 8.07904e-06 1.50944e-05 2.26857e-05 3.09738e-05 4.00863e-05 5.01825e-05 6.14941e-05 7.43853e-05 8.94271e-05 0.000107398 0.000128868 0.000152711 0.000177542 0.000202086 0.000225144 0.000245512 0.00026199 0.000273502 0.000279326 -0.00012842 -0.000126304 -0.000122256 -0.000116424 -0.000108955 -0.000100021 -8.98416e-05 -7.87145e-05 -6.70962e-05 -5.57623e-05 -4.6103e-05 -4.0146e-05 -3.60282e-05 -3.25199e-05 -2.90041e-05 -2.51803e-05 -2.09026e-05 -1.61076e-05 -1.07881e-05 -4.99476e-06 1.1432e-06 7.42658e-06 1.40929e-05 2.13183e-05 2.92197e-05 3.78955e-05 4.74644e-05 5.81199e-05 7.02398e-05 8.46223e-05 0.000102918 0.000127677 0.000155792 0.000184993 0.000213742 0.000240743 0.000264679 0.000284155 0.000297844 0.000304796 -0.000139246 -0.000136809 -0.000132134 -0.000125372 -0.000116666 -0.000106171 -9.40663e-05 -8.05759e-05 -6.60296e-05 -5.10959e-05 -3.77791e-05 -3.40224e-05 -3.20713e-05 -3.01046e-05 -2.76339e-05 -2.45065e-05 -2.06714e-05 -1.61202e-05 -1.08764e-05 -5.01496e-06 1.23172e-06 6.98562e-06 1.31144e-05 1.9842e-05 2.72395e-05 3.53355e-05 4.41503e-05 5.37258e-05 6.42101e-05 7.61889e-05 9.21276e-05 0.000123096 0.000157477 0.000192183 0.000225864 0.000257382 0.00028541 0.000308375 0.000324639 0.000332943 -0.000151384 -0.000148591 -0.000143222 -0.000135431 -0.000125358 -0.000113137 -9.8891e-05 -8.27116e-05 -6.45699e-05 -4.40316e-05 -1.91177e-05 -2.53269e-05 -2.7376e-05 -2.74504e-05 -2.61887e-05 -2.38191e-05 -2.04449e-05 -1.61243e-05 -1.08913e-05 -4.73978e-06 2.48236e-06 6.82906e-06 1.21846e-05 1.833e-05 2.51778e-05 3.26516e-05 4.06404e-05 4.89453e-05 5.71469e-05 6.41657e-05 6.65508e-05 0.000115178 0.000158643 0.000199784 0.00023891 0.000275395 0.000307999 0.000334963 0.000354255 0.000364175 -0.000165064 -0.000161881 -0.000155753 -0.000146844 -0.000135298 -0.00012124 -0.000104774 -8.59379e-05 -6.46355e-05 -4.04685e-05 -1.24914e-05 -1.99372e-05 -2.38162e-05 -2.53072e-05 -2.50391e-05 -2.33365e-05 -2.03769e-05 -1.62647e-05 -1.10604e-05 -4.78288e-06 2.60624e-06 6.39314e-06 1.11839e-05 1.68218e-05 2.31803e-05 3.01227e-05 3.74574e-05 4.4873e-05 5.1814e-05 5.72346e-05 5.92233e-05 0.000112618 0.000162077 0.000208926 0.000253453 0.000295141 0.000332734 0.000364224 0.000387064 0.000398926 -0.000180533 -0.000176924 -0.000169969 -0.000159855 -0.000146739 -0.000130762 -0.000112044 -9.06553e-05 -6.65909e-05 -3.97367e-05 -9.93339e-06 -1.71593e-05 -2.1709e-05 -2.40045e-05 -2.4421e-05 -2.32226e-05 -2.05873e-05 -1.66367e-05 -1.14558e-05 -5.10462e-06 2.36623e-06 5.76131e-06 1.01333e-05 1.53773e-05 2.13684e-05 2.79523e-05 3.49198e-05 4.19671e-05 4.86415e-05 5.42937e-05 5.81634e-05 0.000114324 0.000168233 0.0002201 0.000269852 0.000316881 0.000359838 0.000396418 0.00042342 0.000437631 -0.000198047 -0.00019397 -0.000186114 -0.000174696 -0.000159903 -0.00014191 -0.00012088 -9.6952e-05 -7.02416e-05 -4.08569e-05 -8.98848e-06 -1.59891e-05 -2.081e-05 -2.35551e-05 -2.44109e-05 -2.35566e-05 -2.11409e-05 -1.72832e-05 -1.20815e-05 -5.62227e-06 2.00328e-06 5.04802e-06 9.09393e-06 1.40559e-05 1.98186e-05 2.6235e-05 3.31164e-05 4.02177e-05 4.72292e-05 5.3802e-05 5.96701e-05 0.000118764 0.000176724 0.000233313 0.000288217 0.000340735 0.000389436 0.000431726 0.000463632 0.00048072 -0.000217871 -0.000213275 -0.000204427 -0.000191584 -0.000174976 -0.00015483 -0.000131364 -0.000104793 -7.53324e-05 -4.32264e-05 -8.80298e-06 -1.57995e-05 -2.08143e-05 -2.38467e-05 -2.49852e-05 -2.43476e-05 -2.20526e-05 -1.82097e-05 -1.29197e-05 -6.28008e-06 1.60459e-06 4.32653e-06 8.11753e-06 1.28981e-05 1.85629e-05 2.49825e-05 3.20014e-05 3.94383e-05 4.70958e-05 5.47944e-05 6.24469e-05 0.000124973 0.000187071 0.000248383 0.000308501 0.000366703 0.000421549 0.000470233 0.00050794 0.000528596 -0.000240278 -0.000235097 -0.00022514 -0.000210716 -0.000192116 -0.000169626 -0.00014353 -0.000114114 -8.16703e-05 -4.65186e-05 -9.03934e-06 -1.62408e-05 -2.14814e-05 -2.4742e-05 -2.60728e-05 -2.55595e-05 -2.33005e-05 -1.93957e-05 -1.39433e-05 -7.04128e-06 1.20616e-06 3.63783e-06 7.23671e-06 1.19237e-05 1.76022e-05 2.41609e-05 3.14768e-05 3.94203e-05 4.78679e-05 5.67267e-05 6.59683e-05 0.000132397 0.000198882 0.000265074 0.000330569 0.000394697 0.000456105 0.000511912 0.00055649 0.000581629 -0.000265549 -0.000259699 -0.000248478 -0.000232272 -0.000211447 -0.000186364 -0.000157382 -0.000124851 -8.9121e-05 -5.05535e-05 -9.54511e-06 -1.71145e-05 -2.2638e-05 -2.61122e-05 -2.75834e-05 -2.7128e-05 -2.48359e-05 -2.0801e-05 -1.51166e-05 -7.87584e-06 8.25416e-07 3.00536e-06 6.47075e-06 1.11398e-05 1.69219e-05 2.37211e-05 3.14402e-05 3.99873e-05 4.92854e-05 5.92858e-05 6.99802e-05 0.000140697 0.000211849 0.000283145 0.000354237 0.00042456 0.00049294 0.000556615 0.000609303 0.000640126 -0.000293975 -0.00028734 -0.000274653 -0.000256401 -0.000233054 -0.000205071 -0.000172891 -0.000136929 -9.75763e-05 -5.52165e-05 -1.02397e-05 -1.82964e-05 -2.41528e-05 -2.78381e-05 -2.94155e-05 -2.89683e-05 -2.65877e-05 -2.23662e-05 -1.63926e-05 -8.75177e-06 4.73914e-07 2.44631e-06 5.83447e-06 1.05507e-05 1.65068e-05 2.36177e-05 3.18058e-05 4.10055e-05 5.11699e-05 6.22767e-05 7.43289e-05 0.000149631 0.000225703 0.000302335 0.000379266 0.000456065 0.000531803 0.000604053 0.000666228 0.000704309 -0.000325857 -0.000318279 -0.000303849 -0.000283206 -0.000256963 -0.000225705 -0.000189969 -0.000150232 -0.000106918 -6.04095e-05 -1.107e-05 -1.96927e-05 -2.59111e-05 -2.98001e-05 -3.14539e-05 -3.0974e-05 -2.84616e-05 -2.40114e-05 -1.77088e-05 -9.62868e-06 1.63963e-07 1.97997e-06 5.34659e-06 1.01663e-05 1.63498e-05 2.38194e-05 3.25112e-05 4.23789e-05 5.33972e-05 6.55641e-05 7.88962e-05 0.000158987 0.000240174 0.000322344 0.000405343 0.00048889 0.000572338 0.000653784 0.000726882 0.000774263 -0.000361501 -0.000352754 -0.000336203 -0.000312709 -0.000283098 -0.000248121 -0.000208431 -0.000164569 -0.000116977 -6.60146e-05 -1.19879e-05 -2.12129e-05 -2.77936e-05 -3.18644e-05 -3.35612e-05 -3.30128e-05 -3.03357e-05 -2.5631e-05 -1.89818e-05 -1.04523e-05 -8.69615e-08 1.63393e-06 5.03613e-06 1.00086e-05 1.64585e-05 2.43125e-05 3.35172e-05 4.40414e-05 5.58774e-05 6.90421e-05 8.35714e-05 0.000168554 0.000254963 0.000342804 0.000432052 0.000522589 0.000614053 0.000705183 0.000790572 0.000849863 -0.000401218 -0.000390967 -0.00037175 -0.000344789 -0.000311213 -0.000272 -0.000227937 -0.000179622 -0.000127495 -7.18624e-05 -1.29362e-05 -2.27496e-05 -2.96576e-05 -3.38684e-05 -3.55685e-05 -3.49195e-05 -3.20571e-05 -2.7091e-05 -2.01041e-05 -1.11505e-05 -2.52941e-07 1.44819e-06 4.94607e-06 1.01142e-05 1.68557e-05 2.51004e-05 3.48043e-05 4.59486e-05 5.85414e-05 7.26182e-05 8.82393e-05 0.000178098 0.000269721 0.000363257 0.000458839 0.000556536 0.000656265 0.000757418 0.0008562 0.000930651 -0.000445301 -0.000433024 -0.000410346 -0.000379074 -0.000340793 -0.000296764 -0.000247915 -0.000194884 -0.000138072 -7.76977e-05 -1.38348e-05 -2.41602e-05 -3.13209e-05 -3.56103e-05 -3.72699e-05 -3.64949e-05 -3.34413e-05 -2.82291e-05 -2.09433e-05 -1.16317e-05 -2.97838e-07 1.47599e-06 5.13198e-06 1.05308e-05 1.75739e-05 2.61966e-05 3.63635e-05 4.80674e-05 6.13299e-05 7.62039e-05 9.27752e-05 0.000187356 0.000284038 0.00038314 0.000484987 0.000589881 0.000698018 0.000809389 0.00092214 0.00101567 -0.000493998 -0.000478827 -0.000451485 -0.000414765 -0.000370891 -0.000321447 -0.000267472 -0.00020959 -0.00014812 -8.31476e-05 -1.45671e-05 -2.52537e-05 -3.25546e-05 -3.68494e-05 -3.84285e-05 -3.75163e-05 -3.42857e-05 -2.88676e-05 -2.13533e-05 -1.17913e-05 -1.76863e-07 1.77791e-06 5.65215e-06 1.1304e-05 1.86412e-05 2.76082e-05 3.81801e-05 5.03598e-05 6.41797e-05 7.97049e-05 9.70422e-05 0.000196035 0.000297441 0.00040178 0.000509607 0.000621507 0.000737992 0.000859654 0.000986127 0.00110317 -0.000547397 -0.000527804 -0.000493968 -0.000450329 -0.000399907 -0.000344553 -0.000285306 -0.000222679 -0.00015684 -8.77046e-05 -1.49702e-05 -2.57916e-05 -3.30986e-05 -3.73321e-05 -3.8811e-05 -3.77748e-05 -3.44073e-05 -2.88495e-05 -2.12041e-05 -1.15333e-05 1.54149e-07 2.40305e-06 6.54222e-06 1.24491e-05 2.00505e-05 2.93069e-05 4.02052e-05 5.27575e-05 6.70021e-05 8.30078e-05 0.000100889 0.000203804 0.000309397 0.000418407 0.000531641 0.000650034 0.000774428 0.000906303 0.00104517 0.00119023 -0.000605106 -0.000578237 -0.000535244 -0.000483044 -0.000425345 -0.000363968 -0.000299715 -0.00023284 -0.000163282 -9.07733e-05 -1.48506e-05 -2.55368e-05 -3.27346e-05 -3.6878e-05 -3.82761e-05 -3.7164e-05 -3.37275e-05 -2.81163e-05 -2.04503e-05 -1.08216e-05 7.13341e-07 3.34684e-06 7.7655e-06 1.38994e-05 2.17104e-05 3.1181e-05 4.2312e-05 5.5122e-05 6.96502e-05 8.59578e-05 0.000104147 0.000210299 0.000319318 0.000432167 0.000549903 0.000673859 0.000805146 0.000946775 0.00109564 0.00127197 -0.000665022 -0.000625571 -0.000570281 -0.00050854 -0.000443787 -0.000377161 -0.000308892 -0.000238828 -0.000166639 -9.18956e-05 -1.40877e-05 -2.44268e-05 -3.14814e-05 -3.55724e-05 -3.6956e-05 -3.58459e-05 -3.24234e-05 -2.68451e-05 -1.92517e-05 -9.77742e-06 1.43803e-06 4.47357e-06 9.13197e-06 1.54296e-05 2.3374e-05 3.29722e-05 4.42374e-05 5.71925e-05 7.18732e-05 8.83242e-05 0.000106612 0.000215112 0.000326575 0.000442169 0.000563157 0.000691255 0.000827742 0.000977602 0.00113383 0.00134029 -0.000717869 -0.000658633 -0.000590655 -0.000521392 -0.000452022 -0.000382391 -0.000312037 -0.000240432 -0.000167046 -9.13708e-05 -1.29724e-05 -2.29876e-05 -2.99822e-05 -3.41022e-05 -3.55425e-05 -3.4496e-05 -3.11396e-05 -2.56354e-05 -1.81403e-05 -8.82479e-06 2.08603e-06 5.40284e-06 1.01967e-05 1.65699e-05 2.45671e-05 3.42125e-05 4.55271e-05 5.85356e-05 7.32691e-05 8.97578e-05 0.000108026 0.000217779 0.000330519 0.000447542 0.000570249 0.000700542 0.000840014 0.000994349 0.00115689 0.00138205 0 0 0 0 0 0 0 0 0 0 0 0 0 0 0 0 0 0 0 0 0 0 0 0 0 0 0 0 0 0 0 0 0 0 0 0 0 0 0 0 -5.0074e-06 -4.97001e-06 -4.89748e-06 -4.7923e-06 -4.65671e-06 -4.49265e-06 -4.30186e-06 -4.08582e-06 -3.84586e-06 -3.58307e-06 -3.2983e-06 -2.99237e-06 -2.66545e-06 -2.31763e-06 -1.94876e-06 -1.55848e-06 -1.14627e-06 -7.11502e-07 -2.53536e-07 2.28185e-07 7.34028e-07 1.26397e-06 1.81768e-06 2.39413e-06 2.99158e-06 3.60735e-06 4.23775e-06 4.87793e-06 5.52182e-06 6.16212e-06 6.79034e-06 7.39714e-06 7.97205e-06 8.50431e-06 8.98322e-06 9.3986