# vtk DataFile Version 2.0
Presion
ASCII

DATASET STRUCTURED_GRID
DIMENSIONS   40   40   20

POINTS   32000   double
0.0125   0.0125   0.025
0.0375   0.0125   0.025
0.0625   0.0125   0.025
0.0875   0.0125   0.025
0.1125   0.0125   0.025
0.1375   0.0125   0.025
0.1625   0.0125   0.025
0.1875   0.0125   0.025
0.2125   0.0125   0.025
0.2375   0.0125   0.025
0.2625   0.0125   0.025
0.2875   0.0125   0.025
0.3125   0.0125   0.025
0.3375   0.0125   0.025
0.3625   0.0125   0.025
0.3875   0.0125   0.025
0.4125   0.0125   0.025
0.4375   0.0125   0.025
0.4625   0.0125   0.025
0.4875   0.0125   0.025
0.5125   0.0125   0.025
0.5375   0.0125   0.025
0.5625   0.0125   0.025
0.5875   0.0125   0.025
0.6125   0.0125   0.025
0.6375   0.0125   0.025
0.6625   0.0125   0.025
0.6875   0.0125   0.025
0.7125   0.0125   0.025
0.7375   0.0125   0.025
0.7625   0.0125   0.025
0.7875   0.0125   0.025
0.8125   0.0125   0.025
0.8375   0.0125   0.025
0.8625   0.0125   0.025
0.8875   0.0125   0.025
0.9125   0.0125   0.025
0.9375   0.0125   0.025
0.9625   0.0125   0.025
0.9875   0.0125   0.025
0.0125   0.0375   0.025
0.0375   0.0375   0.025
0.0625   0.0375   0.025
0.0875   0.0375   0.025
0.1125   0.0375   0.025
0.1375   0.0375   0.025
0.1625   0.0375   0.025
0.1875   0.0375   0.025
0.2125   0.0375   0.025
0.2375   0.0375   0.025
0.2625   0.0375   0.025
0.2875   0.0375   0.025
0.3125   0.0375   0.025
0.3375   0.0375   0.025
0.3625   0.0375   0.025
0.3875   0.0375   0.025
0.4125   0.0375   0.025
0.4375   0.0375   0.025
0.4625   0.0375   0.025
0.4875   0.0375   0.025
0.5125   0.0375   0.025
0.5375   0.0375   0.025
0.5625   0.0375   0.025
0.5875   0.0375   0.025
0.6125   0.0375   0.025
0.6375   0.0375   0.025
0.6625   0.0375   0.025
0.6875   0.0375   0.025
0.7125   0.0375   0.025
0.7375   0.0375   0.025
0.7625   0.0375   0.025
0.7875   0.0375   0.025
0.8125   0.0375   0.025
0.8375   0.0375   0.025
0.8625   0.0375   0.025
0.8875   0.0375   0.025
0.9125   0.0375   0.025
0.9375   0.0375   0.025
0.9625   0.0375   0.025
0.9875   0.0375   0.025
0.0125   0.0625   0.025
0.0375   0.0625   0.025
0.0625   0.0625   0.025
0.0875   0.0625   0.025
0.1125   0.0625   0.025
0.1375   0.0625   0.025
0.1625   0.0625   0.025
0.1875   0.0625   0.025
0.2125   0.0625   0.025
0.2375   0.0625   0.025
0.2625   0.0625   0.025
0.2875   0.0625   0.025
0.3125   0.0625   0.025
0.3375   0.0625   0.025
0.3625   0.0625   0.025
0.3875   0.0625   0.025
0.4125   0.0625   0.025
0.4375   0.0625   0.025
0.4625   0.0625   0.025
0.4875   0.0625   0.025
0.5125   0.0625   0.025
0.5375   0.0625   0.025
0.5625   0.0625   0.025
0.5875   0.0625   0.025
0.6125   0.0625   0.025
0.6375   0.0625   0.025
0.6625   0.0625   0.025
0.6875   0.0625   0.025
0.7125   0.0625   0.025
0.7375   0.0625   0.025
0.7625   0.0625   0.025
0.7875   0.0625   0.025
0.8125   0.0625   0.025
0.8375   0.0625   0.025
0.8625   0.0625   0.025
0.8875   0.0625   0.025
0.9125   0.0625   0.025
0.9375   0.0625   0.025
0.9625   0.0625   0.025
0.9875   0.0625   0.025
0.0125   0.0875   0.025
0.0375   0.0875   0.025
0.0625   0.0875   0.025
0.0875   0.0875   0.025
0.1125   0.0875   0.025
0.1375   0.0875   0.025
0.1625   0.0875   0.025
0.1875   0.0875   0.025
0.2125   0.0875   0.025
0.2375   0.0875   0.025
0.2625   0.0875   0.025
0.2875   0.0875   0.025
0.3125   0.0875   0.025
0.3375   0.0875   0.025
0.3625   0.0875   0.025
0.3875   0.0875   0.025
0.4125   0.0875   0.025
0.4375   0.0875   0.025
0.4625   0.0875   0.025
0.4875   0.0875   0.025
0.5125   0.0875   0.025
0.5375   0.0875   0.025
0.5625   0.0875   0.025
0.5875   0.0875   0.025
0.6125   0.0875   0.025
0.6375   0.0875   0.025
0.6625   0.0875   0.025
0.6875   0.0875   0.025
0.7125   0.0875   0.025
0.7375   0.0875   0.025
0.7625   0.0875   0.025
0.7875   0.0875   0.025
0.8125   0.0875   0.025
0.8375   0.0875   0.025
0.8625   0.0875   0.025
0.8875   0.0875   0.025
0.9125   0.0875   0.025
0.9375   0.0875   0.025
0.9625   0.0875   0.025
0.9875   0.0875   0.025
0.0125   0.1125   0.025
0.0375   0.1125   0.025
0.0625   0.1125   0.025
0.0875   0.1125   0.025
0.1125   0.1125   0.025
0.1375   0.1125   0.025
0.1625   0.1125   0.025
0.1875   0.1125   0.025
0.2125   0.1125   0.025
0.2375   0.1125   0.025
0.2625   0.1125   0.025
0.2875   0.1125   0.025
0.3125   0.1125   0.025
0.3375   0.1125   0.025
0.3625   0.1125   0.025
0.3875   0.1125   0.025
0.4125   0.1125   0.025
0.4375   0.1125   0.025
0.4625   0.1125   0.025
0.4875   0.1125   0.025
0.5125   0.1125   0.025
0.5375   0.1125   0.025
0.5625   0.1125   0.025
0.5875   0.1125   0.025
0.6125   0.1125   0.025
0.6375   0.1125   0.025
0.6625   0.1125   0.025
0.6875   0.1125   0.025
0.7125   0.1125   0.025
0.7375   0.1125   0.025
0.7625   0.1125   0.025
0.7875   0.1125   0.025
0.8125   0.1125   0.025
0.8375   0.1125   0.025
0.8625   0.1125   0.025
0.8875   0.1125   0.025
0.9125   0.1125   0.025
0.9375   0.1125   0.025
0.9625   0.1125   0.025
0.9875   0.1125   0.025
0.0125   0.1375   0.025
0.0375   0.1375   0.025
0.0625   0.1375   0.025
0.0875   0.1375   0.025
0.1125   0.1375   0.025
0.1375   0.1375   0.025
0.1625   0.1375   0.025
0.1875   0.1375   0.025
0.2125   0.1375   0.025
0.2375   0.1375   0.025
0.2625   0.1375   0.025
0.2875   0.1375   0.025
0.3125   0.1375   0.025
0.3375   0.1375   0.025
0.3625   0.1375   0.025
0.3875   0.1375   0.025
0.4125   0.1375   0.025
0.4375   0.1375   0.025
0.4625   0.1375   0.025
0.4875   0.1375   0.025
0.5125   0.1375   0.025
0.5375   0.1375   0.025
0.5625   0.1375   0.025
0.5875   0.1375   0.025
0.6125   0.1375   0.025
0.6375   0.1375   0.025
0.6625   0.1375   0.025
0.6875   0.1375   0.025
0.7125   0.1375   0.025
0.7375   0.1375   0.025
0.7625   0.1375   0.025
0.7875   0.1375   0.025
0.8125   0.1375   0.025
0.8375   0.1375   0.025
0.8625   0.1375   0.025
0.8875   0.1375   0.025
0.9125   0.1375   0.025
0.9375   0.1375   0.025
0.9625   0.1375   0.025
0.9875   0.1375   0.025
0.0125   0.1625   0.025
0.0375   0.1625   0.025
0.0625   0.1625   0.025
0.0875   0.1625   0.025
0.1125   0.1625   0.025
0.1375   0.1625   0.025
0.1625   0.1625   0.025
0.1875   0.1625   0.025
0.2125   0.1625   0.025
0.2375   0.1625   0.025
0.2625   0.1625   0.025
0.2875   0.1625   0.025
0.3125   0.1625   0.025
0.3375   0.1625   0.025
0.3625   0.1625   0.025
0.3875   0.1625   0.025
0.4125   0.1625   0.025
0.4375   0.1625   0.025
0.4625   0.1625   0.025
0.4875   0.1625   0.025
0.5125   0.1625   0.025
0.5375   0.1625   0.025
0.5625   0.1625   0.025
0.5875   0.1625   0.025
0.6125   0.1625   0.025
0.6375   0.1625   0.025
0.6625   0.1625   0.025
0.6875   0.1625   0.025
0.7125   0.1625   0.025
0.7375   0.1625   0.025
0.7625   0.1625   0.025
0.7875   0.1625   0.025
0.8125   0.1625   0.025
0.8375   0.1625   0.025
0.8625   0.1625   0.025
0.8875   0.1625   0.025
0.9125   0.1625   0.025
0.9375   0.1625   0.025
0.9625   0.1625   0.025
0.9875   0.1625   0.025
0.0125   0.1875   0.025
0.0375   0.1875   0.025
0.0625   0.1875   0.025
0.0875   0.1875   0.025
0.1125   0.1875   0.025
0.1375   0.1875   0.025
0.1625   0.1875   0.025
0.1875   0.1875   0.025
0.2125   0.1875   0.025
0.2375   0.1875   0.025
0.2625   0.1875   0.025
0.2875   0.1875   0.025
0.3125   0.1875   0.025
0.3375   0.1875   0.025
0.3625   0.1875   0.025
0.3875   0.1875   0.025
0.4125   0.1875   0.025
0.4375   0.1875   0.025
0.4625   0.1875   0.025
0.4875   0.1875   0.025
0.5125   0.1875   0.025
0.5375   0.1875   0.025
0.5625   0.1875   0.025
0.5875   0.1875   0.025
0.6125   0.1875   0.025
0.6375   0.1875   0.025
0.6625   0.1875   0.025
0.6875   0.1875   0.025
0.7125   0.1875   0.025
0.7375   0.1875   0.025
0.7625   0.1875   0.025
0.7875   0.1875   0.025
0.8125   0.1875   0.025
0.8375   0.1875   0.025
0.8625   0.1875   0.025
0.8875   0.1875   0.025
0.9125   0.1875   0.025
0.9375   0.1875   0.025
0.9625   0.1875   0.025
0.9875   0.1875   0.025
0.0125   0.2125   0.025
0.0375   0.2125   0.025
0.0625   0.2125   0.025
0.0875   0.2125   0.025
0.1125   0.2125   0.025
0.1375   0.2125   0.025
0.1625   0.2125   0.025
0.1875   0.2125   0.025
0.2125   0.2125   0.025
0.2375   0.2125   0.025
0.2625   0.2125   0.025
0.2875   0.2125   0.025
0.3125   0.2125   0.025
0.3375   0.2125   0.025
0.3625   0.2125   0.025
0.3875   0.2125   0.025
0.4125   0.2125   0.025
0.4375   0.2125   0.025
0.4625   0.2125   0.025
0.4875   0.2125   0.025
0.5125   0.2125   0.025
0.5375   0.2125   0.025
0.5625   0.2125   0.025
0.5875   0.2125   0.025
0.6125   0.2125   0.025
0.6375   0.2125   0.025
0.6625   0.2125   0.025
0.6875   0.2125   0.025
0.7125   0.2125   0.025
0.7375   0.2125   0.025
0.7625   0.2125   0.025
0.7875   0.2125   0.025
0.8125   0.2125   0.025
0.8375   0.2125   0.025
0.8625   0.2125   0.025
0.8875   0.2125   0.025
0.9125   0.2125   0.025
0.9375   0.2125   0.025
0.9625   0.2125   0.025
0.9875   0.2125   0.025
0.0125   0.2375   0.025
0.0375   0.2375   0.025
0.0625   0.2375   0.025
0.0875   0.2375   0.025
0.1125   0.2375   0.025
0.1375   0.2375   0.025
0.1625   0.2375   0.025
0.1875   0.2375   0.025
0.2125   0.2375   0.025
0.2375   0.2375   0.025
0.2625   0.2375   0.025
0.2875   0.2375   0.025
0.3125   0.2375   0.025
0.3375   0.2375   0.025
0.3625   0.2375   0.025
0.3875   0.2375   0.025
0.4125   0.2375   0.025
0.4375   0.2375   0.025
0.4625   0.2375   0.025
0.4875   0.2375   0.025
0.5125   0.2375   0.025
0.5375   0.2375   0.025
0.5625   0.2375   0.025
0.5875   0.2375   0.025
0.6125   0.2375   0.025
0.6375   0.2375   0.025
0.6625   0.2375   0.025
0.6875   0.2375   0.025
0.7125   0.2375   0.025
0.7375   0.2375   0.025
0.7625   0.2375   0.025
0.7875   0.2375   0.025
0.8125   0.2375   0.025
0.8375   0.2375   0.025
0.8625   0.2375   0.025
0.8875   0.2375   0.025
0.9125   0.2375   0.025
0.9375   0.2375   0.025
0.9625   0.2375   0.025
0.9875   0.2375   0.025
0.0125   0.2625   0.025
0.0375   0.2625   0.025
0.0625   0.2625   0.025
0.0875   0.2625   0.025
0.1125   0.2625   0.025
0.1375   0.2625   0.025
0.1625   0.2625   0.025
0.1875   0.2625   0.025
0.2125   0.2625   0.025
0.2375   0.2625   0.025
0.2625   0.2625   0.025
[...]
POINT_DATA   32000
SCALARS Presion double
LOOKUP_TABLE   Presion

0 0 0 0 0 0 0 0 0 0 0 0 0 0 0 0 0 0 0 0 0 0 0 0 0 0 0 0 0 0 0 0 0 0 0 0 0 0 0 0 -0.00215725 -0.00253514 -0.00316715 -0.00388054 -0.00459951 -0.00527656 -0.00587731 -0.00637642 -0.00675568 -0.00700256 -0.00710905 -0.00707096 -0.00688692 -0.00655836 -0.00608931 -0.0054865 -0.0047595 -0.00392087 -0.00298626 -0.00197435 -0.000906561 0.000192948 0.00129841 0.00238282 0.00341885 0.00437978 0.00524047 0.00597832 0.0065742 0.00701328 0.00728583 0.00738778 0.00732123 0.00709453 0.00672206 0.00622352 0.00562309 0.00495114 0.0042623 0.00374465 -0.00239368 -0.00259702 -0.00307837 -0.00369181 -0.00434734 -0.00498623 -0.005568 -0.00606404 -0.0064541 -0.00672419 -0.00686494 -0.00687099 -0.00673972 -0.00647128 -0.00606834 -0.00553609 -0.0048824 -0.00411789 -0.00325606 -0.00231329 -0.0013085 -0.000263503 0.000798301 0.00185195 0.00287176 0.00383213 0.00470845 0.00547797 0.00612079 0.00662079 0.00696652 0.0071519 0.00717713 0.00704918 0.00678235 0.00639915 0.00593252 0.00543251 0.00498712 0.00478067 -0.00214138 -0.00240078 -0.00286744 -0.00345195 -0.00408242 -0.00470552 -0.00528252 -0.00578547 -0.00619434 -0.00649494 -0.00667733 -0.00673533 -0.00666511 -0.00646532 -0.00613684 -0.00568283 -0.00510885 -0.00442303 -0.00363621 -0.00276205 -0.00181677 -0.000819788 0.000207637 0.00124217 0.00225914 0.00323328 0.00413955 0.00495415 0.00565549 0.0062253 0.00664975 0.0069203 0.00703492 0.00699884 0.00682548 0.00653776 0.00617036 0.00577495 0.00543134 0.00526667 -0.00162082 -0.00201694 -0.00254851 -0.00316185 -0.0038061 -0.00443949 -0.00502979 -0.0055529 -0.005991 -0.00633099 -0.00656313 -0.00668082 -0.00667914 -0.00655514 -0.0063077 -0.0059376 -0.00544771 -0.0048433 -0.00413221 -0.00332514 -0.00243551 -0.00148039 -0.00047906 0.000546446 0.001572 0.00257207 0.00352056 0.00439184 0.00516189 0.00580957 0.00631796 0.00667536 0.00687684 0.00692509 0.00683141 0.00661686 0.0063138 0.00596867 0.00564635 0.00543378 -0.000971665 -0.00152734 -0.00216299 -0.00284286 -0.00353173 -0.00419928 -0.00482125 -0.0053789 -0.00585785 -0.00624705 -0.00653753 -0.00672266 -0.00679656 -0.00675473 -0.00659392 -0.00631235 -0.00591001 -0.00538904 -0.00475413 -0.00401287 -0.00317579 -0.0022576 -0.0012757 -0.000251022 0.000792585 0.00182895 0.00283045 0.00376907 0.00461773 0.00535171 0.00595022 0.00639761 0.0066852 0.00681219 0.00678672 0.00662675 0.00636092 0.00602971 0.00568647 0.00539636 -0.000288163 -0.0010041 -0.00175958 -0.00252709 -0.00328162 -0.00400216 -0.00467192 -0.00527772 -0.00580912 -0.00625748 -0.006615 -0.00687525 -0.00703157 -0.00707795 -0.00700901 -0.00682036 -0.00650898 -0.0060738 -0.00551619 -0.00484054 -0.00405438 -0.00316998 -0.00220283 -0.00117277 -0.000103469 0.000978096 0.00204247 0.00305887 0.00399657 0.00482656 0.00552341 0.00606655 0.00644262 0.00664638 0.00668199 0.00656373 0.0063165 0.00597614 0.00558921 0.00521094 0.000360814 -0.000507726 -0.00138613 -0.00225082 -0.00308346 -0.00387012 -0.0046003 -0.00526592 -0.00586029 -0.00637722 -0.00681021 -0.0071531 -0.00739859 -0.00753924 -0.0075676 -0.00747663 -0.00726031 -0.00691426 -0.00643646 -0.00582792 -0.00509304 -0.00424147 -0.00328658 -0.00224698 -0.00114604 -1.1561e-05 0.00112507 0.00222996 0.00326828 0.00420601 0.00501217 0.00566027 0.00613118 0.00641426 0.00650889 0.0064253 0.00618507 0.00582104 0.00537675 0.00490456 0.000921124 -8.92291e-05 -0.00108696 -0.0020509 -0.00296747 -0.00382818 -0.0046277 -0.00536227 -0.00602847 -0.00662237 -0.00713865 -0.00757147 -0.0079129 -0.00815416 -0.00828577 -0.00829812 -0.00818216 -0.00793017 -0.00753658 -0.00699887 -0.00631804 -0.00550078 -0.00455805 -0.00350687 -0.00237003 -0.00117595 4.20455e-05 0.00124679 0.00239888 0.00345858 0.00438837 0.0051547 0.00573144 0.00610137 0.0062582 0.00620773 0.00596847 0.00557159 0.00506032 0.00448836 0.00134771 0.000207469 -0.000902432 -0.00196296 -0.00296448 -0.00390297 -0.00477731 -0.00558732 -0.00633234 -0.00701033 -0.007617 -0.00814669 -0.00859091 -0.00893957 -0.00918124 -0.00930378 -0.00929511 -0.00914408 -0.00884143 -0.00838084 -0.00775955 -0.00698087 -0.00605282 -0.00499029 -0.00381505 -0.00255575 -0.00124747 6.92886e-05 0.00135012 0.00254888 0.00362043 0.00452284 0.0052215 0.00569122 0.00591886 0.00590511 0.0056654 0.00523009 0.00464389 0.00396446 0.0016015 0.00034379 -0.000869117 -0.00202062 -0.0031048 -0.00412153 -0.00507328 -0.00596283 -0.00679181 -0.00755971 -0.00826302 -0.00889622 -0.00945021 -0.00991365 -0.0102732 -0.0105143 -0.0106217 -0.0105808 -0.0103785 -0.0100042 -0.00945099 -0.00871821 -0.00781025 -0.0067392 -0.00552508 -0.00419621 -0.00278905 -0.00134739 7.90941e-05 0.00143708 0.00267269 0.00373405 0.00457638 0.00516471 0.00547753 0.0055093 0.00527196 0.00479541 0.00412695 0.00332991 0.00164778 0.000285341 -0.00102021 -0.0022552 -0.00341744 -0.00451046 -0.00553988 -0.00651105 -0.00742744 -0.0082898 -0.00909522 -0.00983823 -0.0105091 -0.0110953 -0.0115818 -0.0119513 -0.0121857 -0.0122666 -0.0121767 -0.0119011 -0.0114278 -0.0107517 -0.0098725 -0.00879871 -0.00754768 -0.00614659 -0.00463267 -0.00305274 -0.00146192 7.86076e-05 0.00150498 0.00275369 0.00376766 0.00449996 0.00491864 0.0050103 0.00478249 0.00426447 0.00350672 0.00257935 0.00145531 1.26215e-06 -0.00138577 -0.00269553 -0.00392966 -0.00509524 -0.00620082 -0.00725395 -0.00825974 -0.00921994 -0.0101322 -0.0109909 -0.011786 -0.0125036 -0.0131269 -0.0136363 -0.0140106 -0.0142275 -0.0142652 -0.0141038 -0.0137259 -0.0131208 -0.0122828 -0.0112155 -0.00993256 -0.00845892 -0.00683171 -0.00510024 -0.00332504 -0.00157571 7.2626e-05 0.00154293 0.00276337 0.00367231 0.00422465 0.00439688 0.00419056 0.00363366 0.00277997 0.00170704 0.00099605 -0.000536064 -0.00199283 -0.0033678 -0.00466658 -0.0058997 -0.00707846 -0.00821246 -0.00930828 -0.0103686 -0.0113915 -0.0123715 -0.0132979 -0.0141559 -0.014927 -0.0155892 -0.0161181 -0.0164875 -0.0166708 -0.0166424 -0.016379 -0.0158631 -0.0150828 -0.0140353 -0.0127292 -0.0111858 -0.00944104 -0.00754576 -0.00556554 -0.00357877 -0.00167298 5.91711e-05 0.0015283 0.00265468 0.00337662 0.00365737 0.00349017 0.00290041 0.00194485 0.000708877 0.000245145 -0.00135103 -0.00286536 -0.00429543 -0.00565081 -0.00694541 -0.00819315 -0.00940561 -0.0105908 -0.0117522 -0.0128887 -0.0139947 -0.0150592 -0.0160667 -0.016997 -0.0178259 -0.0185257 -0.0190661 -0.0194153 -0.0195419 -0.0194154 -0.0190111 -0.0183091 -0.0172992 -0.0159831 -0.0143771 -0.0125139 -0.0104447 -0.0082395 -0.00598528 -0.00378298 -0.00174292 2.47685e-05 0.0014183 0.00235499 0.0027807 0.00267705 0.00206475 0.00100276 -0.000415699 -0.000818762 -0.00246463 -0.00402409 -0.00549877 -0.00690209 -0.00825117 -0.0095625 -0.0108496 -0.0121219 -0.0133841 -0.0146356 -0.0158713 -0.01708 -0.0182455 -0.0193463 -0.020356 -0.0212437 -0.0219748 -0.0225123 -0.022818 -0.0228541 -0.0225873 -0.0219887 -0.021039 -0.0197314 -0.0180747 -0.016097 -0.0138478 -0.0113999 -0.00884853 -0.00630839 -0.00390941 -0.00178579 -6.6008e-05 0.00114082 0.00175777 0.00175027 0.00113126 -3.95455e-05 -0.00166141 -0.00221316 -0.0038942 -0.0054863 -0.00699488 -0.0084369 -0.0098325 -0.0112006 -0.0125569 -0.0139123 -0.0152728 -0.016639 -0.0180062 -0.0193636 -0.0206944 -0.0219761 -0.02318 -0.0242724 -0.0252143 -0.0259631 -0.0264738 -0.0267002 -0.0265998 -0.0261335 -0.0252713 -0.0239959 -0.0223068 -0.0202246 -0.0177949 -0.0150912 -0.0122154 -0.00929599 -0.00648373 -0.00394023 -0.00182579 -0.000282426 0.000583226 0.000714194 0.000111241 -0.00116751 -0.00301457 -0.0039512 -0.00565314 -0.00726562 -0.0087973 -0.0102682 -0.0117011 -0.0131175 -0.0145352 -0.0159672 -0.0174211 -0.0188988 -0.0203969 -0.0219048 -0.0234059 -0.0248767 -0.0262867 -0.0275991 -0.0287708 -0.0297534 -0.0304948 -0.0309402 -0.0310369 -0.0307346 -0.0299913 -0.0287772 -0.0270802 -0.0249107 -0.0223075 -0.0193417 -0.0161197 -0.0127823 -0.00950172 -0.00646974 -0.00388379 -0.00192626 -0.000742148 -0.000419012 -0.000974569 -0.00235585 -0.00444997 -0.00604131 -0.00775066 -0.00937189 -0.0109159 -0.012405 -0.0138645 -0.0153183 -0.0167868 -0.0182854 -0.0198241 -0.0214067 -0.0230312 -0.0246881 -0.026361 -0.0280257 -0.0296504 -0.0311952 -0.032613 -0.0338497 -0.0348457 -0.0355377 -0.0358621 -0.0357568 -0.0351663 -0.0340469 -0.0323724 -0.0301405 -0.0273795 -0.0241547 -0.0205732 -0.0167856 -0.0129847 -0.00939409 -0.00625339 -0.00379353 -0.00220824 -0.00162633 -0.00209275 -0.00356502 -0.0059272 -0.00848687 -0.0101917 -0.0118112 -0.0133569 -0.0148525 -0.0163256 -0.0178028 -0.0193076 -0.0208585 -0.0224687 -0.0241446 -0.0258863 -0.0276858 -0.0295273 -0.0313863 -0.0332296 -0.0350147 -0.0366904 -0.0381971 -0.039468 -0.0404307 -0.0410111 -0.0411342 -0.0407308 -0.0397419 -0.0381251 -0.0358626 -0.0329688 -0.0294988 -0.025556 -0.0212965 -0.0169306 -0.0127141 -0.00893241 -0.00587339 -0.00379138 -0.00286997 -0.00319322 -0.00473706 -0.00738622 -0.0112862 -0.0129772 -0.014586 -0.016123 -0.0176122 -0.0190829 -0.0205651 -0.0220864 -0.0236697 -0.0253321 -0.0270838 -0.0289276 -0.0308573 -0.0328583 -0.034906 -0.0369659 -0.0389931 -0.0409324 -0.0427189 -0.0442788 -0.0455307 -0.0463899 -0.0467689 -0.0465841 -0.0457605 -0.0442384 -0.041982 -0.0389885 -0.0352985 -0.0310059 -0.0262666 -0.0213036 -0.016402 -0.011895 -0.0081347 -0.00544894 -0.00409247 -0.00420442 -0.00579057 -0.00874212 -0.0144327 -0.0161043 -0.0176961 -0.0192145 -0.020682 -0.0221302 -0.0235934 -0.0251048 -0.0266933 -0.0283815 -0.0301842 -0.0321078 -0.0341487 -0.0362933 -0.0385172 -0.0407848 -0.0430487 -0.0452499 -0.0473181 -0.0491727 -0.050724 -0.0518768 -0.0525314 -0.0525903 -0.0519621 -0.0505694 -0.0483569 -0.0453021 -0.0414265 -0.0368091 -0.0315983 -0.0260226 -0.0203906 -0.015082 -0.0105178 -0.0071124 -0.00521072 -0.00502751 -0.00661472 -0.009879 -0.0179156 -0.0195679 -0.0211396 -0.0226292 -0.0240571 -0.0254572 -0.0268701 -0.0283369 -0.0298948 -0.0315738 -0.0333946 -0.0353681 -0.0374934 -0.0397585 -0.042139 -0.0445978 -0.047085 -0.0495378 -0.0518806 -0.0540261 -0.0558766 -0.0573271 -0.0582663 -0.0585833 -0.0581714 -0.0569353 -0.0548003 -0.0517222 -0.0477005 -0.0427939 -0.0371357 -0.0309505 -0.0245617 -0.0183891 -0.0129243 -0.00867897 -0.00610864 -0.0055295 -0.00706232 -0.0106427 -0.0217212 -0.0233617 -0.0249143 -0.0263652 -0.0277311 -0.0290499 -0.0303716 -0.0317489 -0.0332303 -0.0348555 -0.0366529 -0.0386383 -0.0408141 -0.0431695 -0.0456798 -0.0483061 -0.0509955 -0.053681 -0.0562818 -0.0587039 -0.0608418 -0.0625813 -0.0638006 -0.0643762 -0.0641872 -0.063122 -0.0610868 -0.058016 -0.0538855 -0.0487296 -0.0426595 -0.035886 -0.0287349 -0.021656 -0.0152063 -0.0100016 -0.00662847 -0.00553505 -0.0069415 -0.0108327 -0.0258348 -0.0274811 -0.0290206 -0.0304218 -0.0316968 -0.0328911 -0.034069 -0.0352998 -0.0366474 -0.0381641 -0.0398876 -0.0418394 -0.0440251 -0.0464345 -0.0490417 -0.0518055 -0.0546691 -0.0575608 -0.0603939 -0.0630679 -0.0654696 -0.067476 -0.0689554 -0.0697732 -0.0697958 -0.0688969 -0.0669656 -0.0639166 -0.0597025 -0.0543316 -0.0478881 -0.0405593 -0.03266 -0.0246544 -0.0171538 -0.0108776 -0.00656059 -0.00481691 -0.00600606 -0.0101917 -0.030244 -0.0319269 -0.0334652 -0.0348027 -0.0359485 -0.0369615 -0.037928 -0.0389409 -0.040085 -0.0414284 -0.0430197 -0.0448863 -0.0470362 -0.0494589 -0.0521263 -0.0549931 -0.0579979 -0.061063 -0.0640954 -0.0669874 -0.0696181 -0.0718557 -0.0735596 -0.0745848 -0.0747865 -0.0740261 -0.0721781 -0.0691402 -0.0648446 -0.0592747 -0.0524859 -0.0446351 -0.0360132 -0.0270805 -0.0184839 -0.0110365 -0.00563178 -0.00308451 -0.0039438 -0.00839481 -0.0349433 -0.0367112 -0.0382657 -0.0395197 -0.0404834 -0.0412398 -0.0419087 -0.0426164 -0.0434746 -0.0445708 -0.0459653 -0.0476912 -0.0497573 -0.0521512 -0.0548404 -0.057774 -0.0608842 -0.0640863 -0.0672795 -0.0703484 -0.0731639 -0.0755853 -0.0774628 -0.0786423 -0.0789688 -0.0782929 -0.0764777 -0.0734073 -0.0689981 -0.0632125 -0.0560794 -0.0477232 -0.038401 -0.0285507 -0.0188306 -0.0101275 -0.00349189 2.94513e-05 -0.000362305 -0.00503417 -0.0399422 -0.0418657 -0.0434584 -0.0445967 -0.0453036 -0.0457034 -0.0459662 -0.0462635 -0.0467414 -0.0475094 -0.0486394 -0.0501685 -0.0521041 -0.0544287 -0.0571031 -0.0600687 -0.0632488 -0.0665501 -0.069863 -0.073063 -0.0760119 -0.0785597 -0.0805473 -0.0818111 -0.0821865 -0.0815148 -0.0796496 -0.0764653 -0.071867 -0.0658029 -0.0582815 -0.0493979 -0.0393722 -0.0286049 -0.0177399 -0.00770739 0.00030115 0.00498554 0.00522929 0.000399303 -0.0452778 -0.0474562 -0.0491086 -0.0500767 -0.0504186 -0.0503283 -0.0500494 -0.0498131 -0.0498061 -0.0501614 -0.0509604 -0.0522405 -0.0540039 -0.0562244 -0.0588527 -0.0618192 -0.0650367 -0.0684009 -0.071792 -0.075075 -0.0781016 -0.0807115 -0.0827355 -0.0839995 -0.0843296 -0.0835573 -0.0815281 -0.0781089 -0.073198 -0.0667363 -0.0587208 -0.0492264 -0.0384403 -0.0267196 -0.0146705 -0.003231 0.00629807 0.0123584 0.0134449 0.00854247 -0.0510367 -0.0536039 -0.0553267 -0.0560288 -0.0558473 -0.0550894 -0.0541019 -0.053191 -0.0525884 -0.0524481 -0.052856 -0.0538439 -0.0554029 -0.0574935 -0.0600521 -0.0629954 -0.0662226 -0.069617 -0.0730463 -0.0763641 -0.0794107 -0.082014 -0.0839934 -0.0851638 -0.0853397 -0.0843426 -0.0820084 -0.0781972 -0.072803 -0.0657642 -0.0570759 -0.0468047 -0.0351175 -0.022332 -0.00900445 0.00395376 0.0151766 0.0228641 0.0250564 0.0201997 -0.0573934 -0.0605218 -0.0622916 -0.0625595 -0.0616208 -0.0599598 -0.058062 -0.0563209 -0.0550117 -0.0543012 -0.0542704 -0.0549364 -0.0562722 -0.0582188 -0.0606942 -0.0635979 -0.0668133 -0.0702091 -0.0736396 -0.0769451 -0.0799534 -0.0824796 -0.0843304 -0.0853074 -0.085212 -0.0838529 -0.0810543 -0.0766669 -0.070579 -0.062728 -0.0531125 -0.041803 -0.0289618 -0.014883 -7.4655e-05 0.0146012 0.0277603 0.0373981 0.0410479 0.0364073 -0.064679 -0.0685746 -0.0702852 -0.0698252 -0.0677844 -0.0649111 -0.0618649 -0.059129 -0.0570095 -0.05567 -0.0551713 -0.0555038 -0.0566129 -0.0584143 -0.060803 -0.0636584 -0.0668459 -0.0702185 -0.0736155 -0.0768634 -0.0797764 -0.0821557 -0.0837937 -0.0844773 -0.0839922 -0.082131 -0.0787022 -0.0735416 -0.0665263 -0.0575878 -0.0467262 -0.0340204 -0.0196423 -0.00388224 0.0127824 0.029543 0.045032 0.057087 0.0627001 0.0585458 -0.0735107 -0.0783795 -0.079743 -0.0780464 -0.0743972 -0.0699117 -0.0654441 -0.0615484 -0.058532 -0.0565276 -0.0555544 -0.0555612 -0.0564562 -0.0581232 -0.0604304 -0.0632346 -0.0663823 -0.0697095 -0.0730405 -0.0761875 -0.0789505 -0.0811163 -0.0824622 -0.0827587 -0.0817738 -0.0792802 -0.0750652 -0.0689427 -0.060768 -0.0504544 -0.0379908 -0.0234551 -0.00702846 0.0109893 0.0301299 0.049623 0.0681282 0.0833563 0.0917299 0.0885431 -0.0850396 -0.0909744 -0.0913168 -0.0875136 -0.0815212 -0.0749175 -0.0687271 -0.0635175 -0.0595436 -0.0568668 -0.0554378 -0.0551466 -0.0558543 -0.057407 -0.0596437 -0.0623976 -0.0654956 -0.0687571 -0.0719917 -0.0749975 -0.077561 -0.0794546 -0.0804404 -0.0802718 -0.0786972 -0.0754668 -0.0703414 -0.0631038 -0.0535743 -0.0416286 -0.0272185 -0.0103918 0.00868843 0.0297275 0.0522636 0.0755526 0.0982735 0.118001 0.130515 0.129252 -0.101453 -0.10809 -0.105934 -0.0985567 -0.0891769 -0.0798337 -0.0716035 -0.064952 -0.0599972 -0.0566754 -0.0548365 -0.0542944 -0.0548542 -0.0563208 -0.0585027 -0.0612097 -0.0642504 -0.067429 -0.0705415 -0.0733735 -0.075699 -0.0772775 -0.0778567 -0.0771735 -0.0749566 -0.0709319 -0.0648294 -0.0563933 -0.0453943 -0.0316466 -0.0150286 0.00449389 0.0268397 0.0517872 0.0789391 0.107622 0.136568 0.163196 0.182441 0.185157 -0.127048 -0.132551 -0.124766 -0.1114 -0.0971969 -0.0843888 -0.0738205 -0.065657 -0.059759 -0.0558697 -0.0537039 -0.0529834 -0.0534515 -0.0548712 -0.0570219 -0.0596926 -0.0626764 -0.0657645 -0.0687422 -0.0713849 -0.0734568 -0.0747064 -0.0748697 -0.0736691 -0.0708152 -0.0660102 -0.0589524 -0.049342 -0.0368892 -0.0213244 -0.00241248 0.0200294 0.0461042 0.0758034 0.108964 0.145175 0.183457 0.22125 0.25234 0.263662 -0.170678 -0.16868 -0.148848 -0.12568 -0.104801 -0.0877975 -0.0747268 -0.0651356 -0.0584619 -0.0541796 -0.0518377 -0.0510582 -0.0515239 -0.0529609 -0.0551253 -0.0577909 -0.0607397 -0.0637547 -0.0666141 -0.0690869 -0.0709307 -0.0718871 -0.0716835 -0.0700318 -0.0666283 -0.0611553 -0.053282 -0.0426657 -0.0289527 -0.0117776 0.0092377 0.0344859 0.0643716 0.099302 0.139663 0.185762 0.237586 0.293584 0.346753 0.37745 -0.251603 -0.221922 -0.177511 -0.13897 -0.109504 -0.0880514 -0.0728373 -0.0623164 -0.0553243 -0.0510167 -0.0487784 -0.0481478 -0.0487654 -0.0503363 -0.0526059 -0.0553422 -0.0583241 -0.0613326 -0.064144 -0.0665259 -0.0682335 -0.0690061 -0.0685675 -0.0666241 -0.0628636 -0.056955 -0.048546 -0.0372599 -0.0226878 -0.00437632 0.0181951 0.0456497 0.0787661 0.118555 0.166357 0.223961 0.293708 0.377836 0.472653 0.549144 -0.412577 -0.29399 -0.202275 -0.142676 -0.105073 -0.0810658 -0.0655038 -0.0554193 -0.049079 -0.0454237 -0.0437662 -0.0436296 -0.0446584 -0.046568 -0.049114 -0.0520739 -0.0552342 -0.0583819 -0.0612983 -0.063755 -0.0655104 -0.0663065 -0.0658685 -0.063903 -0.0600966 -0.0541134 -0.0455914 -0.0341359 -0.0193064 -0.000594261 0.0226172 0.0511215 0.0860096 0.128884 0.182235 0.250113 0.339297 0.461078 0.62931 0.822334 -0.752156 -0.344647 -0.185692 -0.116085 -0.081013 -0.0613162 -0.0495243 -0.0423618 -0.0382235 -0.0362319 -0.0358507 -0.036714 -0.0385447 -0.0411132 -0.0442143 -0.0476538 -0.0512389 -0.0547729 -0.0580498 -0.0608514 -0.0629449 -0.0640802 -0.0639888 -0.0623834 -0.0589559 -0.0533749 -0.0452824 -0.0342866 -0.0199485 -0.00175861 0.0209054 0.0488549 0.0832318 0.125792 0.179516 0.250044 0.349334 0.504527 0.773828 1.27344 0 0 0 0 0 0 0 0 0 0 0 0 0 0 0 0 0 0 0 0 0 0 0 0 0 0 0 0 0 0 0 0 0 0 0 0 0 0 0 0 -0.00218539 -0.00255226 -0.00307724 -0.003618 -0.00412553 -0.00457343 -0.00494333 -0.00522172 -0.00539898 -0.00546883 -0.00542776 -0.00527472 -0.00501081 -0.0046393 -0.00416556 -0.00359728 -0.00294449 -0.0022197 -0.00143787 -0.000616223 0.000226008 0.00106809 0.00188841 0.00266518 0.00337729 0.00400516 0.00453159 0.00494257 0.00522798 0.00538219 0.00540443 0.00529907 0.00507559 0.00474832 0.00433589 0.00386048 0.00334719 0.00282574 0.00234398 0.00203748 -0.00254447 -0.00272734 -0.00308962 -0.00351086 -0.0039276 -0.00430389 -0.00461726 -0.00485276 -0.00500032 -0.00505337 -0.00500811 -0.00486297 -0.00461848 -0.00427714 -0.00384349 -0.0033242 -0.00272819 -0.00206669 -0.00135321 -0.000603444 0.000165065 0.000933322 0.00168147 0.00238945 0.00303778 0.00360843 0.00408561 0.00445657 0.00471237 0.00484837 0.00486471 0.00476648 0.00456379 0.00427158 0.0039095 0.00350196 0.00307944 0.00268304 0.00237725 0.00227886 -0.00251917 -0.00272309 -0.00304169 -0.0034061 -0.00376799 -0.00409578 -0.00436891 -0.00457372 -0.00470112 -0.0047451 -0.00470202 -0.00457006 -0.00434914 -0.00404085 -0.00364856 -0.00317758 -0.00263529 -0.00203129 -0.00137741 -0.000687626 2.20902e-05 0.000734184 0.00143003 0.00209051 0.00269685 0.00323143 0.00367868 0.00402598 0.00426447 0.00438967 0.004402 0.00430699 0.00411536 0.00384283 0.00350995 0.00314225 0.00277112 0.00243626 0.00219022 0.00210164 -0.00231098 -0.0026053 -0.00294751 -0.00330367 -0.00364416 -0.00394713 -0.00419755 -0.00438524 -0.00450331 -0.00454709 -0.0045135 -0.00440068 -0.00420793 -0.00393583 -0.00358635 -0.00316317 -0.00267187 -0.00212016 -0.00151799 -0.000877632 -0.000213552 0.000457854 0.00111873 0.00175031 0.00233369 0.00285081 0.00328537 0.0036239 0.00385672 0.00397874 0.00399001 0.00389608 0.00370801 0.003442 0.00311908 0.00276464 0.00240827 0.00208383 0.00182901 0.00168145 -0.00203879 -0.00244373 -0.00284251 -0.00322153 -0.00356624 -0.0038649 -0.00410915 -0.0042933 -0.0044134 -0.00446656 -0.00445053 -0.00436348 -0.00420411 -0.00397187 -0.0036672 -0.00329192 -0.00284961 -0.00234591 -0.0017888 -0.00118877 -0.000558903 8.53733e-05 0.000726629 0.00134593 0.00192369 0.00244061 0.0028789 0.00322337 0.00346267 0.0035903 0.00360529 0.00351261 0.0033232 0.00305344 0.00272438 0.00236079 0.00198995 0.00164029 0.00133925 0.00110912 -0.00177906 -0.00229693 -0.00276642 -0.00318612 -0.00355264 -0.00386303 -0.00411541 -0.00430869 -0.00444202 -0.00451441 -0.00452449 -0.00447048 -0.00435043 -0.00416252 -0.00390551 -0.00357922 -0.00318506 -0.00272642 -0.00220922 -