# vtk DataFile Version 2.0
Presion
ASCII

DATASET STRUCTURED_GRID
DIMENSIONS   40   40   20

POINTS   32000   double
0.0125   0.0125   0.025
0.0375   0.0125   0.025
0.0625   0.0125   0.025
0.0875   0.0125   0.025
0.1125   0.0125   0.025
0.1375   0.0125   0.025
0.1625   0.0125   0.025
0.1875   0.0125   0.025
0.2125   0.0125   0.025
0.2375   0.0125   0.025
0.2625   0.0125   0.025
0.2875   0.0125   0.025
0.3125   0.0125   0.025
0.3375   0.0125   0.025
0.3625   0.0125   0.025
0.3875   0.0125   0.025
0.4125   0.0125   0.025
0.4375   0.0125   0.025
0.4625   0.0125   0.025
0.4875   0.0125   0.025
0.5125   0.0125   0.025
0.5375   0.0125   0.025
0.5625   0.0125   0.025
0.5875   0.0125   0.025
0.6125   0.0125   0.025
0.6375   0.0125   0.025
0.6625   0.0125   0.025
0.6875   0.0125   0.025
0.7125   0.0125   0.025
0.7375   0.0125   0.025
0.7625   0.0125   0.025
0.7875   0.0125   0.025
0.8125   0.0125   0.025
0.8375   0.0125   0.025
0.8625   0.0125   0.025
0.8875   0.0125   0.025
0.9125   0.0125   0.025
0.9375   0.0125   0.025
0.9625   0.0125   0.025
0.9875   0.0125   0.025
0.0125   0.0375   0.025
0.0375   0.0375   0.025
0.0625   0.0375   0.025
0.0875   0.0375   0.025
0.1125   0.0375   0.025
0.1375   0.0375   0.025
0.1625   0.0375   0.025
0.1875   0.0375   0.025
0.2125   0.0375   0.025
0.2375   0.0375   0.025
0.2625   0.0375   0.025
0.2875   0.0375   0.025
0.3125   0.0375   0.025
0.3375   0.0375   0.025
0.3625   0.0375   0.025
0.3875   0.0375   0.025
0.4125   0.0375   0.025
0.4375   0.0375   0.025
0.4625   0.0375   0.025
0.4875   0.0375   0.025
0.5125   0.0375   0.025
0.5375   0.0375   0.025
0.5625   0.0375   0.025
0.5875   0.0375   0.025
0.6125   0.0375   0.025
0.6375   0.0375   0.025
0.6625   0.0375   0.025
0.6875   0.0375   0.025
0.7125   0.0375   0.025
0.7375   0.0375   0.025
0.7625   0.0375   0.025
0.7875   0.0375   0.025
0.8125   0.0375   0.025
0.8375   0.0375   0.025
0.8625   0.0375   0.025
0.8875   0.0375   0.025
0.9125   0.0375   0.025
0.9375   0.0375   0.025
0.9625   0.0375   0.025
0.9875   0.0375   0.025
0.0125   0.0625   0.025
0.0375   0.0625   0.025
0.0625   0.0625   0.025
0.0875   0.0625   0.025
0.1125   0.0625   0.025
0.1375   0.0625   0.025
0.1625   0.0625   0.025
0.1875   0.0625   0.025
0.2125   0.0625   0.025
0.2375   0.0625   0.025
0.2625   0.0625   0.025
0.2875   0.0625   0.025
0.3125   0.0625   0.025
0.3375   0.0625   0.025
0.3625   0.0625   0.025
0.3875   0.0625   0.025
0.4125   0.0625   0.025
0.4375   0.0625   0.025
0.4625   0.0625   0.025
0.4875   0.0625   0.025
0.5125   0.0625   0.025
0.5375   0.0625   0.025
0.5625   0.0625   0.025
0.5875   0.0625   0.025
0.6125   0.0625   0.025
0.6375   0.0625   0.025
0.6625   0.0625   0.025
0.6875   0.0625   0.025
0.7125   0.0625   0.025
0.7375   0.0625   0.025
0.7625   0.0625   0.025
0.7875   0.0625   0.025
0.8125   0.0625   0.025
0.8375   0.0625   0.025
0.8625   0.0625   0.025
0.8875   0.0625   0.025
0.9125   0.0625   0.025
0.9375   0.0625   0.025
0.9625   0.0625   0.025
0.9875   0.0625   0.025
0.0125   0.0875   0.025
0.0375   0.0875   0.025
0.0625   0.0875   0.025
0.0875   0.0875   0.025
0.1125   0.0875   0.025
0.1375   0.0875   0.025
0.1625   0.0875   0.025
0.1875   0.0875   0.025
0.2125   0.0875   0.025
0.2375   0.0875   0.025
0.2625   0.0875   0.025
0.2875   0.0875   0.025
0.3125   0.0875   0.025
0.3375   0.0875   0.025
0.3625   0.0875   0.025
0.3875   0.0875   0.025
0.4125   0.0875   0.025
0.4375   0.0875   0.025
0.4625   0.0875   0.025
0.4875   0.0875   0.025
0.5125   0.0875   0.025
0.5375   0.0875   0.025
0.5625   0.0875   0.025
0.5875   0.0875   0.025
0.6125   0.0875   0.025
0.6375   0.0875   0.025
0.6625   0.0875   0.025
0.6875   0.0875   0.025
0.7125   0.0875   0.025
0.7375   0.0875   0.025
0.7625   0.0875   0.025
0.7875   0.0875   0.025
0.8125   0.0875   0.025
0.8375   0.0875   0.025
0.8625   0.0875   0.025
0.8875   0.0875   0.025
0.9125   0.0875   0.025
0.9375   0.0875   0.025
0.9625   0.0875   0.025
0.9875   0.0875   0.025
0.0125   0.1125   0.025
0.0375   0.1125   0.025
0.0625   0.1125   0.025
0.0875   0.1125   0.025
0.1125   0.1125   0.025
0.1375   0.1125   0.025
0.1625   0.1125   0.025
0.1875   0.1125   0.025
0.2125   0.1125   0.025
0.2375   0.1125   0.025
0.2625   0.1125   0.025
0.2875   0.1125   0.025
0.3125   0.1125   0.025
0.3375   0.1125   0.025
0.3625   0.1125   0.025
0.3875   0.1125   0.025
0.4125   0.1125   0.025
0.4375   0.1125   0.025
0.4625   0.1125   0.025
0.4875   0.1125   0.025
0.5125   0.1125   0.025
0.5375   0.1125   0.025
0.5625   0.1125   0.025
0.5875   0.1125   0.025
0.6125   0.1125   0.025
0.6375   0.1125   0.025
0.6625   0.1125   0.025
0.6875   0.1125   0.025
0.7125   0.1125   0.025
0.7375   0.1125   0.025
0.7625   0.1125   0.025
0.7875   0.1125   0.025
0.8125   0.1125   0.025
0.8375   0.1125   0.025
0.8625   0.1125   0.025
0.8875   0.1125   0.025
0.9125   0.1125   0.025
0.9375   0.1125   0.025
0.9625   0.1125   0.025
0.9875   0.1125   0.025
0.0125   0.1375   0.025
0.0375   0.1375   0.025
0.0625   0.1375   0.025
0.0875   0.1375   0.025
0.1125   0.1375   0.025
0.1375   0.1375   0.025
0.1625   0.1375   0.025
0.1875   0.1375   0.025
0.2125   0.1375   0.025
0.2375   0.1375   0.025
0.2625   0.1375   0.025
0.2875   0.1375   0.025
0.3125   0.1375   0.025
0.3375   0.1375   0.025
0.3625   0.1375   0.025
0.3875   0.1375   0.025
0.4125   0.1375   0.025
0.4375   0.1375   0.025
0.4625   0.1375   0.025
0.4875   0.1375   0.025
0.5125   0.1375   0.025
0.5375   0.1375   0.025
0.5625   0.1375   0.025
0.5875   0.1375   0.025
0.6125   0.1375   0.025
0.6375   0.1375   0.025
0.6625   0.1375   0.025
0.6875   0.1375   0.025
0.7125   0.1375   0.025
0.7375   0.1375   0.025
0.7625   0.1375   0.025
0.7875   0.1375   0.025
0.8125   0.1375   0.025
0.8375   0.1375   0.025
0.8625   0.1375   0.025
0.8875   0.1375   0.025
0.9125   0.1375   0.025
0.9375   0.1375   0.025
0.9625   0.1375   0.025
0.9875   0.1375   0.025
0.0125   0.1625   0.025
0.0375   0.1625   0.025
0.0625   0.1625   0.025
0.0875   0.1625   0.025
0.1125   0.1625   0.025
0.1375   0.1625   0.025
0.1625   0.1625   0.025
0.1875   0.1625   0.025
0.2125   0.1625   0.025
0.2375   0.1625   0.025
0.2625   0.1625   0.025
0.2875   0.1625   0.025
0.3125   0.1625   0.025
0.3375   0.1625   0.025
0.3625   0.1625   0.025
0.3875   0.1625   0.025
0.4125   0.1625   0.025
0.4375   0.1625   0.025
0.4625   0.1625   0.025
0.4875   0.1625   0.025
0.5125   0.1625   0.025
0.5375   0.1625   0.025
0.5625   0.1625   0.025
0.5875   0.1625   0.025
0.6125   0.1625   0.025
0.6375   0.1625   0.025
0.6625   0.1625   0.025
0.6875   0.1625   0.025
0.7125   0.1625   0.025
0.7375   0.1625   0.025
0.7625   0.1625   0.025
0.7875   0.1625   0.025
0.8125   0.1625   0.025
0.8375   0.1625   0.025
0.8625   0.1625   0.025
0.8875   0.1625   0.025
0.9125   0.1625   0.025
0.9375   0.1625   0.025
0.9625   0.1625   0.025
0.9875   0.1625   0.025
0.0125   0.1875   0.025
0.0375   0.1875   0.025
0.0625   0.1875   0.025
0.0875   0.1875   0.025
0.1125   0.1875   0.025
0.1375   0.1875   0.025
0.1625   0.1875   0.025
0.1875   0.1875   0.025
0.2125   0.1875   0.025
0.2375   0.1875   0.025
0.2625   0.1875   0.025
0.2875   0.1875   0.025
0.3125   0.1875   0.025
0.3375   0.1875   0.025
0.3625   0.1875   0.025
0.3875   0.1875   0.025
0.4125   0.1875   0.025
0.4375   0.1875   0.025
0.4625   0.1875   0.025
0.4875   0.1875   0.025
0.5125   0.1875   0.025
0.5375   0.1875   0.025
0.5625   0.1875   0.025
0.5875   0.1875   0.025
0.6125   0.1875   0.025
0.6375   0.1875   0.025
0.6625   0.1875   0.025
0.6875   0.1875   0.025
0.7125   0.1875   0.025
0.7375   0.1875   0.025
0.7625   0.1875   0.025
0.7875   0.1875   0.025
0.8125   0.1875   0.025
0.8375   0.1875   0.025
0.8625   0.1875   0.025
0.8875   0.1875   0.025
0.9125   0.1875   0.025
0.9375   0.1875   0.025
0.9625   0.1875   0.025
0.9875   0.1875   0.025
0.0125   0.2125   0.025
0.0375   0.2125   0.025
0.0625   0.2125   0.025
0.0875   0.2125   0.025
0.1125   0.2125   0.025
0.1375   0.2125   0.025
0.1625   0.2125   0.025
0.1875   0.2125   0.025
0.2125   0.2125   0.025
0.2375   0.2125   0.025
0.2625   0.2125   0.025
0.2875   0.2125   0.025
0.3125   0.2125   0.025
0.3375   0.2125   0.025
0.3625   0.2125   0.025
0.3875   0.2125   0.025
0.4125   0.2125   0.025
0.4375   0.2125   0.025
0.4625   0.2125   0.025
0.4875   0.2125   0.025
0.5125   0.2125   0.025
0.5375   0.2125   0.025
0.5625   0.2125   0.025
0.5875   0.2125   0.025
0.6125   0.2125   0.025
0.6375   0.2125   0.025
0.6625   0.2125   0.025
0.6875   0.2125   0.025
0.7125   0.2125   0.025
0.7375   0.2125   0.025
0.7625   0.2125   0.025
0.7875   0.2125   0.025
0.8125   0.2125   0.025
0.8375   0.2125   0.025
0.8625   0.2125   0.025
0.8875   0.2125   0.025
0.9125   0.2125   0.025
0.9375   0.2125   0.025
0.9625   0.2125   0.025
0.9875   0.2125   0.025
0.0125   0.2375   0.025
0.0375   0.2375   0.025
0.0625   0.2375   0.025
0.0875   0.2375   0.025
0.1125   0.2375   0.025
0.1375   0.2375   0.025
0.1625   0.2375   0.025
0.1875   0.2375   0.025
0.2125   0.2375   0.025
0.2375   0.2375   0.025
0.2625   0.2375   0.025
0.2875   0.2375   0.025
0.3125   0.2375   0.025
0.3375   0.2375   0.025
0.3625   0.2375   0.025
0.3875   0.2375   0.025
0.4125   0.2375   0.025
0.4375   0.2375   0.025
0.4625   0.2375   0.025
0.4875   0.2375   0.025
0.5125   0.2375   0.025
0.5375   0.2375   0.025
0.5625   0.2375   0.025
0.5875   0.2375   0.025
0.6125   0.2375   0.025
0.6375   0.2375   0.025
0.6625   0.2375   0.025
0.6875   0.2375   0.025
0.7125   0.2375   0.025
0.7375   0.2375   0.025
0.7625   0.2375   0.025
0.7875   0.2375   0.025
0.8125   0.2375   0.025
0.8375   0.2375   0.025
0.8625   0.2375   0.025
0.8875   0.2375   0.025
0.9125   0.2375   0.025
0.9375   0.2375   0.025
0.9625   0.2375   0.025
0.9875   0.2375   0.025
0.0125   0.2625   0.025
0.0375   0.2625   0.025
0.0625   0.2625   0.025
0.0875   0.2625   0.025
0.1125   0.2625   0.025
0.1375   0.2625   0.025
0.1625   0.2625   0.025
0.1875   0.2625   0.025
0.2125   0.2625   0.025
0.2375   0.2625   0.025
0.2625   0.2625   0.025
[...]
POINT_DATA   32000
SCALARS Presion double
LOOKUP_TABLE   Presion

0 0 0 0 0 0 0 0 0 0 0 0 0 0 0 0 0 0 0 0 0 0 0 0 0 0 0 0 0 0 0 0 0 0 0 0 0 0 0 0 -5.0183e-06 -4.97608e-06 -4.89833e-06 -4.7887e-06 -4.64958e-06 -4.48277e-06 -4.28984e-06 -4.07213e-06 -3.83084e-06 -3.56699e-06 -3.28137e-06 -2.97477e-06 -2.64731e-06 -2.29905e-06 -1.92984e-06 -1.5393e-06 -1.12691e-06 -6.92047e-07 -2.34084e-07 2.47519e-07 7.53097e-07 1.28259e-06 1.83561e-06 2.41108e-06 3.00717e-06 3.62111e-06 4.24912e-06 4.88623e-06 5.52629e-06 6.16188e-06 6.78446e-06 7.38468e-06 7.95206e-06 8.47594e-06 8.94577e-06 9.35158e-06 9.68465e-06 9.93803e-06 1.01072e-05 1.01907e-05 -1.00305e-05 -9.94692e-06 -9.79205e-06 -9.57308e-06 -9.29481e-06 -8.96099e-06 -8.57481e-06 -8.1391e-06 -7.65631e-06 -7.12857e-06 -6.55754e-06 -5.94482e-06 -5.29068e-06 -4.59528e-06 -3.85829e-06 -3.07895e-06 -2.25616e-06 -1.38865e-06 -4.75071e-07 4.85716e-07 1.49448e-06 2.5512e-06 3.65521e-06 4.80449e-06 5.99548e-06 7.2228e-06 8.47898e-06 9.75419e-06 1.10362e-05 1.23101e-05 1.3559e-05 1.47639e-05 1.59037e-05 1.6957e-05 1.79023e-05 1.87194e-05 1.93906e-05 1.99017e-05 2.02433e-05 2.04123e-05 -1.50481e-05 -1.49231e-05 -1.46907e-05 -1.43617e-05 -1.39433e-05 -1.34412e-05 -1.28605e-05 -1.22056e-05 -1.14804e-05 -1.06883e-05 -9.83176e-06 -8.91342e-06 -7.93374e-06 -6.89297e-06 -5.7906e-06 -4.62541e-06 -3.39567e-06 -2.09929e-06 -7.34122e-07 7.0178e-07 2.2098e-06 3.79016e-06 5.44217e-06 7.1631e-06 8.94792e-06 1.07889e-05 1.2675e-05 1.45919e-05 1.65212e-05 1.84408e-05 2.03249e-05 2.2145e-05 2.38689e-05 2.54639e-05 2.6897e-05 2.81371e-05 2.91567e-05 2.99338e-05 3.04538e-05 3.07112e-05 -2.00819e-05 -1.99149e-05 -1.9604e-05 -1.91632e-05 -1.86025e-05 -1.79298e-05 -1.71522e-05 -1.62759e-05 -1.53065e-05 -1.42487e-05 -1.31063e-05 -1.18829e-05 -1.05791e-05 -9.19537e-06 -7.73099e-06 -6.18418e-06 -4.55242e-06 -2.83267e-06 -1.0217e-06 8.8345e-07 2.88508e-06 4.98401e-06 7.17985e-06 9.46952e-06 1.18469e-05 1.43024e-05 1.68217e-05 1.93861e-05 2.19714e-05 2.45482e-05 2.70818e-05 2.95337e-05 3.18602e-05 3.40161e-05 3.59563e-05 3.76375e-05 3.90214e-05 4.00773e-05 4.07844e-05 4.11347e-05 -2.51429e-05 -2.49328e-05 -2.45413e-05 -2.3986e-05 -2.32797e-05 -2.24327e-05 -2.14545e-05 -2.03533e-05 -1.91368e-05 -1.78113e-05 -1.63821e-05 -1.48539e-05 -1.32277e-05 -1.15041e-05 -9.68212e-06 -7.75928e-06 -5.73209e-06 -3.59629e-06 -1.34731e-06 1.01921e-06 3.50686e-06 6.11747e-06 8.85145e-06 1.17059e-05 1.46742e-05 1.7745e-05 2.09018e-05 2.41216e-05 2.73748e-05 3.06246e-05 3.38272e-05 3.69338e-05 3.9888e-05 4.26315e-05 4.51053e-05 4.72527e-05 4.90232e-05 5.03755e-05 5.12818e-05 5.17311e-05 -3.02424e-05 -2.99877e-05 -2.95127e-05 -2.88388e-05 -2.79819e-05 -2.69553e-05 -2.57709e-05 -2.44398e-05 -2.29719e-05 -2.13757e-05 -1.96581e-05 -1.78251e-05 -1.58784e-05 -1.38187e-05 -1.16446e-05 -9.35283e-06 -6.9386e-06 -4.39615e-06 -1.71917e-06 1.0985e-06 4.06226e-06 7.1755e-06 1.044e-05 1.38537e-05 1.741e-05 2.10971e-05 2.48961e-05 2.87808e-05 3.27163e-05 3.66588e-05 4.05552e-05 4.43455e-05 4.79601e-05 5.13257e-05 5.43679e-05 5.70145e-05 5.92003e-05 6.08723e-05 6.1994e-05 6.25503e-05 -3.53924e-05 -3.50909e-05 -3.45284e-05 -3.37303e-05 -3.27161e-05 -3.15023e-05 -3.01042e-05 -2.85361e-05 -2.68106e-05 -2.49391e-05 -2.29305e-05 -2.07924e-05 -1.85273e-05 -1.6136e-05 -1.36165e-05 -1.09645e-05 -8.17368e-06 -5.23634e-06 -2.14396e-06 1.11196e-06 4.53917e-06 8.1433e-06 1.19282e-05 1.58934e-05 2.00335e-05 2.43364e-05 2.87824e-05 3.33425e-05 3.79772e-05 4.26358e-05 4.7256e-05 5.17657e-05 5.60809e-05 6.01119e-05 6.37662e-05 6.69535e-05 6.95917e-05 7.16131e-05 7.29706e-05 7.36441e-05 -4.06059e-05 -4.02548e-05 -3.95993e-05 -3.86695e-05 -3.74888e-05 -3.60777e-05 -3.44557e-05 -3.26407e-05 -3.06493e-05 -2.84961e-05 -2.61925e-05 -2.37484e-05 -2.1167e-05 -1.84492e-05 -1.55924e-05 -1.25909e-05 -9.43639e-06 -6.11863e-06 -2.62644e-06 1.05164e-06 4.9264e-06 9.00642e-06 1.32985e-05 1.78047e-05 2.25216e-05 2.74384e-05 3.25353e-05 3.77816e-05 4.31341e-05 4.85356e-05 5.39145e-05 5.91862e-05 6.42507e-05 6.89997e-05 7.33199e-05 7.70998e-05 8.02365e-05 8.26445e-05 8.42638e-05 8.50675e-05 -4.58978e-05 -4.54933e-05 -4.47376e-05 -4.3666e-05 -4.23066e-05 -4.06848e-05 -3.88249e-05 -3.67499e-05 -3.44811e-05 -3.20371e-05 -2.94331e-05 -2.66812e-05 -2.37856e-05 -2.07475e-05 -1.75633e-05 -1.42252e-05 -1.07226e-05 -7.04206e-06 -3.16911e-06 9.11356e-07 5.21389e-06 9.75089e-06 1.4533e-05 1.95659e-05 2.48494e-05 3.03752e-05 3.6125e-05 4.20677e-05 4.81575e-05 5.43316e-05 6.05093e-05 6.65927e-05 7.24643e-05 7.79947e-05 8.30465e-05 8.74823e-05 9.11746e-05 9.40157e-05 9.5929e-05 9.68792e-05 -5.12852e-05 -5.08223e-05 -4.9957e-05 -4.87305e-05 -4.71763e-05 -4.53259e-05 -4.32096e-05 -4.08569e-05 -3.82951e-05 -3.55484e-05 -3.26361e-05 -2.95734e-05 -2.6366e-05 -2.30149e-05 -1.9515e-05 -1.58561e-05 -1.20243e-05 -8.00242e-06 -3.7718e-06 6.86985e-07 5.39302e-06 1.03634e-05 1.56135e-05 2.1154e-05 2.69894e-05 3.31154e-05 3.95169e-05 4.61644e-05 5.30111e-05 5.99898e-05 6.7011e-05 7.39633e-05 8.07101e-05 8.70975e-05 9.29599e-05 9.81292e-05 0.000102447 0.000105779 0.000108026 0.000109143 -5.67883e-05 -5.62606e-05 -5.52737e-05 -5.3875e-05 -5.21051e-05 -5.00024e-05 -4.76054e-05 -4.49515e-05 -4.20759e-05 -3.901e-05 -3.57788e-05 -3.24011e-05 -2.88844e-05 -2.52291e-05 -2.14279e-05 -1.74675e-05 -1.33293e-05 -8.99181e-06 -4.43125e-06 3.76874e-07 5.45694e-06 1.08315e-05 1.6522e-05 2.25451e-05 2.89116e-05 3.56234e-05 4.26707e-05 5.0028e-05 5.76497e-05 6.54662e-05 7.33804e-05 8.12668e-05 8.89679e-05 9.63021e-05 0.00010307 0.000109067 0.000114097 0.000117989 0.00012062 0.000121929 -6.24318e-05 -6.18312e-05 -6.07069e-05 -5.9114e-05 -5.71009e-05 -5.47152e-05 -5.20052e-05 -4.90188e-05 -4.58018e-05 -4.23947e-05 -3.88301e-05 -3.51318e-05 -3.13087e-05 -2.73603e-05 -2.32759e-05 -1.90373e-05 -1.46206e-05 -9.99821e-06 -5.14071e-06 -1.77341e-08 5.40103e-06 1.11444e-05 1.72407e-05 2.37141e-05 3.05834e-05 3.78591e-05 4.55394e-05 5.3606e-05 6.20177e-05 7.07053e-05 7.95657e-05 8.84599e-05 9.72074e-05 0.000105595 0.000113383 0.000120322 0.000126168 0.000130708 0.000133785 0.000135317 -6.82463e-05 -6.75623e-05 -6.62806e-05 -6.4465e-05 -6.21734e-05 -5.94645e-05 -5.63991e-05 -5.30388e-05 -4.94433e-05 -4.56657e-05 -4.17487e-05 -3.77222e-05 -3.35969e-05 -2.93698e-05 -2.5025e-05 -2.05374e-05 -1.58757e-05 -1.10051e-05 -5.88951e-06 -4.92211e-07 5.22348e-06 1.12932e-05 1.77529e-05 2.46355e-05 3.19699e-05 3.97776e-05 4.80686e-05 5.68355e-05 6.60464e-05 7.56365e-05 8.54999e-05 9.54846e-05 0.000105385 0.000114952 0.000123897 0.000131916 0.000138708 0.000144004 0.000147602 0.000149396 -7.42698e-05 -7.34895e-05 -7.20252e-05 -6.99506e-05 -6.7335e-05 -6.42506e-05 -6.07739e-05 -5.69846e-05 -5.29609e-05 -4.87735e-05 -4.44788e-05 -4.01151e-05 -3.56941e-05 -3.12081e-05 -2.66328e-05 -2.19327e-05 -1.70667e-05 -1.19913e-05 -6.66282e-06 -1.03802e-06 4.92609e-06 1.1272e-05 1.80437e-05 2.52843e-05 3.30343e-05 4.13295e-05 5.01955e-05 5.96415e-05 6.9651e-05 8.01702e-05 9.10953e-05 0.000102263 0.000113442 0.000124338 0.000134606 0.000143874 0.000151769 0.000157952 0.000162167 0.00016427 -8.05504e-05 -7.96574e-05 -7.79791e-05 -7.55999e-05 -7.26024e-05 -6.90747e-05 -6.51135e-05 -6.08215e-05 -5.63024e-05 -5.16518e-05 -4.69463e-05 -4.2235e-05 -3.75298e-05 -3.28134e-05 -2.80474e-05 -2.31814e-05 -1.81606e-05 -1.29312e-05 -7.44147e-06 -1.64212e-06 4.51522e-06 1.10792e-05 1.8102e-05 2.56372e-05 3.37393e-05 4.24608e-05 5.18483e-05 6.19342e-05 7.27265e-05 8.41922e-05 9.62381e-05 0.000108694 0.000121298 0.000133703 0.000145495 0.000156218 0.000165408 0.000172642 0.000177589 0.000180062 -8.71486e-05 -8.61232e-05 -8.41919e-05 -8.14515e-05 -7.79987e-05 -7.39409e-05 -6.93987e-05 -6.45051e-05 -5.93987e-05 -5.42116e-05 -4.90509e-05 -4.3982e-05 -3.90131e-05 -3.41092e-05 -2.92077e-05 -2.42356e-05 -1.91204e-05 -1.37956e-05 -8.20209e-06 -2.28635e-06 4.00321e-06 1.07196e-05 1.79222e-05 2.56755e-05 3.40491e-05 4.31155e-05 5.29467e-05 6.36074e-05 7.51423e-05 8.7555e-05 0.000100778 0.000114641 0.000128846 0.00014298 0.000156541 0.000168969 0.000179691 0.000188175 0.000193999 0.000196916 -9.41404e-05 -9.29587e-05 -9.07278e-05 -8.75568e-05 -8.35579e-05 -7.88592e-05 -7.36098e-05 -6.79806e-05 -6.21586e-05 -5.63307e-05 -5.06545e-05 -4.52214e-05 -4.00281e-05 -3.50035e-05 -3.00445e-05 -2.50444e-05 -1.99072e-05 -1.45532e-05 -8.91765e-06 -2.94653e-06 3.41034e-06 1.02066e-05 1.75075e-05 2.53882e-05 3.39338e-05 4.32384e-05 5.34039e-05 6.45364e-05 7.6735e-05 9.0065e-05 0.000104512 0.00011992 0.000135946 0.000152084 0.000167716 0.000182156 0.000194697 0.000204676 0.000211552 0.000215003 -0.00010162 -0.000100255 -9.76691e-05 -9.39849e-05 -8.93294e-05 -8.38513e-05 -7.77306e-05 -7.11836e-05 -6.44625e-05 -5.78393e-05 -5.15609e-05 -4.57694e-05 -4.04269e-05 -3.53893e-05 -3.0485e-05 -2.55584e-05 -2.04855e-05 -1.5174e-05 -9.55843e-06 -3.59134e-06 2.76774e-06 9.56642e-06 1.6874e-05 2.47768e-05 3.33748e-05 4.27822e-05 5.31321e-05 6.45799e-05 7.73004e-05 9.1462e-05 0.000107158 0.000124283 0.000142416 0.000160911 0.000178991 0.000195816 0.000210523 0.00022229 0.000230433 0.000234529 -0.000109704 -0.000108123 -0.000105121 -0.000100828 -9.53858e-05 -8.89598e-05 -8.17582e-05 -7.40458e-05 -6.61571e-05 -5.8495e-05 -5.14768e-05 -4.53674e-05 -4.00244e-05 -3.51511e-05 -3.04627e-05 -2.574e-05 -2.08301e-05 -1.5634e-05 -1.00938e-05 -4.18014e-06 2.1226e-06 8.84252e-06 1.60554e-05 2.38614e-05 3.23731e-05 4.17188e-05 5.20556e-05 6.3588e-05 7.65868e-05 9.1385e-05 0.000108299 0.000127378 0.000148028 0.000169349 0.000190349 0.000210008 0.000227292 0.000241197 0.000250864 0.000255739 -0.000118532 -0.000116702 -0.000113214 -0.000108208 -0.000101833 -9.42622e-05 -8.57223e-05 -7.65145e-05 -6.70585e-05 -5.79427e-05 -4.99248e-05 -4.36434e-05 -3.86022e-05 -3.41839e-05 -2.99375e-05 -2.55784e-05 -2.09375e-05 -1.59224e-05 -1.04948e-05 -4.65929e-06 1.54848e-06 8.10264e-06 1.51066e-05 2.26856e-05 3.09602e-05 4.00576e-05 5.01372e-05 6.14303e-05 7.43008e-05 8.93192e-05 0.000107263 0.000128702 0.00015251 0.000177304 0.000201811 0.000224832 0.000245165 0.000261614 0.000273105 0.000278919 -0.000128269 -0.000126154 -0.00012211 -0.000116282 -0.000108818 -9.98911e-05 -8.97186e-05 -7.86e-05 -6.69908e-05 -5.5666e-05 -4.60146e-05 -4.00619e-05 -3.59471e-05 -3.2442e-05 -2.89301e-05 -2.51113e-05 -2.08397e-05 -1.6052e-05 -1.07409e-05 -4.95681e-06 1.17152e-06 7.44573e-06 1.41025e-05 2.13174e-05 2.92072e-05 3.78701e-05 4.74247e-05 5.80643e-05 7.01665e-05 8.45288e-05 0.0001028 0.000127528 0.000155609 0.000184773 0.000213485 0.000240448 0.000264348 0.000283795 0.000297462 0.000304403 -0.000139106 -0.000136671 -0.000131999 -0.000125241 -0.000116541 -0.000106052 -9.39557e-05 -8.04749e-05 -6.59395e-05 -5.10178e-05 -3.77121e-05 -3.3956e-05 -3.20047e-05 -3.00388e-05 -2.75705e-05 -2.44469e-05 -2.0617e-05 -1.60725e-05 -1.08368e-05 -4.98469e-06 1.25212e-06 6.99927e-06 1.31208e-05 1.98401e-05 2.7228e-05 3.53133e-05 4.41162e-05 5.36788e-05 6.4149e-05 7.61123e-05 9.2032e-05 0.000122969 0.000157313 0.000191982 0.000225626 0.000257106 0.000285099 0.000308033 0.000324274 0.000332566 -0.000151254 -0.000148463 -0.000143097 -0.000135311 -0.000125244 -0.000113029 -9.87928e-05 -8.26241e-05 -6.44954e-05 -4.39739e-05 -1.9084e-05 -2.52804e-05 -2.7324e-05 -2.73966e-05 -2.61355e-05 -2.37686e-05 -2.03988e-05 -1.60844e-05 -1.08593e-05 -4.71794e-06 2.49045e-06 6.83641e-06 1.21877e-05 1.8327e-05 2.51671e-05 3.26322e-05 4.06116e-05 4.89065e-05 5.70981e-05 6.41081e-05 6.64892e-05 0.000115073 0.000158499 0.000199602 0.000238691 0.000275139 0.000307708 0.000334641 0.000353909 0.000363818 -0.000164946 -0.000161765 -0.000155639 -0.000146735 -0.000135194 -0.000121145 -0.000104687 -8.58626e-05 -6.45742e-05 -4.04249e-05 -1.24711e-05 -1.99041e-05 -2.37762e-05 -2.5264e-05 -2.49955e-05 -2.32946e-05 -2.03386e-05 -1.62319e-05 -1.10349e-05 -4.76698e-06 2.60973e-06 6.39655e-06 1.11846e-05 1.68179e-05 2.31705e-05 3.0106e-05 3.74332e-05 4.48412e-05 5.17749e-05 5.71899e-05 5.91763e-05 0.000112529 0.000161951 0.000208763 0.000253254 0.000294906 0.000332465 0.000363924 0.00038674 0.000398588 -0.000180425 -0.000176818 -0.000169866 -0.000159756 -0.000146646 -0.000130677 -0.000111968 -9.05905e-05 -6.65399e-05 -3.97025e-05 -9.91954e-06 -1.71351e-05 -2.16782e-05 -2.39701e-05 -2.43855e-05 -2.31883e-05 -2.05559e-05 -1.661e-05 -1.14355e-05 -5.09277e-06 2.36773e-06 5.76248e-06 1.01323e-05 1.53728e-05 2.13592e-05 2.79376e-05 3.48992e-05 4.19407e-05 4.86095e-05 5.42573e-05 5.81242e-05 0.000114248 0.000168121 0.000219953 0.000269671 0.000316666 0.00035959 0.00039614 0.000423118 0.000437316 -0.000197949 -0.000193874 -0.000186021 -0.000174607 -0.00015982 -0.000141834 -0.000120813 -9.68961e-05 -7.01986e-05 -4.08292e-05 -8.97841e-06 -1.59709e-05 -2.07861e-05 -2.35278e-05 -2.43824e-05 -2.35287e-05 -2.11154e-05 -1.72617e-05 -1.20655e-05 -5.61329e-06 2.0038e-06 5.04793e-06 9.09202e-06 1.40511e-05 1.981e-05 2.62221e-05 3.30988e-05 4.01953e-05 4.72022e-05 5.37712e-05 5.9636e-05 0.000118697 0.000176623 0.000233181 0.000288053 0.000340539 0.00038921 0.000431471 0.000463353 0.000480427 -0.000217783 -0.000213188 -0.000204343 -0.000191504 -0.000174902 -0.000154763 -0.000131305 -0.000104744 -7.52959e-05 -4.32035e-05 -8.79538e-06 -1.57855e-05 -2.07956e-05 -2.38251e-05 -2.49624e-05 -2.43252e-05 -2.2032e-05 -1.81924e-05 -1.2907e-05 -6.27324e-06 1.60455e-06 4.32569e-06 8.11503e-06 1.28931e-05 1.85549e-05 2.49708e-05 3.19858e-05 3.94188e-05 4.70724e-05 5.47674e-05 6.24166e-05 0.000124913 0.00018698 0.000248263 0.000308352 0.000366525 0.000421344 0.00047 0.000507684 0.000528327 -0.000240198 -0.000235019 -0.000225064 -0.000210645 -0.00019205 -0.000169566 -0.000143478 -0.000114072 -8.1639e-05 -4.64995e-05 -9.0335e-06 -1.623e-05 -2.14668e-05 -2.47249e-05 -2.60547e-05 -2.55415e-05 -2.3284e-05 -1.9382e-05 -1.39333e-05 -7.03609e-06 1.20579e-06 3.63651e-06 7.23383e-06 1.19186e-05 1.75945e-05 2.41502e-05 3.14628e-05 3.94028e-05 4.78472e-05 5.67026e-05 6.5941e-05 0.000132342 0.0001988 0.000264966 0.000330434 0.000394536 0.000455919 0.000511701 0.000556257 0.000581383 -0.000265478 -0.000259629 -0.00024841 -0.000232208 -0.000211388 -0.000186312 -0.000157337 -0.000124815 -8.9094e-05 -5.05372e-05 -9.54057e-06 -1.71061e-05 -2.26266e-05 -2.60987e-05 -2.7569e-05 -2.71138e-05 -2.48229e-05 -2.07901e-05 -1.51088e-05 -7.87195e-06 8.24811e-07 3.00372e-06 6.46761e-06 1.11348e-05 1.69145e-05 2.3711e-05 3.14273e-05 3.99715e-05 4.92665e-05 5.9264e-05 6.99554e-05 0.000140648 0.000211775 0.000283046 0.000354115 0.000424415 0.000492772 0.000556424 0.000609093 0.000639902 -0.000293911 -0.000287278 -0.000274592 -0.000256344 -0.000233002 -0.000205024 -0.000172851 -0.000136896 -9.75529e-05 -5.52026e-05 -1.02362e-05 -1.82899e-05 -2.41438e-05 -2.78275e-05 -2.94042e-05 -2.8957e-05 -2.65775e-05 -2.23578e-05 -1.63867e-05 -8.74892e-06 4.73139e-07 2.44443e-06 5.83114e-06 1.05456e-05 1.64996e-05 2.36082e-05 3.17938e-05 4.09909e-05 5.11526e-05 6.22568e-05 7.43062e-05 0.000149585 0.000225635 0.000302245 0.000379155 0.000455933 0.000531651 0.000603882 0.000666038 0.000704107 -0.000325799 -0.000318222 -0.000303795 -0.000283155 -0.000256917 -0.000225664 -0.000189933 -0.000150203 -0.000106897 -6.03976e-05 -1.10672e-05 -1.96876e-05 -2.5904e-05 -2.97918e-05 -3.1445e-05 -3.09652e-05 -2.84536e-05 -2.40048e-05 -1.77043e-05 -9.62667e-06 1.63055e-07 1.97791e-06 5.3431e-06 1.01611e-05 1.63428e-05 2.38102e-05 3.24998e-05 4.23652e-05 5.33812e-05 6.55457e-05 7.88753e-05 0.000158946 0.000240112 0.000322262 0.000405242 0.00048877 0.0005722 0.000653629 0.000726711 0.000774082 -0.00036145 -0.000352703 -0.000336154 -0.000312663 -0.000283056 -0.000248084 -0.000208399 -0.000164544 -0.000116959 -6.60044e-05 -1.19857e-05 -2.12089e-05 -2.77881e-05 -3.18579e-05 -3.35542e-05 -3.30059e-05 -3.03295e-05 -2.5626e-05 -1.89785e-05 -1.0451e-05 -8.7975e-08 1.63171e-06 5.03252e-06 1.00034e-05 1.64516e-05 2.43036e-05 3.35064e-05 4.40285e-05 5.58624e-05 6.9025e-05 8.35522e-05 0.000168516 0.000254906 0.000342729 0.000431959 0.000522479 0.000613928 0.000705044 0.00079042 0.000849699 -0.000401171 -0.000390921 -0.000371706 -0.000344747 -0.000311175 -0.000271967 -0.000227908 -0.0001796 -0.000127479 -7.18534e-05 -1.29345e-05 -2.27465e-05 -2.96533e-05 -3.38633e-05 -3.55631e-05 -3.49142e-05 -3.20523e-05 -2.70872e-05 -2.01016e-05 -1.11497e-05 -2.54039e-07 1.44586e-06 4.94235e-06 1.0109e-05 1.68488e-05 2.50918e-05 3.47938e-05 4.59363e-05 5.85272e-05 7.26022e-05 8.82216e-05 0.000178063 0.000269668 0.000363188 0.000458753 0.000556436 0.000656151 0.000757291 0.000856062 0.000930504 -0.000445258 -0.000432982 -0.000410305 -0.000379036 -0.000340759 -0.000296734 -0.00024789 -0.000194863 -0.000138058 -7.76898e-05 -1.38336e-05 -2.41578e-05 -3.13176e-05 -3.56064e-05 -3.72657e-05 -3.64909e-05 -3.34377e-05 -2.82263e-05 -2.09416e-05 -1.16314e-05 -2.99003e-07 1.47356e-06 5.12818e-06 1.05255e-05 1.75671e-05 2.61881e-05 3.63534e-05 4.80556e-05 6.13165e-05 7.61889e-05 9.27586e-05 0.000187323 0.000283989 0.000383075 0.000484908 0.000589788 0.000697913 0.000809273 0.000922015 0.00101553 -0.000493958 -0.000478788 -0.000451448 -0.000414731 -0.00037086 -0.000321419 -0.000267448 -0.000209572 -0.000148107 -8.31405e-05 -1.45662e-05 -2.52519e-05 -3.2552e-05 -3.68463e-05 -3.84253e-05 -3.75132e-05 -3.4283e-05 -2.88655e-05 -2.13522e-05 -1.17913e-05 -1.78081e-07 1.7754e-06 5.64828e-06 1.12987e-05 1.86344e-05 2.75999e-05 3.81702e-05 5.03484e-05 6.41668e-05 7.96906e-05 9.70266e-05 0.000196004 0.000297395 0.00040172 0.000509533 0.00062142 0.000737895 0.000859547 0.000986013 0.00110305 -0.00054736 -0.000527768 -0.000493934 -0.000450296 -0.000399878 -0.000344527 -0.000285284 -0.000222663 -0.000156829 -8.76982e-05 -1.49694e-05 -2.57901e-05 -3.30966e-05 -3.73298e-05 -3.88085e-05 -3.77724e-05 -3.44052e-05 -2.8848e-05 -2.12034e-05 -1.15336e-05 1.5289e-07 2.40048e-06 6.5383e-06 1.24438e-05 2.00438e-05 2.92987e-05 4.01956e-05 5.27464e-05 6.69897e-05 8.29942e-05 0.000100875 0.000203775 0.000309354 0.00041835 0.000531571 0.000649953 0.000774338 0.000906204 0.00104506 0.00119012 -0.000605071 -0.000578203 -0.000535211 -0.000483013 -0.000425317 -0.000363944 -0.000299694 -0.000232824 -0.000163271 -9.07674e-05 -1.48499e-05 -2.55357e-05 -3.2733e-05 -3.68761e-05 -3.82741e-05 -3.71621e-05 -3.37259e-05 -2.81152e-05 -2.04499e-05 -1.08221e-05 7.12052e-07 3.34424e-06 7.76155e-06 1.38941e-05 2.17037e-05 3.11729e-05 4.23025e-05 5.51112e-05 6.96381e-05 8.59447e-05 0.000104133 0.000210271 0.000319276 0.000432113 0.000549837 0.000673782 0.00080506 0.000946682 0.00109554 0.00127187 -0.000664989 -0.000625539 -0.00057025 -0.000508511 -0.00044376 -0.000377138 -0.000308873 -0.000238813 -0.000166628 -9.189e-05 -1.40872e-05 -2.44258e-05 -3.148e-05 -3.55708e-05 -3.69543e-05 -3.58444e-05 -3.24221e-05 -2.68443e-05 -1.92515e-05 -9.77795e-06 1.43672e-06 4.47093e-06 9.128e-06 1.54242e-05 2.33673e-05 3.29642e-05 4.4228e-05 5.71819e-05 7.18613e-05 8.83113e-05 0.000106598 0.000215085 0.000326535 0.000442116 0.000563093 0.00069118 0.000827658 0.000977512 0.00113374 0.00134019 -0.000717836 -0.000658601 -0.000590624 -0.000521363 -0.000451996 -0.000382368 -0.000312018 -0.000240417 -0.000167036 -9.13653e-05 -1.29719e-05 -2.29867e-05 -2.9981e-05 -3.41007e-05 -3.5541e-05 -3.44946e-05 -3.11385e-05 -2.56348e-05 -1.81402e-05 -8.82537e-06 2.08471e-06 5.40019e-06 1.01927e-05 1.65645e-05 2.45604e-05 3.42045e-05 4.55177e-05 5.8525e-05 7.32574e-05 8.97451e-05 0.000108012 0.000217752 0.00033048 0.00044749 0.000570186 0.000700469 0.000839933 0.00099426 0.0011568 0.00138195 0 0 0 0 0 0 0 0 0 0 0 0 0 0 0 0 0 0 0 0 0 0 0 0 0 0 0 0 0 0 0 0 0 0 0 0 0 0 0 0 -4.98373e-06 -4.94649e-06 -4.87422e-06 -4.76939e-06 -4.63422e-06 -4.47066e-06 -4.28041e-06 -4.06498e-06 -3.82568e-06 -3.56361e-06 -3.27963e-06 -2.97457e-06 -2.64859e-06 -2.3018e-06 -1.93406e-06 -1.54501e-06 -1.13414e-06 -7.00842e-07 -2.44483e-07 2.35481e-07 7.39404e-07 1.26725e-06 1.81867e-06 2.39266e-06 2.98746e-06 3.60039e-06 4.22778e-06 4.8648e-06 5.50541e-06 6.14235e-06 6.76717e-06 7.37065e-06 7.94232e-06 8.47155e-06 8.9477e-06 9.36067e-06 9.70147e-06 9.96275e-06