# vtk DataFile Version 2.0
Velocidades
ASCII

DATASET STRUCTURED_GRID
DIMENSIONS   40   40   20

POINTS   32000   double
0.0125   0.0125   0.025
0.0125   0.0375   0.025
0.0125   0.0625   0.025
0.0125   0.0875   0.025
0.0125   0.1125   0.025
0.0125   0.1375   0.025
0.0125   0.1625   0.025
0.0125   0.1875   0.025
0.0125   0.2125   0.025
0.0125   0.2375   0.025
0.0125   0.2625   0.025
0.0125   0.2875   0.025
0.0125   0.3125   0.025
0.0125   0.3375   0.025
0.0125   0.3625   0.025
0.0125   0.3875   0.025
0.0125   0.4125   0.025
0.0125   0.4375   0.025
0.0125   0.4625   0.025
0.0125   0.4875   0.025
0.0125   0.5125   0.025
0.0125   0.5375   0.025
0.0125   0.5625   0.025
0.0125   0.5875   0.025
0.0125   0.6125   0.025
0.0125   0.6375   0.025
0.0125   0.6625   0.025
0.0125   0.6875   0.025
0.0125   0.7125   0.025
0.0125   0.7375   0.025
0.0125   0.7625   0.025
0.0125   0.7875   0.025
0.0125   0.8125   0.025
0.0125   0.8375   0.025
0.0125   0.8625   0.025
0.0125   0.8875   0.025
0.0125   0.9125   0.025
0.0125   0.9375   0.025
0.0125   0.9625   0.025
0.0125   0.9875   0.025
0.0375   0.0125   0.025
0.0375   0.0375   0.025
0.0375   0.0625   0.025
0.0375   0.0875   0.025
0.0375   0.1125   0.025
0.0375   0.1375   0.025
0.0375   0.1625   0.025
0.0375   0.1875   0.025
0.0375   0.2125   0.025
0.0375   0.2375   0.025
0.0375   0.2625   0.025
0.0375   0.2875   0.025
0.0375   0.3125   0.025
0.0375   0.3375   0.025
0.0375   0.3625   0.025
0.0375   0.3875   0.025
0.0375   0.4125   0.025
0.0375   0.4375   0.025
0.0375   0.4625   0.025
0.0375   0.4875   0.025
0.0375   0.5125   0.025
0.0375   0.5375   0.025
0.0375   0.5625   0.025
0.0375   0.5875   0.025
0.0375   0.6125   0.025
0.0375   0.6375   0.025
0.0375   0.6625   0.025
0.0375   0.6875   0.025
0.0375   0.7125   0.025
0.0375   0.7375   0.025
0.0375   0.7625   0.025
0.0375   0.7875   0.025
0.0375   0.8125   0.025
0.0375   0.8375   0.025
0.0375   0.8625   0.025
0.0375   0.8875   0.025
0.0375   0.9125   0.025
0.0375   0.9375   0.025
0.0375   0.9625   0.025
0.0375   0.9875   0.025
0.0625   0.0125   0.025
0.0625   0.0375   0.025
0.0625   0.0625   0.025
0.0625   0.0875   0.025
0.0625   0.1125   0.025
0.0625   0.1375   0.025
0.0625   0.1625   0.025
0.0625   0.1875   0.025
0.0625   0.2125   0.025
0.0625   0.2375   0.025
0.0625   0.2625   0.025
0.0625   0.2875   0.025
0.0625   0.3125   0.025
0.0625   0.3375   0.025
0.0625   0.3625   0.025
0.0625   0.3875   0.025
0.0625   0.4125   0.025
0.0625   0.4375   0.025
0.0625   0.4625   0.025
0.0625   0.4875   0.025
0.0625   0.5125   0.025
0.0625   0.5375   0.025
0.0625   0.5625   0.025
0.0625   0.5875   0.025
0.0625   0.6125   0.025
0.0625   0.6375   0.025
0.0625   0.6625   0.025
0.0625   0.6875   0.025
0.0625   0.7125   0.025
0.0625   0.7375   0.025
0.0625   0.7625   0.025
0.0625   0.7875   0.025
0.0625   0.8125   0.025
0.0625   0.8375   0.025
0.0625   0.8625   0.025
0.0625   0.8875   0.025
0.0625   0.9125   0.025
0.0625   0.9375   0.025
0.0625   0.9625   0.025
0.0625   0.9875   0.025
0.0875   0.0125   0.025
0.0875   0.0375   0.025
0.0875   0.0625   0.025
0.0875   0.0875   0.025
0.0875   0.1125   0.025
0.0875   0.1375   0.025
0.0875   0.1625   0.025
0.0875   0.1875   0.025
0.0875   0.2125   0.025
0.0875   0.2375   0.025
0.0875   0.2625   0.025
0.0875   0.2875   0.025
0.0875   0.3125   0.025
0.0875   0.3375   0.025
0.0875   0.3625   0.025
0.0875   0.3875   0.025
0.0875   0.4125   0.025
0.0875   0.4375   0.025
0.0875   0.4625   0.025
0.0875   0.4875   0.025
0.0875   0.5125   0.025
0.0875   0.5375   0.025
0.0875   0.5625   0.025
0.0875   0.5875   0.025
0.0875   0.6125   0.025
0.0875   0.6375   0.025
0.0875   0.6625   0.025
0.0875   0.6875   0.025
0.0875   0.7125   0.025
0.0875   0.7375   0.025
0.0875   0.7625   0.025
0.0875   0.7875   0.025
0.0875   0.8125   0.025
0.0875   0.8375   0.025
0.0875   0.8625   0.025
0.0875   0.8875   0.025
0.0875   0.9125   0.025
0.0875   0.9375   0.025
0.0875   0.9625   0.025
0.0875   0.9875   0.025
0.1125   0.0125   0.025
0.1125   0.0375   0.025
0.1125   0.0625   0.025
0.1125   0.0875   0.025
0.1125   0.1125   0.025
0.1125   0.1375   0.025
0.1125   0.1625   0.025
0.1125   0.1875   0.025
0.1125   0.2125   0.025
0.1125   0.2375   0.025
0.1125   0.2625   0.025
0.1125   0.2875   0.025
0.1125   0.3125   0.025
0.1125   0.3375   0.025
0.1125   0.3625   0.025
0.1125   0.3875   0.025
0.1125   0.4125   0.025
0.1125   0.4375   0.025
0.1125   0.4625   0.025
0.1125   0.4875   0.025
0.1125   0.5125   0.025
0.1125   0.5375   0.025
0.1125   0.5625   0.025
0.1125   0.5875   0.025
0.1125   0.6125   0.025
0.1125   0.6375   0.025
0.1125   0.6625   0.025
0.1125   0.6875   0.025
0.1125   0.7125   0.025
0.1125   0.7375   0.025
0.1125   0.7625   0.025
0.1125   0.7875   0.025
0.1125   0.8125   0.025
0.1125   0.8375   0.025
0.1125   0.8625   0.025
0.1125   0.8875   0.025
0.1125   0.9125   0.025
0.1125   0.9375   0.025
0.1125   0.9625   0.025
0.1125   0.9875   0.025
0.1375   0.0125   0.025
0.1375   0.0375   0.025
0.1375   0.0625   0.025
0.1375   0.0875   0.025
0.1375   0.1125   0.025
0.1375   0.1375   0.025
0.1375   0.1625   0.025
0.1375   0.1875   0.025
0.1375   0.2125   0.025
0.1375   0.2375   0.025
0.1375   0.2625   0.025
0.1375   0.2875   0.025
0.1375   0.3125   0.025
0.1375   0.3375   0.025
0.1375   0.3625   0.025
0.1375   0.3875   0.025
0.1375   0.4125   0.025
0.1375   0.4375   0.025
0.1375   0.4625   0.025
0.1375   0.4875   0.025
0.1375   0.5125   0.025
0.1375   0.5375   0.025
0.1375   0.5625   0.025
0.1375   0.5875   0.025
0.1375   0.6125   0.025
0.1375   0.6375   0.025
0.1375   0.6625   0.025
0.1375   0.6875   0.025
0.1375   0.7125   0.025
0.1375   0.7375   0.025
0.1375   0.7625   0.025
0.1375   0.7875   0.025
0.1375   0.8125   0.025
0.1375   0.8375   0.025
0.1375   0.8625   0.025
0.1375   0.8875   0.025
0.1375   0.9125   0.025
0.1375   0.9375   0.025
0.1375   0.9625   0.025
0.1375   0.9875   0.025
0.1625   0.0125   0.025
0.1625   0.0375   0.025
0.1625   0.0625   0.025
0.1625   0.0875   0.025
0.1625   0.1125   0.025
0.1625   0.1375   0.025
0.1625   0.1625   0.025
0.1625   0.1875   0.025
0.1625   0.2125   0.025
0.1625   0.2375   0.025
0.1625   0.2625   0.025
0.1625   0.2875   0.025
0.1625   0.3125   0.025
0.1625   0.3375   0.025
0.1625   0.3625   0.025
0.1625   0.3875   0.025
0.1625   0.4125   0.025
0.1625   0.4375   0.025
0.1625   0.4625   0.025
0.1625   0.4875   0.025
0.1625   0.5125   0.025
0.1625   0.5375   0.025
0.1625   0.5625   0.025
0.1625   0.5875   0.025
0.1625   0.6125   0.025
0.1625   0.6375   0.025
0.1625   0.6625   0.025
0.1625   0.6875   0.025
0.1625   0.7125   0.025
0.1625   0.7375   0.025
0.1625   0.7625   0.025
0.1625   0.7875   0.025
0.1625   0.8125   0.025
0.1625   0.8375   0.025
0.1625   0.8625   0.025
0.1625   0.8875   0.025
0.1625   0.9125   0.025
0.1625   0.9375   0.025
0.1625   0.9625   0.025
0.1625   0.9875   0.025
0.1875   0.0125   0.025
0.1875   0.0375   0.025
0.1875   0.0625   0.025
0.1875   0.0875   0.025
0.1875   0.1125   0.025
0.1875   0.1375   0.025
0.1875   0.1625   0.025
0.1875   0.1875   0.025
0.1875   0.2125   0.025
0.1875   0.2375   0.025
0.1875   0.2625   0.025
0.1875   0.2875   0.025
0.1875   0.3125   0.025
0.1875   0.3375   0.025
0.1875   0.3625   0.025
0.1875   0.3875   0.025
0.1875   0.4125   0.025
0.1875   0.4375   0.025
0.1875   0.4625   0.025
0.1875   0.4875   0.025
0.1875   0.5125   0.025
0.1875   0.5375   0.025
0.1875   0.5625   0.025
0.1875   0.5875   0.025
0.1875   0.6125   0.025
0.1875   0.6375   0.025
0.1875   0.6625   0.025
0.1875   0.6875   0.025
0.1875   0.7125   0.025
0.1875   0.7375   0.025
0.1875   0.7625   0.025
0.1875   0.7875   0.025
0.1875   0.8125   0.025
0.1875   0.8375   0.025
0.1875   0.8625   0.025
0.1875   0.8875   0.025
0.1875   0.9125   0.025
0.1875   0.9375   0.025
0.1875   0.9625   0.025
0.1875   0.9875   0.025
0.2125   0.0125   0.025
0.2125   0.0375   0.025
0.2125   0.0625   0.025
0.2125   0.0875   0.025
0.2125   0.1125   0.025
0.2125   0.1375   0.025
0.2125   0.1625   0.025
0.2125   0.1875   0.025
0.2125   0.2125   0.025
0.2125   0.2375   0.025
0.2125   0.2625   0.025
0.2125   0.2875   0.025
0.2125   0.3125   0.025
0.2125   0.3375   0.025
0.2125   0.3625   0.025
0.2125   0.3875   0.025
0.2125   0.4125   0.025
0.2125   0.4375   0.025
0.2125   0.4625   0.025
0.2125   0.4875   0.025
0.2125   0.5125   0.025
0.2125   0.5375   0.025
0.2125   0.5625   0.025
0.2125   0.5875   0.025
0.2125   0.6125   0.025
0.2125   0.6375   0.025
0.2125   0.6625   0.025
0.2125   0.6875   0.025
0.2125   0.7125   0.025
0.2125   0.7375   0.025
0.2125   0.7625   0.025
0.2125   0.7875   0.025
0.2125   0.8125   0.025
0.2125   0.8375   0.025
0.2125   0.8625   0.025
0.2125   0.8875   0.025
0.2125   0.9125   0.025
0.2125   0.9375   0.025
0.2125   0.9625   0.025
0.2125   0.9875   0.025
0.2375   0.0125   0.025
0.2375   0.0375   0.025
0.2375   0.0625   0.025
0.2375   0.0875   0.025
0.2375   0.1125   0.025
0.2375   0.1375   0.025
0.2375   0.1625   0.025
0.2375   0.1875   0.025
0.2375   0.2125   0.025
0.2375   0.2375   0.025
0.2375   0.2625   0.025
0.2375   0.2875   0.025
0.2375   0.3125   0.025
0.2375   0.3375   0.025
0.2375   0.3625   0.025
0.2375   0.3875   0.025
0.2375   0.4125   0.025
0.2375   0.4375   0.025
0.2375   0.4625   0.025
0.2375   0.4875   0.025
0.2375   0.5125   0.025
0.2375   0.5375   0.025
0.2375   0.5625   0.025
0.2375   0.5875   0.025
0.2375   0.6125   0.025
0.2375   0.6375   0.025
0.2375   0.6625   0.025
0.2375   0.6875   0.025
0.2375   0.7125   0.025
0.2375   0.7375   0.025
0.2375   0.7625   0.025
0.2375   0.7875   0.025
0.2375   0.8125   0.025
0.2375   0.8375   0.025
0.2375   0.8625   0.025
0.2375   0.8875   0.025
0.2375   0.9125   0.025
0.2375   0.9375   0.025
0.2375   0.9625   0.025
0.2375   0.9875   0.025
0.2625   0.0125   0.025
0.2625   0.0375   0.025
0.2625   0.0625   0.025
0.2625   0.0875   0.025
0.2625   0.1125   0.025
0.2625   0.1375   0.025
0.2625   0.1625   0.025
0.2625   0.1875   0.025
0.2625   0.2125   0.025
0.2625   0.2375   0.025
0.2625   0.2625   0.025
[...]
POINT_DATA   32000
VECTORS Velocidades double

3.90428e-05 0 0
0.000117179 0 0
0.000195584 0 0
0.000274544 0 0
0.000354395 0 0
0.00043552 0 0
0.000518342 0 0
0.00060332 0 0
0.000690958 0 0
0.000781806 0 0
0.000876475 0 0
0.000975648 0 0
0.0010801 0 0
0.00119073 0 0
0.00130858 0 0
0.00143489 0 0
0.00157116 0 0
0.00171918 0 0
0.00188117 0 0
0.00205986 0 0
0.00225864 0 0
0.00248178 0 0
0.00273467 0 0
0.00302414 0 0
0.00335905 0 0
0.00375093 0 0
0.0042151 0 0
0.00477235 0 0
0.00545154 0 0
0.00629376 0 0
0.00735946 0 0
0.00874088 0 0
0.0105852 0 0
0.0131408 0 0
0.0168564 0 0
0.0226188 0 0
0.0323939 0 0
0.0512446 0 0
0.0949523 0 0
0.225921 0 0
0.000111195 0 0
0.000333742 0 0
0.000557082 0 0
0.000782035 0 0
0.00100957 0 0
0.00124079 0 0
0.00147689 0 0
0.0017192 0 0
0.00196916 0 0
0.00222833 0 0
0.00249847 0 0
0.00278153 0 0
0.00307973 0 0
0.00339563 0 0
0.00373224 0 0
0.00409309 0 0
0.00448246 0 0
0.00490551 0 0
0.00536857 0 0
0.00587946 0 0
0.00644793 0 0
0.0070862 0 0
0.00780971 0 0
0.00863815 0 0
0.00959688 0 0
0.0107191 0 0
0.0120487 0 0
0.0136456 0 0
0.0155924 0 0
0.0180073 0 0
0.0210635 0 0
0.0250247 0 0
0.0303105 0 0
0.0376231 0 0
0.0482167 0 0
0.0645165 0 0
0.0917016 0 0
0.142285 0 0
0.251407 0 0
0.53661 0 0
0.000173586 0 0
0.000521031 0 0
0.000869782 0 0
0.00122115 0 0
0.00157668 0 0
0.00193809 0 0
0.0023073 0 0
0.00268636 0 0
0.00307756 0 0
0.00348336 0 0
0.00390651 0 0
0.00435009 0 0
0.0048176 0 0
0.00531306 0 0
0.00584119 0 0
0.00640758 0 0
0.00701894 0 0
0.00768341 0 0
0.00841095 0 0
0.00921388 0 0
0.0101076 0 0
0.0111113 0 0
0.0122494 0 0
0.0135532 0 0
0.0150626 0 0
0.0168301 0 0
0.0189253 0 0
0.0214425 0 0
0.0245126 0 0
0.0283214 0 0
0.0331413 0 0
0.0393848 0 0
0.0477029 0 0
0.0591724 0 0
0.0756783 0 0
0.100749 0 0
0.141528 0 0
0.213823 0 0
0.355917 0 0
0.665393 0 0
0.000229523 0 0
0.000688975 0 0
0.00115027 0 0
0.00161519 0 0
0.00208581 0 0
0.00256446 0 0
0.00305368 0 0
0.00355625 0 0
0.00407519 0 0
0.00461381 0 0
0.00517578 0 0
0.0057652 0 0
0.00638674 0 0
0.00704577 0 0
0.0077486 0 0
0.00850269 0 0
0.00931697 0 0
0.0102023 0 0
0.011172 0 0
0.0122425 0 0
0.0134343 0 0
0.0147733 0 0
0.016292 0 0
0.0180322 0 0
0.0200476 0 0
0.0224085 0 0
0.0252079 0 0
0.0285719 0 0
0.0326749 0 0
0.0377643 0 0
0.0442004 0 0
0.0525259 0 0
0.0635881 0 0
0.0787682 0 0
0.10043 0 0
0.13285 0 0
0.184259 0 0
0.271509 0 0
0.43068 0 0
0.735726 0 0
0.000280931 0 0
0.000843347 0 0
0.00140817 0 0
0.00197766 0 0
0.00255443 0 0
0.00314136 0 0
0.00374163 0 0
0.00435867 0 0
0.00499623 0 0
0.0056584 0 0
0.00634972 0 0
0.00707527 0 0
0.00784081 0 0
0.008653 0 0
0.00951961 0 0
0.0104499 0 0
0.0114548 0 0
0.0125479 0 0
0.0137455 0 0
0.0150678 0 0
0.0165404 0 0
0.0181949 0 0
0.0200719 0 0
0.022223 0 0
0.0247149 0 0
0.0276342 0 0
0.031096 0 0
0.0352556 0 0
0.0403274 0 0
0.0466142 0 0
0.054555 0 0
0.0648051 0 0
0.0783767 0 0
0.0968928 0 0
0.12307 0 0
0.161666 0 0
0.221428 0 0
0.319078 0 0
0.486825 0 0
0.779241 0 0
0.000328971 0 0
0.000987632 0 0
0.00164931 0 0
0.00231675 0 0
0.00299308 0 0
0.00368176 0 0
0.00438658 0 0
0.00511161 0 0
0.0058613 0 0
0.0066405 0 0
0.00745458 0 0
0.00830954 0 0
0.00921221 0 0
0.0101705 0 0
0.0111935 0 0
0.0122923 0 0
0.0134797 0 0
0.0147718 0 0
0.0161877 0 0
0.0177515 0 0
0.019493 0 0
0.0214498 0 0
0.0236697 0 0
0.0262138 0 0
0.0291608 0 0
0.032613 0 0
0.0367059 0 0
0.0416219 0 0
0.0476117 0 0
0.0550284 0 0
0.0643801 0 0
0.0764195 0 0
0.0922948 0 0
0.113819 0 0
0.143959 0 0
0.187762 0 0
0.254119 0 0
0.359028 0 0
0.530522 0 0
0.80843 0 0
0.000374365 0 0
0.001124 0 0
0.0018773 0 0
0.00263752 0 0
0.00340832 0 0
0.00419374 0 0
0.00499817 0 0
0.00582631 0 0
0.0066833 0 0
0.00757473 0 0
0.00850677 0 0
0.00948633 0 0
0.0105213 0 0
0.0116206 0 0
0.012795 0 0
0.0140569 0 0
0.0154213 0 0
0.0169064 0 0
0.0185344 0 0
0.0203325 0 0
0.022335 0 0
0.0245847 0 0
0.0271364 0 0
0.0300602 0 0
0.0334462 0 0
0.0374116 0 0
0.0421105 0 0
0.0477501 0 0
0.0546147 0 0
0.0631021 0 0
0.0737814 0 0
0.087488 0 0
0.105482 0 0
0.129721 0 0
0.163346 0 0
0.211551 0 0
0.283137 0 0
0.393091 0 0
0.565496 0 0
0.829225 0 0
0.000417569 0 0
0.00125382 0 0
0.00209443 0 0
0.00294319 0 0
0.00380433 0 0
0.00468245 0 0
0.00558253 0 0
0.00650995 0 0
0.00747048 0 0
0.00847046 0 0
0.00951684 0 0
0.0106174 0 0
0.011781 0 0
0.0130179 0 0
0.0143399 0 0
0.0157613 0 0
0.0172988 0 0
0.0189729 0 0
0.0208085 0 0
0.0228362 0 0
0.0250943 0 0
0.0276306 0 0
0.0305062 0 0
0.0337996 0 0
0.0376123 0 0
0.0420747 0 0
0.0473584 0 0
0.0536935 0 0
0.0613944 0 0
0.0708989 0 0
0.0828295 0 0
0.0980914 0 0
0.118035 0 0
0.144728 0 0
0.181422 0 0
0.233357 0 0
0.3091 0 0
0.422508 0 0
0.594134 0 0
0.844761 0 0
0.000458867 0 0
0.00137794 0 0
0.00230213 0 0
0.00323579 0 0
0.00418371 0 0
0.0051511 0 0
0.00614356 0 0
0.00716708 0 0
0.00822812 0 0
0.00933371 0 0
0.0104916 0 0
0.0117104 0 0
0.013 0 0
0.0143717 0 0
0.0158387 0 0
0.0174167 0 0
0.0191245 0 0
0.0209847 0 0
0.023025 0 0
0.0252793 0 0
0.0277897 0 0
0.0306087 0 0
0.0338031 0 0
0.037459 0 0
0.0416888 0 0
0.0466352 0 0
0.0524857 0 0
0.0594914 0 0
0.067994 0 0
0.0784668 0 0
0.0915782 0 0
0.108292 0 0
0.130032 0 0
0.158943 0 0
0.198343 0 0
0.253443 0 0
0.33249 0 0
0.448194 0 0
0.61804 0 0
0.856825 0 0
0.000498428 0 0
0.00149687 0 0
0.00250126 0 0
0.00351652 0 0
0.00454807 0 0
0.00560171 0 0
0.00668365 0 0
0.00780055 0 0
0.00895952 0 0
0.0101683 0 0
0.0114354 0 0
0.0127702 0 0
0.0141837 0 0
0.0156881 0 0
0.017298 0 0
0.0190306 0 0
0.0209066 0 0
0.0229508 0 0
0.0251935 0 0
0.0276723 0 0
0.0304333 0 0
0.0335347 0 0
0.0370504 0 0
0.0410787 0 0
0.0457217 0 0
0.0511424 0 0
0.0575454 0 0
0.0652013 0 0
0.0744765 0 0
0.0858759 0 0
0.100107 0 0
0.118183 0 0
0.141582 0 0
0.172505 0 0
0.214296 0 0
0.272087 0 0
0.353751 0 0
0.47089 0 0
0.638357 0 0
0.866511 0 0
0.000536333 0 0
0.00161086 0 0
0.00269223 0 0
0.003786 0 0
0.00489819 0 0
0.00603527 0 0
0.00720408 0 0
0.0084119 0 0
0.00966652 0 0
0.0109764 0 0
0.0123507 0 0
0.0137997 0 0
0.0153353 0 0
0.0169707 0 0
0.0187219 0 0
0.0206074 0 0
0.0226497 0 0
0.024876 0 0
0.0273192 0 0
0.0300202 0 0
0.0330296 0 0
0.0364112 0 0
0.040246 0 0
0.0446393 0 0
0.0496905 0 0
0.0555767 0 0
0.0625183 0 0
0.0708048 0 0
0.0808253 0 0
0.093112 0 0
0.108407 0 0
0.127762 0 0
0.152699 0 0
0.185453 0 0
0.229363 0 0
0.289449 0 0
0.373181 0 0
0.491119 0 0
0.655875 0 0
0.874493 0 0
0.000572591 0 0
0.00171994 0 0
0.0028751 0 0
0.00404431 0 0
0.00523426 0 0
0.00645206 0 0
0.0077052 0 0
0.00900163 0 0
0.0103498 0 0
0.0117588 0 0
0.0132386 0 0
0.0148003 0 0
0.0164564 0 0
0.0182215 0 0
0.0201125 0 0
0.0221494 0 0
0.0243565 0 0
0.0267628 0 0
0.029404 0 0
0.0323241 0 0
0.0355775 0 0
0.0392322 0 0
0.0433734 0 0
0.0481062 0 0
0.0535531 0 0
0.0598924 0 0
0.0673569 0 0
0.0762527 0 0
0.0869889 0 0
0.100123 0 0
0.116425 0 0
0.13698 0 0
0.16334 0 0
0.197762 0 0
0.243557 0 0
0.305606 0 0
0.39097 0 0
0.509242 0 0
0.671131 0 0
0.881193 0 0
0.00060716 0 0
0.00182398 0 0
0.00304969 0 0
0.00429122 0 0
0.00555598 0 0
0.00685176 0 0
0.00818674 0 0
0.0095695 0 0
0.0110092 0 0
0.0125155 0 0
0.0140992 0 0
0.0157721 0 0
0.0175476 0 0
0.019441 0 0
0.0214706 0 0
0.0236577 0 0
0.0260278 0 0
0.0286123 0 0
0.0314489 0 0
0.0345844 0 0
0.0380765 0 0
0.0419966 0 0
0.0464337 0 0
0.051498 0 0
0.0573268 0 0
0.0641051 0 0
0.0720761 0 0
0.0815599 0 0
0.0929838 0 0
0.106926 0 0
0.124183 0 0
0.145864 0 0
0.173546 0 0
0.209488 0 0
0.256961 0 0
0.32069 0 0
0.407331 0 0
0.525588 0 0
0.684559 0 0
0.886917 0 0
0.000639949 0 0
0.00192272 0 0
0.00321555 0 0
0.00452613 0 0
0.00586263 0 0
0.00723356 0 0
0.00864778 0 0
0.0101146 0 0
0.0116437 0 0
0.0132456 0 0
0.0149317 0 0
0.0167144 0 0
0.0186081 0 0
0.0206289 0 0
0.022796 0 0
0.0251319 0 0
0.0276639 0 0
0.0304246 0 0
0.0334541 0 0
0.0368016 0 0
0.0405276 0 0
0.044707 0 0
0.049433 0 0
0.054822 0 0
0.0610218 0 0
0.0682258 0 0
0.076687 0 0
0.0867384 0 0
0.098823 0 0
0.113538 0 0
0.1317 0 0
0.15444 0 0
0.183347 0 0
0.220677 0 0
0.269647 0 0
0.334814 0 0
0.422441 0 0
0.540423 0 0
0.696487 0 0
0.89188 0 0
0.00067082 0 0
0.00201575 0 0
0.00337201 0 0
0.00474813 0 0
0.00615308 0 0
0.00759613 0 0
0.00908686 0 0
0.0106353 0 0
0.0122517 0 0
0.0139474 0 0
0.0157343 0 0
0.0176257 0 0
0.0196364 0 0
0.0217836 0 0
0.0240874 0 0
0.0265713 0 0
0.0292638 0 0
0.0321992 0 0
0.0354196 0 0
0.0389761 0 0
0.0429322 0 0
0.0473661 0 0
0.0523756 0 0
0.0580832 0 0
0.0646448 0 0
0.0722623 0 0
0.0811983 0 0
0.0917976 0 0
0.104517 0 0
0.119971 0 0
0.138991 0 0
0.162726 0 0
0.192773 0 0
0.231372 0 0
0.281677 0 0
0.348074 0 0
0.436448 0 0
0.553959 0 0
0.707168 0 0
0.896237 0 0
0.000699592 0 0
0.00210252 0 0
0.00351818 0 0
0.004956 0 0
0.0064258 0 0
0.00793765 0 0
0.00950191 0 0
0.0111293 0 0
0.0128308 0 0
0.0146184 0 0
0.0165046 0 0
0.0185033 0 0
0.0206301 0 0
0.022903 0 0
0.0253427 0 0
0.0279738 0 0
0.0308261 0 0
0.0339352 0 0
0.0373447 0 0
0.0411081 0 0
0.0452914 0 0
0.0499763 0 0
0.0552648 0 0
0.0612851 0 0
0.0682004 0 0
0.0762203 0 0
0.0856168 0 0
0.0967454 0 0
0.110076 0 0
0.126235 0 0
0.146071 0 0
0.170743 0 0
0.201849 0 0
0.241609 0 0
0.293107 0 0
0.360555 0 0
0.449479 0 0
0.566371 0 0
0.716803 0 0
0.900101 0 0
0.000726037 0 0
0.00218236 0 0
0.00365294 0 0
0.0051482 0 0
0.00667885 0 0
0.00825583 0 0
0.0098903 0 0
0.0115937 0 0
0.0133779 0 0
0.0152552 0 0
0.017239 0 0
0.0193438 0 0
0.0215859 0 0
0.0239837 0 0
0.0265589 0 0
0.0293369 0 0
0.0323485 0 0
0.0356306 0 0
0.0392284 0 0
0.0431974 0 0
0.0476059 0 0
0.052539 0 0
0.0581026 0 0
0.0644305 0 0
0.071692 0 0
0.0801044 0 0
0.089948 0 0
0.101588 0 0
0.115506 0 0
0.132341 0 0
0.152952 0 0
0.178505 0 0
0.210597 0 0
0.251422 0 0
0.303985 0 0
0.37233 0 0
0.461638 0 0
0.577804 0 0
0.725549 0 0
0.90356 0 0
0.000749886 0 0
0.00225447 0 0
0.00377497 0 0
0.00532287 0 0
0.00690987 0 0
0.00854784 0 0
0.0102488 0 0
0.0120249 0 0
0.0138889 0 0
0.0158537 0 0
0.0179332 0 0
0.0201428 0 0
0.0224991 0 0
0.0250213 0 0
0.0277318 0 0
0.0306567 0 0
0.0338277 0 0
0.0372828 0 0
0.0410686 0 0
0.0452425 0 0
0.0498752 0 0
0.0550545 0 0
0.0608904 0 0
0.0675213 0 0
0.0751226 0 0
0.0839183 0 0
0.0941967 0 0
0.106332 0 0
0.120816 0 0
0.138297 0 0
0.159644 0 0
0.186028 0 0
0.219038 0 0
0.260838 0 0
0.314355 0 0
0.383462 0 0
0.473019 0 0
0.588378 0 0
0.733532 0 0
0.906679 0 0
0.000770822 0 0
0.00231788 0 0
0.00388268 0 0
0.00547783 0 0
0.00711609 0 0
0.00881032 0 0
0.0105734 0 0
0.0124185 0 0
0.014359 0 0
0.0164085 0 0
0.0185818 0 0
0.0208945 0 0
0.0233641 0 0
0.0260103 0 0
0.028856 0 0
0.0319281 0 0
0.0352589 0 0
0.0388876 0 0
0.0428621 0 0
0.0472411 0 0
0.0520976 0 0
0.0575223 0 0
0.0636285 0 0
0.0705589 0 0
0.0784944 0 0
0.0876654 0 0
0.0983672 0 0
0.110983 0 0
0.126011 0 0
0.144112 0 0
0.166159 0 0
0.193326 0 0
0.227192 0 0
0.269887 0 0
0.324255 0 0
0.394008 0 0
0.4837 0 0
0.598194 0 0
0.740857 0 0
0.909511 0 0
0.00078849 0 0
0.00237154 0 0
0.0039743 0 0
0.00561059 0 0
0.00729432 0 0
0.0090394 0 0
0.0108598 0 0
0.0127694 0 0
0.0147824 0 0
0.0169135 0 0
0.0191779 0 0
0.0215921 0 0
0.0241738 0 0
0.0269436 0 0
0.0299246 0 0
0.0331445 0 0
0.0366362 0 0
0.0404397 0 0
0.044604 0 0
0.0491893 0 0
0.0542705 0 0
0.0599408 0 0
0.0663169 0 0
0.073546 0 0
0.081812 0 0
0.0913516 0 0
0.102467 0 0
0.115549 0 0
0.131104 0 0
0.149799 0 0
0.172513 0 0
0.200419 0 0
0.235084 0 0
0.2786 0 0
0.33373 0 0
0.404024 0 0
0.493755 0 0
0.607342 0 0
0.747611 0 0
0.9121 0 0
0.000802483 0 0
0.00241423 0 0
0.00404779 0 0
0.00571829 0 0
0.00744086 0 0
0.00923054 0 0
0.0111023 0 0
0.0130712 0 0
0.0151524 0 0
0.0173611 0 0
0.0197136 0 0
0.0222268 0 0
0.0249193 0 0
0.0278119 0 0
0.0309285 0 0
0.0342971 0 0
0.0379512 0 0
0.0419314 0 0
0.0462875 0 0
0.0510812 0 0
0.0563888 0 0
0.0623059 0 0
0.0689521 0 0
0.0764784 0 0
0.0850717 0 0
0.0949743 0 0
0.106495 0 0
0.12003 0 0
0.136095 0 0
0.155361 0 0
0.178712 0 0
0.207317 0 0
0.242727 0 0
0.286997 0 0
0.342808 0 0
0.413554 0 0
0.503243 0 0
0.615894 0 0
0.753866 0 0
0.914478 0 0
0.000812351 0 0
0.00244459 0 0
0.00410087 0 0
0.0057977 0 0
0.0075515 0 0
0.00937855 0 0
0.011295 0 0
0.013317 0 0
0.0154606 0 0
0.0177422 0 0
0.0201788 0 0
0.0227881 0 0
0.0255894 0 0
0.028604 0 0
0.0318562 0 0
0.0353745 0 0
0.0391928 0 0
0.0433522 0 0
0.0479031 0 0
0.052908 0 0
0.0584447 0 0
0.0646105 0 0
0.0715272 0 0
0.0793482 0 0
0.0882658 0 0
0.0985263 0 0
0.110444 0 0
0.124421 0 0
0.140979 0 0
0.160794 0 0
0.184751 0 0
0.214017 0 0
0.250125 0 0
0.295089 0 0
0.351508 0 0
0.422628 0 0
0.512209 0 0
0.623908 0 0
0.759676 0 0
0.916671 0 0
0.000817615 0 0
0.00246117 0 0
0.00413109 0 0
0.00584533 0 0
0.00762167 0 0
0.00947769 0 0
0.0114308 0 0
0.0134984 0 0
0.0156977 0 0
0.0180462 0 0
0.0205618 0 0
0.0232633 0 0
0.0261705 0 0
0.0293056 0 0
0.0326932 0 0
0.0363623 0 0
0.0403469 0 0
0.0446885 0 0
0.049438 0 0
0.0546583 0 0
0.060428 0 0
0.0668457 0 0
0.074035 0 0
0.0821517 0 0
0.0913921 0 0
0.102007 0 0
0.114314 0 0
0.128723 0 0
0.145758 0 0
0.166101 0 0
0.190639 0 0
0.220531 0 0
0.257292 0 0
0.302894 0 0
0.359856 0 0
0.431283 0 0
0.520701 0 0
0.631437 0 0
0.765091 0 0
0.918702 0 0
0.000817769 0 0
0.00246244 0 0
0.00413586 0 0
0.00585746 0 0
0.00764641 0 0
0.0095217 0 0
0.0115021 0 0
0.0136063 0 0
0.0158529 0 0
0.0182608 0 0
0.0208489 0 0
0.0236371 0 0
0.0266463 0 0
0.0298992 0 0
0.0334213 0 0
0.0372417 0 0
0.0413949 0 0
0.0459224 0 0
0.0508751 0 0
0.0563161 0 0
0.0623246 0 0
0.0689995 0 0
0.0764659 0 0
0.0848814 0 0
0.0944456 0 0
0.105412 0 0
0.118105 0 0
0.132936 0 0
0.150436 0 0
0.171289 0 0
0.196381 0 0
0.226866 0 0
0.264238 0 0
0.310428 0 0
0.367876 0 0
0.439549 0 0
0.528756 0 0
0.638528 0 0
0.770154 0 0
0.920589 0 0
0.000812299 0 0
0.00244684 0 0
0.0041125 0 0
0.00583018 0 0
0.00762049 0 0
0.00950386 0 0
0.0115005 0 0
0.0136307 0 0
0.0159144 0 0
0.018372 0 0
0.021024 0 0
0.0238915 0 0
0.0269967 0 0
0.0303634 0 0
0.0340178 0 0
0.0379894 0 0
0.0423129 0 0
0.04703 0 0
0.0521914 0 0
0.0578601 0 0
0.0641148 0 0
0.0710549 0 0
0.0788057 0 0
0.0875261 0 0
0.0974178 0 0
0.108737 0 0
0.121812 0 0
0.137059 0 0
0.155012 0 0
0.176358 0 0
0.201983 0 0
0.23303 0 0
0.270976 0 0
0.317708 0 0
0.375589 0 0
0.447454 0 0
0.536413 0 0
0.645222 0 0
0.774901 0 0
0.92235 0 0
0.000800701 0 0
0.00241283 0 0
0.00405835 0 0
0.00575958 0 0
0.00753856 0 0
0.00941719 0 0
0.0114172 0 0
0.0135605 0 0
0.0158687 0 0
0.018364 0 0
0.0210686 0 0
0.0240054 0 0
0.0271982 0 0
0.030672 0 0
0.0344542 0 0
0.0385752 0 0
0.04307 0 0
0.0479803 0 0
0.0533563 0 0
0.0592607 0 0
0.0657714 0 0
0.0729872 0 0
0.0810332 0 0
0.0900682 0 0
0.100295 0 0
0.111972 0 0
0.12543 0 0
0.141089 0 0
0.159487 0 0
0.181312 0 0
0.207448 0 0
0.239031 0 0
0.277515 0 0
0.324747 0 0
0.383013 0 0
0.455025 0 0
0.543701 0 0
0.651553 0 0
0.779364 0 0
0.923997 0 0
0.000782505 0 0
0.00235895 0 0
0.00397087 0 0
0.00564188 0 0
0.00739538 0 0
0.00925468 0 0
0.0112431 0 0
0.0133842 0 0
0.0157017 0 0
0.0182195 0 0
0.0209622 0 0
0.0239546 0 0
0.0272228 0 0
0.0307936 0 0
0.034696 0 0
0.0389617 0 0
0.0436264 0 0
0.048732 0 0
0.0543285 0 0
0.0604774 0 0
0.0672559 0 0
0.0747612 0 0
0.0831169 0 0
0.0924809 0 0
0.103055 0 0
0.1151 0 0
0.128946 0 0
0.145018 0 0
0.163855 0 0
0.186149 0 0
0.212779 0 0
0.244873 0 0
0.283865 0 0
0.331557 0 0
0.390166 0 0
0.462283 0 0
0.55065 0 0
0.657553 0 0
0.783569 0 0
0.925542 0 0
0.000757311 0 0
0.00228397 0 0
0.00384785 0 0
0.0054737 0 0
0.0071861 0 0
0.0090097 0 0
0.0109694 0 0
0.0130905 0 0
0.0153986 0 0
0.0179202 0 0
0.0206821 0 0
0.0237119 0 0
0.0270383 0 0
0.0306908 0 0
0.0347008 0 0
0.039102 0 0
0.0439314 0 0
0.0492316 0 0
0.0550525 0 0
0.0614548 0 0
0.0685139 0 0
0.0763251 0 0
0.0850098 0 0
0.0947229 0 0
0.105664 0 0
0.118091 0 0
0.132338 0 0
0.14883 0 0
0.168108 0 0
0.190863 0 0
0.217975 0 0
0.25056 0 0
0.290031 0 0
0.338151 0 0
0.397065 0 0
0.46925 0 0
0.557285 0 0
0.663251 0 0
0.787541 0 0
0.926996 0 0
0.000724827 0 0
0.00218697 0 0
0.00368761 0 0
0.00525233 0 0
0.00690669 0 0
0.00867648 0 0
0.010588 0 0
0.0126683 0 0
0.0149451 0 0
0.0174473 0 0
0.0202046 0 0
0.0232478 0 0
0.0266089 0 0
0.030321 0 0
0.0344187 0 0
0.038939 0 0
0.0439213 0 0
0.0494098 0 0
0.0554549 0 0
0.0621168 0 0
0.0694691 0 0
0.0776044 0 0
0.086641 0 0
0.0967297 0 0
0.108064 0 0
0.1209 0 0
0.135569 0 0
0.152496 0 0
0.172224 0 0
0.195442 0 0
0.223028 0 0
0.256089 0 0
0.296017 0 0
0.344535 0 0
0.403721 0 0
0.475943 0 0
0.563627 0 0
0.668667 0 0
0.791296 0 0
0.928365 0 0
0.000684915 0 0
0.00206747 0 0
0.00348919 0 0
0.00497612 0 0
0.00655441 0 0
0.00825072 0 0
0.0100925 0 0
0.0121084 0 0
0.0143281 0 0
0.0167831 0 0
0.0195062 0 0
0.0225318 0 0
0.0258959 0 0
0.0296361 0 0
0.0337919 0 0
0.0384044 0 0
0.0435175 0 0
0.0491783 0 0
0.0554394 0 0
0.062361 0 0
0.0700148 0 0
0.0784894 0 0
0.0878959 0 0
0.0983719 0 0
0.110133 0 0
0.123414 0 0
0.13854 0 0
0.155931 0 0
0.176128 0 0
0.199819 0 0
0.227878 0 0
0.261406 0 0
0.301773 0 0
0.350667 0 0
0.410098 0 0
0.482335 0 0
0.569659 0 0
0.673792 0 0
0.794827 0 0
0.929638 0 0
0.000637629 0 0
0.0019256 0 0
0.00325263 0 0
0.00464476 0 0
0.00612829 0 0
0.00773028 0 0
0.00947898 0 0
0.0114042 0 0
0.0135375 0 0
0.0159126 0 0
0.0185655 0 0
0.0215345 0 0
0.0248602 0 0
0.0285857 0 0
0.0327563 0 0
0.0374196 0 0
0.0426257 0 0
0.0484275 0 0
0.0548818 0 0
0.0620513 0 0
0.0700075 0 0
0.0788349 0 0
0.0886372 0 0
0.0995439 0 0
0.111777 0 0
0.125558 0 0
0.141194 0 0
0.159096 0 0
0.179798 0 0
0.203985 0 0
0.232527 0 0
0.266517 0 0
0.307311 0 0
0.356559 0 0
0.416212 0 0
0.488443 0 0
0.5754 0 0
0.678648 0 0
0.798157 0 0
0.930831 0 0
0.000583262 0 0
0.00176219 0 0
0.00297919 0 0
0.00425971 0 0
0.00562964 0 0
0.00711591 0 0
0.00874694 0 0
0.0105532 0 0
0.0125675 0 0
0.0148255 0 0
0.0173659 0 0
0.0202309 0 0
0.0234659 0 0
0.02712 0 0
0.0312456 0 0
0.0358985 0 0
0.0411378 0 0
0.0470252 0 0
0.0536261 0 0
0.06101 0 0
0.0692526 0 0
0.0784394 0 0
0.0886723 0 0
0.100082 0 0
0.112857 0 0
0.127214 0 0
0.143444 0 0
0.161938 0 0
0.183216 0 0
0.207952 0 0
0.237009 0 0
0.271474 0 0
0.312688 0 0
0.362273 0 0
0.422124 0 0
0.494328 0 0
0.580907 0 0
0.683284 0 0
0.801322 0 0
0.931964 0 0
0.000522392 0 0
0.00157895 0 0
0.00267161 0 0
0.00382461 0 0
0.00506277 0 0
0.00641216 0 0
0.00790069 0 0
0.00955865 0 0
0.0114193 0 0
0.0135194 0 0
0.0158997 0 0
0.0186052 0 0
0.021686 0 0
0.025197 0 0
0.0291984 0 0
0.0337554 0 0
0.0389384 0 0
0.0448218 0 0
0.0514847 0 0
0.0590098 0 0
0.0674848 0 0
0.0770042 0 0
0.0876747 0 0
0.0996247 0 0
0.113019 0 0
0.128057 0 0
0.145006 0 0
0.164226 0 0
0.186207 0 0
0.2116 0 0
0.241252 0 0
0.276238 0 0
0.31789 0 0
0.367807 0 0
0.427842 0 0
0.500001 0 0
0.586196 0 0
0.687725 0 0
0.804353 0 0
0.933058 0 0
0.000455905 0 0
0.00137852 0 0
0.00233429 0 0
0.00334553 0 0
0.0044353 0 0
0.00562803 0 0
0.0069502 0 0
0.008431 0 0
0.0101029 0 0
0.0120026 0 0
0.0141714 0 0
0.0166561 0 0
0.0195096 0 0
0.0227917 0 0
0.0265696 0 0
0.030918 0 0
0.0359195 0 0
0.0416644 0 0
0.0482498 0 0
0.0557796 0 0
0.0643632 0 0
0.0741161 0 0
0.0851616 0 0
0.0976356 0 0
0.111694 0 0
0.12752 0 0
0.145349 0 0
0.165497 0 0
0.188401 0 0
0.21466 0 0
0.245081 0 0
0.280713 0 0
0.322873 0 0
0.37315 0 0
0.433366 0 0
0.505468 0 0
0.591269 0 0
0.691946 0 0
0.807184 0 0
0.934046 0 0
0.000385018 0 0
0.00116458 0 0
0.00197337 0 0
0.00283118 0 0
0.00375854 0 0
0.00477745 0 0
0.00591201 0 0
0.00718912 0 0
0.00863922 0 0
0.0102971 0 0
0.0122029 0 0
0.0144028 0 0
0.0169505 0 0
0.0199078 0 0
0.0233461 0 0
0.0273475 0 0
0.0320053 0 0
0.0374252 0 0
0.0437251 0 0
0.0510348 0 0
0.0594955 0 0
0.0692578 0 0
0.0804813 0 0
0.0933329 0 0
0.107988 0 0
0.124634 0 0
0.143487 0 0
0.164813 0 0
0.188974 0 0
0.216478 0 0
0.248034 0 0
0.284615 0 0
0.327494 0 0
0.378245 0 0
0.438687 0 0
0.510747 0 0
0.596184 0 0
0.696104 0 0
0.810127 0 0
0.935203 0 0
0.000311274 0 0
0.000941793 0 0
0.00159681 0 0
0.00229295 0 0
0.00304762 0 0
0.00387959 0 0
0.0048096 0 0
0.00586112 0 0
0.00706105 0 0
0.00844058 0 0
0.0100362 0 0
0.0118909 0 0
0.0140553 0 0
0.0165895 0 0
0.0195645 0 0
0.023064 0 0
0.0271869 0 0
0.0320487 0 0
0.0377839 0 0
0.044547 0 0
0.0525135 0 0
0.0618795 0 0
0.0728598 0 0
0.0856843 0 0
0.100593 0 0
0.117829 0 0
0.137643 0 0
0.160297 0 0
0.186092 0 0
0.215414 0 0
0.248804 0 0
0.287043 0 0
0.331236 0 0
0.38286 0 0
0.443722 0 0
0.515777 0 0
0.600762 0 0
0.699645 0 0
0.811989 0 0