# vtk DataFile Version 2.0
Velocidades
ASCII

DATASET STRUCTURED_GRID
DIMENSIONS   40   40   20

POINTS   32000   double
0.0125   0.0125   0.025
0.0125   0.0375   0.025
0.0125   0.0625   0.025
0.0125   0.0875   0.025
0.0125   0.1125   0.025
0.0125   0.1375   0.025
0.0125   0.1625   0.025
0.0125   0.1875   0.025
0.0125   0.2125   0.025
0.0125   0.2375   0.025
0.0125   0.2625   0.025
0.0125   0.2875   0.025
0.0125   0.3125   0.025
0.0125   0.3375   0.025
0.0125   0.3625   0.025
0.0125   0.3875   0.025
0.0125   0.4125   0.025
0.0125   0.4375   0.025
0.0125   0.4625   0.025
0.0125   0.4875   0.025
0.0125   0.5125   0.025
0.0125   0.5375   0.025
0.0125   0.5625   0.025
0.0125   0.5875   0.025
0.0125   0.6125   0.025
0.0125   0.6375   0.025
0.0125   0.6625   0.025
0.0125   0.6875   0.025
0.0125   0.7125   0.025
0.0125   0.7375   0.025
0.0125   0.7625   0.025
0.0125   0.7875   0.025
0.0125   0.8125   0.025
0.0125   0.8375   0.025
0.0125   0.8625   0.025
0.0125   0.8875   0.025
0.0125   0.9125   0.025
0.0125   0.9375   0.025
0.0125   0.9625   0.025
0.0125   0.9875   0.025
0.0375   0.0125   0.025
0.0375   0.0375   0.025
0.0375   0.0625   0.025
0.0375   0.0875   0.025
0.0375   0.1125   0.025
0.0375   0.1375   0.025
0.0375   0.1625   0.025
0.0375   0.1875   0.025
0.0375   0.2125   0.025
0.0375   0.2375   0.025
0.0375   0.2625   0.025
0.0375   0.2875   0.025
0.0375   0.3125   0.025
0.0375   0.3375   0.025
0.0375   0.3625   0.025
0.0375   0.3875   0.025
0.0375   0.4125   0.025
0.0375   0.4375   0.025
0.0375   0.4625   0.025
0.0375   0.4875   0.025
0.0375   0.5125   0.025
0.0375   0.5375   0.025
0.0375   0.5625   0.025
0.0375   0.5875   0.025
0.0375   0.6125   0.025
0.0375   0.6375   0.025
0.0375   0.6625   0.025
0.0375   0.6875   0.025
0.0375   0.7125   0.025
0.0375   0.7375   0.025
0.0375   0.7625   0.025
0.0375   0.7875   0.025
0.0375   0.8125   0.025
0.0375   0.8375   0.025
0.0375   0.8625   0.025
0.0375   0.8875   0.025
0.0375   0.9125   0.025
0.0375   0.9375   0.025
0.0375   0.9625   0.025
0.0375   0.9875   0.025
0.0625   0.0125   0.025
0.0625   0.0375   0.025
0.0625   0.0625   0.025
0.0625   0.0875   0.025
0.0625   0.1125   0.025
0.0625   0.1375   0.025
0.0625   0.1625   0.025
0.0625   0.1875   0.025
0.0625   0.2125   0.025
0.0625   0.2375   0.025
0.0625   0.2625   0.025
0.0625   0.2875   0.025
0.0625   0.3125   0.025
0.0625   0.3375   0.025
0.0625   0.3625   0.025
0.0625   0.3875   0.025
0.0625   0.4125   0.025
0.0625   0.4375   0.025
0.0625   0.4625   0.025
0.0625   0.4875   0.025
0.0625   0.5125   0.025
0.0625   0.5375   0.025
0.0625   0.5625   0.025
0.0625   0.5875   0.025
0.0625   0.6125   0.025
0.0625   0.6375   0.025
0.0625   0.6625   0.025
0.0625   0.6875   0.025
0.0625   0.7125   0.025
0.0625   0.7375   0.025
0.0625   0.7625   0.025
0.0625   0.7875   0.025
0.0625   0.8125   0.025
0.0625   0.8375   0.025
0.0625   0.8625   0.025
0.0625   0.8875   0.025
0.0625   0.9125   0.025
0.0625   0.9375   0.025
0.0625   0.9625   0.025
0.0625   0.9875   0.025
0.0875   0.0125   0.025
0.0875   0.0375   0.025
0.0875   0.0625   0.025
0.0875   0.0875   0.025
0.0875   0.1125   0.025
0.0875   0.1375   0.025
0.0875   0.1625   0.025
0.0875   0.1875   0.025
0.0875   0.2125   0.025
0.0875   0.2375   0.025
0.0875   0.2625   0.025
0.0875   0.2875   0.025
0.0875   0.3125   0.025
0.0875   0.3375   0.025
0.0875   0.3625   0.025
0.0875   0.3875   0.025
0.0875   0.4125   0.025
0.0875   0.4375   0.025
0.0875   0.4625   0.025
0.0875   0.4875   0.025
0.0875   0.5125   0.025
0.0875   0.5375   0.025
0.0875   0.5625   0.025
0.0875   0.5875   0.025
0.0875   0.6125   0.025
0.0875   0.6375   0.025
0.0875   0.6625   0.025
0.0875   0.6875   0.025
0.0875   0.7125   0.025
0.0875   0.7375   0.025
0.0875   0.7625   0.025
0.0875   0.7875   0.025
0.0875   0.8125   0.025
0.0875   0.8375   0.025
0.0875   0.8625   0.025
0.0875   0.8875   0.025
0.0875   0.9125   0.025
0.0875   0.9375   0.025
0.0875   0.9625   0.025
0.0875   0.9875   0.025
0.1125   0.0125   0.025
0.1125   0.0375   0.025
0.1125   0.0625   0.025
0.1125   0.0875   0.025
0.1125   0.1125   0.025
0.1125   0.1375   0.025
0.1125   0.1625   0.025
0.1125   0.1875   0.025
0.1125   0.2125   0.025
0.1125   0.2375   0.025
0.1125   0.2625   0.025
0.1125   0.2875   0.025
0.1125   0.3125   0.025
0.1125   0.3375   0.025
0.1125   0.3625   0.025
0.1125   0.3875   0.025
0.1125   0.4125   0.025
0.1125   0.4375   0.025
0.1125   0.4625   0.025
0.1125   0.4875   0.025
0.1125   0.5125   0.025
0.1125   0.5375   0.025
0.1125   0.5625   0.025
0.1125   0.5875   0.025
0.1125   0.6125   0.025
0.1125   0.6375   0.025
0.1125   0.6625   0.025
0.1125   0.6875   0.025
0.1125   0.7125   0.025
0.1125   0.7375   0.025
0.1125   0.7625   0.025
0.1125   0.7875   0.025
0.1125   0.8125   0.025
0.1125   0.8375   0.025
0.1125   0.8625   0.025
0.1125   0.8875   0.025
0.1125   0.9125   0.025
0.1125   0.9375   0.025
0.1125   0.9625   0.025
0.1125   0.9875   0.025
0.1375   0.0125   0.025
0.1375   0.0375   0.025
0.1375   0.0625   0.025
0.1375   0.0875   0.025
0.1375   0.1125   0.025
0.1375   0.1375   0.025
0.1375   0.1625   0.025
0.1375   0.1875   0.025
0.1375   0.2125   0.025
0.1375   0.2375   0.025
0.1375   0.2625   0.025
0.1375   0.2875   0.025
0.1375   0.3125   0.025
0.1375   0.3375   0.025
0.1375   0.3625   0.025
0.1375   0.3875   0.025
0.1375   0.4125   0.025
0.1375   0.4375   0.025
0.1375   0.4625   0.025
0.1375   0.4875   0.025
0.1375   0.5125   0.025
0.1375   0.5375   0.025
0.1375   0.5625   0.025
0.1375   0.5875   0.025
0.1375   0.6125   0.025
0.1375   0.6375   0.025
0.1375   0.6625   0.025
0.1375   0.6875   0.025
0.1375   0.7125   0.025
0.1375   0.7375   0.025
0.1375   0.7625   0.025
0.1375   0.7875   0.025
0.1375   0.8125   0.025
0.1375   0.8375   0.025
0.1375   0.8625   0.025
0.1375   0.8875   0.025
0.1375   0.9125   0.025
0.1375   0.9375   0.025
0.1375   0.9625   0.025
0.1375   0.9875   0.025
0.1625   0.0125   0.025
0.1625   0.0375   0.025
0.1625   0.0625   0.025
0.1625   0.0875   0.025
0.1625   0.1125   0.025
0.1625   0.1375   0.025
0.1625   0.1625   0.025
0.1625   0.1875   0.025
0.1625   0.2125   0.025
0.1625   0.2375   0.025
0.1625   0.2625   0.025
0.1625   0.2875   0.025
0.1625   0.3125   0.025
0.1625   0.3375   0.025
0.1625   0.3625   0.025
0.1625   0.3875   0.025
0.1625   0.4125   0.025
0.1625   0.4375   0.025
0.1625   0.4625   0.025
0.1625   0.4875   0.025
0.1625   0.5125   0.025
0.1625   0.5375   0.025
0.1625   0.5625   0.025
0.1625   0.5875   0.025
0.1625   0.6125   0.025
0.1625   0.6375   0.025
0.1625   0.6625   0.025
0.1625   0.6875   0.025
0.1625   0.7125   0.025
0.1625   0.7375   0.025
0.1625   0.7625   0.025
0.1625   0.7875   0.025
0.1625   0.8125   0.025
0.1625   0.8375   0.025
0.1625   0.8625   0.025
0.1625   0.8875   0.025
0.1625   0.9125   0.025
0.1625   0.9375   0.025
0.1625   0.9625   0.025
0.1625   0.9875   0.025
0.1875   0.0125   0.025
0.1875   0.0375   0.025
0.1875   0.0625   0.025
0.1875   0.0875   0.025
0.1875   0.1125   0.025
0.1875   0.1375   0.025
0.1875   0.1625   0.025
0.1875   0.1875   0.025
0.1875   0.2125   0.025
0.1875   0.2375   0.025
0.1875   0.2625   0.025
0.1875   0.2875   0.025
0.1875   0.3125   0.025
0.1875   0.3375   0.025
0.1875   0.3625   0.025
0.1875   0.3875   0.025
0.1875   0.4125   0.025
0.1875   0.4375   0.025
0.1875   0.4625   0.025
0.1875   0.4875   0.025
0.1875   0.5125   0.025
0.1875   0.5375   0.025
0.1875   0.5625   0.025
0.1875   0.5875   0.025
0.1875   0.6125   0.025
0.1875   0.6375   0.025
0.1875   0.6625   0.025
0.1875   0.6875   0.025
0.1875   0.7125   0.025
0.1875   0.7375   0.025
0.1875   0.7625   0.025
0.1875   0.7875   0.025
0.1875   0.8125   0.025
0.1875   0.8375   0.025
0.1875   0.8625   0.025
0.1875   0.8875   0.025
0.1875   0.9125   0.025
0.1875   0.9375   0.025
0.1875   0.9625   0.025
0.1875   0.9875   0.025
0.2125   0.0125   0.025
0.2125   0.0375   0.025
0.2125   0.0625   0.025
0.2125   0.0875   0.025
0.2125   0.1125   0.025
0.2125   0.1375   0.025
0.2125   0.1625   0.025
0.2125   0.1875   0.025
0.2125   0.2125   0.025
0.2125   0.2375   0.025
0.2125   0.2625   0.025
0.2125   0.2875   0.025
0.2125   0.3125   0.025
0.2125   0.3375   0.025
0.2125   0.3625   0.025
0.2125   0.3875   0.025
0.2125   0.4125   0.025
0.2125   0.4375   0.025
0.2125   0.4625   0.025
0.2125   0.4875   0.025
0.2125   0.5125   0.025
0.2125   0.5375   0.025
0.2125   0.5625   0.025
0.2125   0.5875   0.025
0.2125   0.6125   0.025
0.2125   0.6375   0.025
0.2125   0.6625   0.025
0.2125   0.6875   0.025
0.2125   0.7125   0.025
0.2125   0.7375   0.025
0.2125   0.7625   0.025
0.2125   0.7875   0.025
0.2125   0.8125   0.025
0.2125   0.8375   0.025
0.2125   0.8625   0.025
0.2125   0.8875   0.025
0.2125   0.9125   0.025
0.2125   0.9375   0.025
0.2125   0.9625   0.025
0.2125   0.9875   0.025
0.2375   0.0125   0.025
0.2375   0.0375   0.025
0.2375   0.0625   0.025
0.2375   0.0875   0.025
0.2375   0.1125   0.025
0.2375   0.1375   0.025
0.2375   0.1625   0.025
0.2375   0.1875   0.025
0.2375   0.2125   0.025
0.2375   0.2375   0.025
0.2375   0.2625   0.025
0.2375   0.2875   0.025
0.2375   0.3125   0.025
0.2375   0.3375   0.025
0.2375   0.3625   0.025
0.2375   0.3875   0.025
0.2375   0.4125   0.025
0.2375   0.4375   0.025
0.2375   0.4625   0.025
0.2375   0.4875   0.025
0.2375   0.5125   0.025
0.2375   0.5375   0.025
0.2375   0.5625   0.025
0.2375   0.5875   0.025
0.2375   0.6125   0.025
0.2375   0.6375   0.025
0.2375   0.6625   0.025
0.2375   0.6875   0.025
0.2375   0.7125   0.025
0.2375   0.7375   0.025
0.2375   0.7625   0.025
0.2375   0.7875   0.025
0.2375   0.8125   0.025
0.2375   0.8375   0.025
0.2375   0.8625   0.025
0.2375   0.8875   0.025
0.2375   0.9125   0.025
0.2375   0.9375   0.025
0.2375   0.9625   0.025
0.2375   0.9875   0.025
0.2625   0.0125   0.025
0.2625   0.0375   0.025
0.2625   0.0625   0.025
0.2625   0.0875   0.025
0.2625   0.1125   0.025
0.2625   0.1375   0.025
0.2625   0.1625   0.025
0.2625   0.1875   0.025
0.2625   0.2125   0.025
0.2625   0.2375   0.025
0.2625   0.2625   0.025
[...]
POINT_DATA   32000
VECTORS Velocidades double

6.48759e-05 0.00120994 0
0.000254177 0.00216515 0
0.000151937 0.00175582 0
-7.90745e-07 0.00159554 0
-0.000150756 0.00172892 0
-0.000288216 0.00213821 0
-0.000412879 0.0027963 0
-0.000526024 0.00367757 0
-0.000628804 0.00475931 0
-0.000721954 0.00602107 0
-0.000805804 0.00744375 0
-0.000880353 0.0090089 0
-0.00094534 0.010698 0
-0.00100033 0.0124923 0
-0.00104483 0.0143721 0
-0.00107833 0.0163172 0
-0.00110048 0.0183067 0
-0.00111121 0.0203194 0
-0.00111081 0.022335 0
-0.00110014 0.0243342 0
-0.00108077 0.0263005 0
-0.0010552 0.0282216 0
-0.00102707 0.0300916 0
-0.00100149 0.0319132 0
-0.000985569 0.0337015 0
-0.000989116 0.0354883 0
-0.00102582 0.0373287 0
-0.0011151 0.0393107 0
-0.00128511 0.0415695 0
-0.00157746 0.0443097 0
-0.002055 0.0478401 0
-0.00281446 0.0526292 0
-0.00400735 0.0593944 0
-0.00587404 0.0692471 0
-0.00879353 0.0839225 0
-0.0133169 0.106094 0
-0.0199258 0.139482 0
-0.0268849 0.186567 0
-0.0163082 0.230241 0
0.124138 0.123426 0
0.000137166 0.00264586 0
0.000574351 0.00522539 0
0.000251164 0.00520952 0
-0.0002889 0.0055418 0
-0.000866818 0.00637899 0
-0.0014251 0.00776759 0
-0.0019466 0.00969999 0
-0.00242733 0.0121459 0
-0.00286718 0.0150665 0
-0.00326671 0.0184199 0
-0.00362604 0.0221632 0
-0.00394455 0.0262526 0
-0.00422096 0.0306432 0
-0.00445344 0.0352885 0
-0.00464 0.0401405 0
-0.00477885 0.0451495 0
-0.00486881 0.0502651 0
-0.00490992 0.0554365 0
-0.00490391 0.0606149 0
-0.00485488 0.0657549 0
-0.00477001 0.0708181 0
-0.00466034 0.0757761 0
-0.00454176 0.0806157 0
-0.00443638 0.0853439 0
-0.00437432 0.0899958 0
-0.00439641 0.0946437 0
-0.00455825 0.0994091 0
-0.00493623 0.104479 0
-0.00563646 0.110129 0
-0.00680791 0.116748 0
-0.00866096 0.124877 0
-0.0114923 0.135245 0
-0.015714 0.148794 0
-0.0218732 0.166641 0
-0.0305991 0.189845 0
-0.042221 0.218565 0
-0.0549949 0.249483 0
-0.0574454 0.268577 0
0.00402158 0.23605 0
0.348639 0.0998421 0
7.32577e-05 0.00386062 0
0.000440395 0.00792266 0
-0.000205366 0.00852765 0
-0.00127148 0.00962351 0
-0.00247027 0.0113472 0
-0.0036725 0.0137659 0
-0.00482283 0.0168917 0
-0.00589854 0.0207032 0
-0.00689062 0.0251606 0
-0.00779516 0.0302145 0
-0.00860952 0.0358098 0
-0.00933079 0.041888 0
-0.00995534 0.0483875 0
-0.0104789 0.0552439 0
-0.010897 0.0623899 0
-0.0112059 0.0697561 0
-0.0114034 0.0772715 0
-0.0114898 0.0848651 0
-0.0114695 0.0924676 0
-0.011352 0.100014 0
-0.0111535 0.10745 0
-0.0108987 0.11473 0
-0.0106227 0.12183 0
-0.0103736 0.12875 0
-0.0102162 0.135524 0
-0.0102362 0.142226 0
-0.0105468 0.148986 0
-0.0112982 0.155999 0
-0.0126884 0.163535 0
-0.0149778 0.171957 0
-0.0185025 0.181712 0
-0.0236777 0.193302 0
-0.0309661 0.207188 0
-0.0407395 0.223529 0
-0.0528385 0.241584 0
-0.0652542 0.258386 0
-0.0702113 0.266083 0
-0.0425925 0.247883 0
0.0914552 0.178969 0
0.51364 0.0642161 0
-0.000145137 0.00499946 0
-0.000204719 0.0104484 0
-0.00136649 0.0116581 0
-0.00307832 0.0135306 0
-0.00500849 0.0161405 0
-0.00697525 0.0195357 0
-0.00888439 0.0237283 0
-0.0106886 0.0287012 0
-0.0123644 0.0344168 0
-0.0138988 0.0408243 0
-0.0152835 0.0478645 0
-0.0165111 0.0554719 0
-0.0175739 0.063576 0
-0.018464 0.072102 0
-0.0191735 0.0809711 0
-0.0196958 0.0901011 0
-0.0200269 0.0994073 0
-0.0201673 0.108804 0
-0.0201236 0.118207 0
-0.0199112 0.127535 0
-0.0195559 0.136716 0
-0.0190971 0.145688 0
-0.0185905 0.154408 0
-0.0181115 0.162856 0
-0.0177599 0.171042 0
-0.0176646 0.179011 0
-0.017991 0.186851 0
-0.0189485 0.194695 0
-0.0207982 0.202721 0
-0.0238562 0.211139 0
-0.0284832 0.220148 0
-0.0350359 0.22986 0
-0.0437277 0.240121 0
-0.0542731 0.250169 0
-0.0650258 0.258 0
-0.0709117 0.259285 0
-0.0585485 0.24592 0
0.00462468 0.205739 0
0.189878 0.129821 0
0.619857 0.0412217 0
-0.000503894 0.00606376 0
-0.00130196 0.0127874 0
-0.00318974 0.0145201 0
-0.00567253 0.0170807 0
-0.00841776 0.0204803 0
-0.0112192 0.0247313 0
-0.0139557 0.029831 0
-0.0165586 0.035758 0
-0.0189887 0.0424749 0
-0.0212226 0.0499314 0
-0.0232438 0.0580675 0
-0.0250387 0.0668161 0
-0.0265942 0.0761032 0
-0.0278971 0.0858494 0
-0.0289349 0.0959694 0
-0.0296969 0.106374 0
-0.0301762 0.116968 0
-0.0303718 0.127656 0
-0.0302916 0.13834 0
-0.029955 0.148925 0
-0.0293958 0.159321 0
-0.028666 0.169446 0
-0.0278387 0.179231 0
-0.0270121 0.188626 0
-0.0263139 0.197603 0
-0.0259054 0.206155 0
-0.0259865 0.214304 0
-0.0267979 0.222088 0
-0.0286202 0.229556 0
-0.0317586 0.236729 0
-0.0364989 0.243554 0
-0.042998 0.249787 0
-0.0510351 0.254818 0
-0.0594713 0.257355 0
-0.0651041 0.254939 0
-0.0603001 0.243328 0
-0.028345 0.216184 0
0.0645315 0.166736 0
0.277972 0.0954385 0
0.689358 0.0276053 0
-0.000979009 0.00702426 0
-0.00277205 0.0148781 0
-0.00557241 0.0170356 0
-0.00894314 0.0201615 0
-0.0125729 0.0242134 0
-0.0162529 0.0291666 0
-0.0198501 0.0349971 0
-0.0232816 0.0416739 0
-0.0264961 0.0491563 0
-0.0294601 0.0573942 0
-0.0321487 0.0663288 0
-0.034541 0.0758938 0
-0.0366172 0.0860155 0
-0.0383576 0.0966132 0
-0.0397435 0.107599 0
-0.0407583 0.11888 0
-0.0413903 0.130354 0
-0.0416353 0.141917 0
-0.0414996 0.15346 0
-0.041004 0.164874 0
-0.0401869 0.176049 0
-0.0391083 0.186881 0
-0.0378534 0.197274 0
-0.0365356 0.207142 0
-0.0353003 0.216409 0
-0.034327 0.225014 0
-0.0338297 0.2329 0
-0.0340531 0.240011 0
-0.0352587 0.246267 0
-0.037691 0.251531 0
-0.0414993 0.255547 0
-0.0465746 0.257843 0
-0.0522168 0.257567 0
-0.0564751 0.253261 0
-0.0548849 0.242561 0
-0.0381596 0.221983 0
0.01163 0.187295 0
0.126007 0.135765 0
0.352031 0.0722904 0
0.737027 0.0194629 0
-0.00154519 0.00785084 0
-0.00453462 0.0166616 0
-0.00839787 0.0191458 0
-0.0127539 0.0227079 0
-0.0173231 0.0272636 0
-0.021909 0.0327553 0
-0.0263788 0.0391376 0
-0.0306446 0.0463677 0
-0.0346477 0.0544 0
-0.0383471 0.0631841 0
-0.0417104 0.0726629 0
-0.0447092 0.0827726 0
-0.0473162 0.0934419 0
-0.0495037 0.104591 0
-0.0512453 0.116133 0
-0.0525165 0.12797 0
-0.0532986 0.139999 0
-0.0535811 0.152106 0
-0.053366 0.164172 0
-0.0526715 0.176073 0
-0.0515364 0.187682 0
-0.0500238 0.198872 0
-0.048224 0.209517 0
-0.0462581 0.219494 0
-0.0442788 0.228684 0
-0.0424706 0.236967 0
-0.0410451 0.244221 0
-0.0402301 0.250304 0
-0.0402443 0.255037 0
-0.0412452 0.258169 0
-0.0432242 0.25932 0
-0.045803 0.257902 0
-0.0478465 0.252998 0
-0.0467488 0.243214 0
-0.0371748 0.226539 0
-0.00900912 0.200398 0
0.0554956 0.162337 0
0.184276 0.112199 0
0.413578 0.0565907 0
0.771457 0.0144245 0
-0.00217882 0.0085198 0
-0.00651423 0.0180936 0
-0.0115522 0.0208131 0
-0.016966 0.0246877 0
-0.022513 0.0296016 0
-0.0280181 0.0354708 0
-0.0333587 0.0422315 0
-0.0384493 0.0498297 0
-0.0432297 0.0582154 0
-0.0476543 0.0673376 0
-0.0516853 0.0771418 0
-0.0552869 0.0875676 0
-0.0584237 0.0985473 0
-0.0610592 0.110004 0
-0.063157 0.121851 0
-0.0646829 0.133992 0
-0.0656081 0.146318 0
-0.0659131 0.158709 0
-0.0655917 0.171037 0
-0.0646561 0.183165 0
-0.0631408 0.194947 0
-0.0611064 0.206233 0
-0.0586431 0.216869 0
-0.0558722 0.2267 0
-0.0529457 0.235565 0
-0.0500431 0.243298 0
-0.0473631 0.249721 0
-0.0451051 0.254631 0
-0.0434346 0.25778 0
-0.0424168 0.258848 0
-0.0418913 0.257399 0
-0.0412425 0.252816 0
-0.0389837 0.244222 0
-0.0320348 0.230399 0
-0.0145436 0.209758 0
0.0238317 0.180546 0
0.0998899 0.141627 0
0.237754 0.0943476 0
0.465072 0.045683 0
0.797548 0.0111727 0
-0.00285883 0.00901462 0
-0.00864267 0.0191449 0
-0.0149303 0.0220167 0
-0.0214478 0.0260898 0
-0.0279926 0.031225 0
-0.0344174 0.0373193 0
-0.0406162 0.0442946 0
-0.0465126 0.0520886 0
-0.0520498 0.0606481 0
-0.0571814 0.0699229 0
-0.0618652 0.0798616 0
-0.0660595 0.0904084 0
-0.0697201 0.1015 0
-0.0728004 0.113064 0
-0.0752524 0.125016 0
-0.0770296 0.137258 0
-0.0780905 0.149681 0
-0.0784029 0.162158 0
-0.0779494 0.174551 0
-0.0767318 0.186711 0
-0.0747761 0.198475 0
-0.0721365 0.209672 0
-0.0688978 0.220125 0
-0.0651763 0.229647 0
-0.0611178 0.238046 0
-0.0568917 0.245118 0
-0.0526781 0.250646 0
-0.0486449 0.254384 0
-0.0449045 0.256048 0
-0.0414368 0.255287 0
-0.037951 0.251652 0
-0.0336395 0.244552 0
-0.0267525 0.233204 0
-0.0138984 0.216597 0
0.0110179 0.193543 0
0.058172 0.162954 0
0.14306 0.124606 0
0.286244 0.080664 0
0.508706 0.0378658 0
0.818151 0.00897783 0
-0.00356682 0.00932471 0
-0.0108593 0.0197978 0
-0.0184367 0.0227475 0
-0.0260777 0.0269149 0
-0.033622 0.0321453 0
-0.0409536 0.0383224 0
-0.0479889 0.0453592 0
-0.0546656 0.0531888 0
-0.060934 0.0617572 0
-0.0667501 0.0710167 0
-0.0720695 0.0809206 0
-0.0768446 0.0914188 0
-0.0810223 0.102454 0
-0.0845446 0.113958 0
-0.0873501 0.12585 0
-0.0893774 0.138033 0
-0.0905693 0.150395 0
-0.090878 0.162806 0
-0.0902707 0.175119 0
-0.0887358 0.187172 0
-0.086287 0.198788 0
-0.0829683 0.209778 0
-0.0788557 0.219941 0
-0.0740575 0.229069 0
-0.0687105 0.236943 0
-0.0629718 0.243333 0
-0.0570029 0.247996 0
-0.0509418 0.250663 0
-0.0448543 0.251034 0
-0.0386491 0.248753 0
-0.0319302 0.243389 0
-0.0237438 0.234403 0
-0.0121566 0.221122 0
0.00640451 0.202739 0
0.03808 0.178408 0
0.0926429 0.147549 0
0.184171 0.110545 0
0.33007 0.0699669 0
0.546192 0.0320718 0
0.834969 0.00742784 0
-0.00428662 0.00944388 0
-0.0131102 0.0200429 0
-0.0219855 0.0230031 0
-0.0307445 0.0271698 0
-0.0392709 0.0323784 0
-0.0474838 0.0385058 0
-0.0553254 0.045461 0
-0.0627514 0.0531765 0
-0.0697228 0.0616008 0
-0.0761999 0.070691 0
-0.0821378 0.0804069 0
-0.0874833 0.0907055 0
-0.0921741 0.101536 0
-0.0961393 0.112837 0
-0.0993023 0.124532 0
-0.101584 0.136525 0
-0.102908 0.148703 0
-0.103209 0.160933 0
-0.102435 0.173059 0
-0.100556 0.18491 0
-0.0975732 0.196294 0
-0.0935159 0.207008 0
-0.0884496 0.216832 0
-0.0824731 0.225539 0
-0.0757137 0.232892 0
-0.0683172 0.238643 0
-0.0604289 0.242534 0
-0.0521625 0.244288 0
-0.0435462 0.243602 0
-0.0344328 0.240134 0
-0.0243466 0.233483 0
-0.0122279 0.223174 0
0.003976 0.208642 0
0.0279195 0.189261 0
0.0656534 0.164464 0
0.126416 0.134044 0
0.222875 0.0987822 0
0.369709 0.0614065 0
0.578798 0.0276281 0
0.849057 0.00628405 0
-0.00500375 0.00936918 0
-0.0153467 0.0198764 0
-0.0254982 0.0227851 0
-0.0353454 0.0268625 0
-0.0448185 0.0319403 0
-0.0538742 0.0378936 0
-0.0624839 0.0446326 0
-0.0706237 0.0520932 0
-0.0782679 0.0602298 0
-0.0853831 0.069007 0
-0.0919246 0.0783932 0
-0.0978338 0.0883541 0
-0.103039 0.0988478 0
-0.107454 0.109819 0
-0.110985 0.121197 0
-0.113533 0.13289 0
-0.115001 0.144783 0
-0.115299 0.156741 0
-0.114356 0.168603 0
-0.112121 0.180187 0
-0.108577 0.191292 0
-0.10374 0.201699 0
-0.0976617 0.211175 0
-0.0904326 0.219479 0
-0.0821713 0.226359 0
-0.0730148 0.231558 0
-0.0630965 0.23481 0
-0.0525125 0.235839 0
-0.0412636 0.234349 0
-0.0291614 0.23002 0
-0.015672 0.222487 0
0.000336882 0.211336 0
0.0209861 0.196105 0
0.049938 0.176319 0
0.0930631 0.151629 0
0.159 0.122104 0
0.259075 0.0887719 0
0.405632 0.0543815 0
0.607454 0.0241033 0
0.861085 0.00540387 0
-0.00570479 0.00910013 0
-0.0175234 0.0192987 0
-0.0289015 0.0220971 0
-0.0397842 0.0260019 0
-0.050151 0.0308455 0
-0.0599988 0.0365069 0
-0.0693302 0.0429017 0
-0.0781443 0.0499739 0
-0.08643 0.0576866 0
-0.0941616 0.0660148 0
-0.101295 0.0749376 0
-0.107766 0.0844315 0
-0.113491 0.0944642 0
-0.11837 0.10499 0
-0.122289 0.115943 0
-0.125126 0.127237 0
-0.126759 0.13876 0
-0.127073 0.150372 0
-0.125972 0.161911 0
-0.123385 0.173185 0
-0.119271 0.183985 0
-0.113633 0.194081 0
-0.10651 0.203229 0
-0.0979825 0.211176 0
-0.0881637 0.217661 0
-0.077185 0.222422 0
-0.0651734 0.225192 0
-0.0522139 0.225697 0
-0.0382895 0.223657 0
-0.0231831 0.218773 0
-0.00632087 0.210719 0
0.0134752 0.199137 0
0.038355 0.18365 0
0.0719349 0.163912 0
0.119846 0.139741 0
0.190103 0.111406 0
0.292787 0.0800846 0
0.438249 0.0484648 0
0.632836 0.0212146 0
0.871494 0.00469925 0
-0.00637681 0.00863852 0
-0.0195971 0.018314 0
-0.0321257 0.0209453 0
-0.0439695 0.0245971 0
-0.0551604 0.0291078 0
-0.0657377 0.0343645 0
-0.075737 0.0402932 0
-0.0851818 0.0468491 0
-0.0940768 0.0540077 0
-0.102404 0.0617568 0
-0.11012 0.070088 0
-0.117156 0.0789906 0
-0.123415 0.0884438 0
-0.12878 0.0984119 0
-0.133116 0.108838 0
-0.136274 0.119642 0
-0.138106 0.130713 0
-0.138469 0.141915 0
-0.137239 0.15308 0
-0.134319 0.164014 0
-0.129649 0.174499 0
-0.123211 0.184296 0
-0.115035 0.193153 0
-0.105193 0.200809 0
-0.0937942 0.206996 0
-0.0809681 0.211448 0
-0.0668404 0.213901 0
-0.0514918 0.214089 0
-0.0348953 0.211744 0
-0.016816 0.206589 0
0.00334547 0.198333 0
0.0267917 0.186669 0
0.0556711 0.171291 0
0.0935146 0.151953 0
0.145678 0.128608 0
0.21955 0.101664 0
0.324072 0.072383 0
0.467893 0.0433488 0
0.655433 0.0187708 0
0.880576 0.00411377 0
-0.00700691 0.00798848 0
-0.0215254 0.0169307 0
-0.0351031 0.0193391 0
-0.0478135 0.02266 0
-0.0597434 0.0267424 0
-0.0709765 0.0314865 0
-0.0815829 0.0368324 0
-0.0916107 0.0427498 0
-0.101081 0.0492293 0
-0.109984 0.0562735 0
-0.118277 0.063889 0
-0.125884 0.0720788 0
-0.132697 0.0808357 0
-0.138577 0.0901358 0
-0.143367 0.0999328 0
-0.146891 0.110154 0
-0.14897 0.120695 0
-0.149429 0.131422 0
-0.148116 0.142166 0
-0.144905 0.152733 0
-0.139712 0.162897 0
-0.132503 0.172414 0
-0.123293 0.181026 0
-0.112149 0.188465 0
-0.0991788 0.194459 0
-0.0845139 0.198741 0
-0.0682827 0.201047 0
-0.0505674 0.20112 0
-0.0313377 0.198704 0
-0.0103493 0.193542 0
0.0130106 0.185371 0
0.0399525 0.173926 0
0.0725995 0.158961 0
0.114369 0.140312 0
0.170318 0.118032 0
0.247226 0.0926288 0
0.352996 0.065401 0
0.494824 0.0388063 0
0.6756 0.0166388 0
0.888532 0.00360988 0
-0.00758195 0.00715691 0
-0.0232662 0.0151626 0
-0.0377678 0.0172931 0
-0.0512313 0.0202073 0
-0.0638011 0.0237701 0
-0.0756065 0.0278987 0
-0.0867521 0.0325506 0
-0.0973111 0.0377131 0
-0.107321 0.0433938 0
-0.11678 0.0496117 0
-0.125645 0.0563896 0
-0.133833 0.0637464 0
-0.141221 0.0716895 0
-0.147654 0.0802089 0
-0.152944 0.0892707 0
-0.156889 0.0988122 0
-0.159275 0.108738 0
-0.159896 0.11892 0
-0.158563 0.129192 0
-0.155123 0.139359 0
-0.149466 0.149196 0
-0.141538 0.158453 0
-0.131342 0.166866 0
-0.11894 0.174164 0
-0.104438 0.180073 0
-0.0879749 0.184322 0
-0.0696844 0.18665 0
-0.0496549 0.186804 0
-0.0278583 0.184541 0
-0.00404807 0.179616 0
0.0223926 0.171792 0
0.0526683 0.160836 0
0.0888583 0.14655 0
0.134245 0.128834 0
0.193576 0.10782 0
0.273044 0.0840818 0
0.379613 0.0589241 0
0.519233 0.0346657 0
0.693588 0.0147226 0
0.895498 0.00316149 0
-0.00808846 0.00615404 0
-0.0247776 0.0130304 0
-0.0400555 0.0148292 0
-0.0541419 0.017264 0
-0.06724 0.0202206 0
-0.0795248 0.0236369 0
-0.0911354 0.0274907 0
-0.10217 0.0317886 0
-0.11268 0.0365564 0
-0.122672 0.041831 0
-0.132103 0.0476523 0
-0.140883 0.0540558 0
-0.148873 0.0610653 0
-0.155897 0.0686864 0
-0.161742 0.0768998 0
-0.166171 0.0856563 0
-0.168939 0.0948725 0
-0.1698 0.104428 0
-0.168533 0.114166 0
-0.164949 0.123892 0
-0.158912 0.133384 0
-0.150346 0.142391 0
-0.139241 0.150647 0
-0.125654 0.157877 0
-0.109693 0.163803 0
-0.0915012 0.168153 0
-0.0712244 0.170666 0
-0.0489596 0.171093 0
-0.0246853 0.169193 0
0.00184177 0.164738 0
0.0312345 0.157503 0
0.06468 0.147282 0
0.104199 0.133916 0
0.152923 0.117355 0
0.215286 0.0977878 0
0.296922 0.0758321 0
0.403948 0.0527761 0
0.541254 0.0307925 0
0.70957 0.0129502 0
0.901565 0.00274974 0
-0.00851275 0.00499404 0
-0.0260183 0.0105631 0
-0.0419048 0.0119786 0
-0.0564688 0.013866 0
-0.0699729 0.0161364 0
-0.0826366 0.0187518 0
-0.0946319 0.021712 0
-0.10608 0.025044 0
-0.117047 0.0287924 0
-0.127547 0.0330121 0
-0.137536 0.0377605 0
-0.146915 0.0430902 0
-0.155532 0.0490428 0
-0.163189 0.0556412 0
-0.169645 0.0628835 0
-0.174631 0.0707371 0
-0.177864 0.0791338 0
-0.179062 0.0879668 0
-0.177962 0.0970899 0
-0.174343 0.106318 0
-0.168036 0.115434 0
-0.158943 0.124188 0
-0.147039 0.132316 0
-0.132372 0.139538 0
-0.115054 0.145575 0
-0.0952363 0.150151 0
-0.0730745 0.153005 0
-0.048678 0.153884 0
-0.0220354 0.152552 0
0.00708862 0.148784 0
0.0392962 0.142368 0
0.0757473 0.133117 0
0.118391 0.120898 0
0.170198 0.105701 0
0.23529 0.087758 0
0.318772 0.0677088 0
0.426 0.046808 0
0.560963 0.0270787 0
0.723658 0.0112659 0
0.906788 0.00236044 0
-0.00884122 0.00369552 0
-0.0269492 0.00779913 0
-0.0432586 0.00878404 0
-0.0581431 0.0100629 0
-0.0719219 0.0115764 0
-0.084857 0.0133129 0
-0.0971505 0.0152953 0
-0.108945 0.0175708 0
-0.12032 0.0202024 0
-0.131295 0.0232625 0
-0.141826 0.0268253 0
-0.151807 0.0309614 0
-0.161072 0.0357303 0
-0.169401 0.0411742 0
-0.176526 0.0473112 0
-0.182145 0.0541287 0
-0.185937 0.0615783 0
-0.18758 0.069572 0
-0.186771 0.0779797 0
-0.183248 0.0866303 0
-0.17681 0.0953151 0
-0.167331 0.103794 0
-0.154769 0.111801 0
-0.139163 0.11906 0
-0.120625 0.125287 0
-0.0993133 0.130203 0
-0.0753966 0.13354 0
-0.0489969 0.135043 0
-0.0201153 0.134472 0
0.0114713 0.131603 0
0.0463483 0.126227 0
0.0856399 0.118171 0
0.131214 0.107322 0
0.185872 0.0936998 0
0.253427 0.0775613 0
0.33849 0.059556 0
0.445735 0.0408906 0
0.578393 0.023434 0
0.735914 0.00962467 0
0.911201 0.00198242 0
-0.00906088 0.00228203 0
-0.0275348 0.00478792 0
-0.0440671 0.00530117 0
-0.0591051 0.00591997 0
-0.0730208 0.00661806 0
-0.0861138 0.00741148 0
-0.098613 0.00834593 0
-0.110679 0.00948777 0
-0.122405 0.0109171 0
-0.133814 0.0127218 0
-0.144862 0.0149926 0
-0.155438 0.0178166 0
-0.165362 0.0212724 0
-0.174395 0.0254227 0
-0.182244 0.030308 0
-0.188574 0.0359398 0
-0.193025 0.0422943 0
-0.195233 0.0493075 0
-0.194853 0.0568722 0
-0.191581 0.0648372 0
-0.185178 0.0730097 0
-0.175487 0.0811606 0
-0.162443 0.0890325 0
-0.146074 0.0963487 0
-0.126488 0.102824 0
-0.103851 0.108175 0
-0.07834 0.112124 0
-0.0500921 0.114409 0
-0.0191226 0.114782 0
0.0147761 0.113013 0
0.052167 0.108896 0
0.0941308 0.10226 0
0.142445 0.0930063 0
0.199739 0.0811725 0
0.269523 0.0670324 0
0.355949 0.051229 0
0.463085 0.0349083 0
0.593531 0.019781 0
0.746356 0.00798915 0
0.914813 0.00160665 0
-0.00916003 0.000782107 0
-0.0277447 0.00158988 0
-0.0442895 0.0015993 0
-0.0593081 0.00151925 0
-0.0732183 0.00135899 0
-0.0863509 0.0011622 0
-0.0989572 0.000996023 0
-0.111213 0.000943812 0
-0.12322 0.00110004 0
-0.13501 0.0015662 0
-0.146537 0.0024468 0
-0.157687 0.00384508 0
-0.168269 0.00585784 0
-0.178028 0.00856952 0
-0.186646 0.0120455 0
-0.193758 0.016325 0
-0.198968 0.021414 0
-0.201869 0.027279 0
-0.202072 0.0338424 0
-0.199227 0.0409805 0
-0.193053 0.0485238 0
-0.183356 0.0562612 0
-0.170044 0.063947 0
-0.153127 0.07131 0
-0.132706 0.0780643 0
-0.108947 0.0839192 0
-0.0820378 0.088589 0
-0.0521269 0.0917984 0
-0.0192455 0.0932879 0
0.0167953 0.0928171 0
0.0565308 0.0901723 0
0.100991 0.0851827 0
0.151858 0.0777558 0
0.211584 0.0679383 0
0.283387 0.0560083 0
0.370996 0.0425895 0
0.477947 0.0287551 0
0.606325 0.016051 0
0.754967 0.00632702 0
0.917621 0.00122547 0
-0.00912912 -0.000770762 0
-0.0275567 -0.00172353 0
-0.0438978 -0.00223861 0
-0.0587216 -0.00304037 0
-0.0724814 -0.00408309 0
-0.0855316 -0.00529669 0
-0.0981397 -0.00659521 0
-0.110493 -0.00788158 0
-0.122702 -0.00905041 0
-0.134803 -0.00999007 0
-0.146754 -0.0105848 0
-0.158437 -0.0107177 0
-0.169657 -0.0102744 0
-0.180144 -0.00914864 0
-0.189563 -0.0072483 0
-0.19752 -0.00450305 0
-0.203584 -0.000872098 0
-0.207309 0.00364822 0
-0.208258 0.00901799 0
-0.206034 0.0151493 0
-0.200309 0.0219049 0
-0.190847 0.0290997 0
-0.177519 0.0365067 0
-0.160311 0.0438652 0
-0.139309 0.0508914 0
-0.114676 0.0572892 0
-0.0866019 0.0627613 0
-0.0552483 0.0670173 0
-0.0206614 0.0697808 0
0.0173266 0.0707957 0
0.0592183 0.069836 0
0.105988 0.0667242 0
0.159214 0.0613664 0
0.221172 0.0538094 0
0.294804 0.0443244 0
0.383448 0.0335023 0
0.490182 0.0223303 0
0.616685 0.0121804 0
0.761698 0.00460936 0
0.919603 0.000832187 0
-0.00896164 -0.00233868 0
-0.0269583 -0.00507089 0
-0.0428794 -0.00611701 0
-0.0573341 -0.00764442 0
-0.0707987 -0.0095716 0
-0.0836419 -0.0118047 0
-0.0961404 -0.0142427 0
-0.108489 -0.0167791 0
-0.120806 -0.0193019 0
-0.133131 -0.0216936 0
-0.145429 -0.0238309 0
-0.157583 -0.0255862 0
-0.169396 -0.0268297 0
-0.180591 -0.027434 0
-0.190819 -0.0272794 0
-0.199665 -0.026262 0
-0.206667 -0.0243013 0
-0.21134 -0.0213502 0
-0.213203 -0.0174026 0
-0.211808 -0.0125008 0