# vtk DataFile Version 2.0
Velocidades
ASCII

DATASET STRUCTURED_GRID
DIMENSIONS   40   40   20

POINTS   32000   double
0.0125   0.0125   0.025
0.0125   0.0375   0.025
0.0125   0.0625   0.025
0.0125   0.0875   0.025
0.0125   0.1125   0.025
0.0125   0.1375   0.025
0.0125   0.1625   0.025
0.0125   0.1875   0.025
0.0125   0.2125   0.025
0.0125   0.2375   0.025
0.0125   0.2625   0.025
0.0125   0.2875   0.025
0.0125   0.3125   0.025
0.0125   0.3375   0.025
0.0125   0.3625   0.025
0.0125   0.3875   0.025
0.0125   0.4125   0.025
0.0125   0.4375   0.025
0.0125   0.4625   0.025
0.0125   0.4875   0.025
0.0125   0.5125   0.025
0.0125   0.5375   0.025
0.0125   0.5625   0.025
0.0125   0.5875   0.025
0.0125   0.6125   0.025
0.0125   0.6375   0.025
0.0125   0.6625   0.025
0.0125   0.6875   0.025
0.0125   0.7125   0.025
0.0125   0.7375   0.025
0.0125   0.7625   0.025
0.0125   0.7875   0.025
0.0125   0.8125   0.025
0.0125   0.8375   0.025
0.0125   0.8625   0.025
0.0125   0.8875   0.025
0.0125   0.9125   0.025
0.0125   0.9375   0.025
0.0125   0.9625   0.025
0.0125   0.9875   0.025
0.0375   0.0125   0.025
0.0375   0.0375   0.025
0.0375   0.0625   0.025
0.0375   0.0875   0.025
0.0375   0.1125   0.025
0.0375   0.1375   0.025
0.0375   0.1625   0.025
0.0375   0.1875   0.025
0.0375   0.2125   0.025
0.0375   0.2375   0.025
0.0375   0.2625   0.025
0.0375   0.2875   0.025
0.0375   0.3125   0.025
0.0375   0.3375   0.025
0.0375   0.3625   0.025
0.0375   0.3875   0.025
0.0375   0.4125   0.025
0.0375   0.4375   0.025
0.0375   0.4625   0.025
0.0375   0.4875   0.025
0.0375   0.5125   0.025
0.0375   0.5375   0.025
0.0375   0.5625   0.025
0.0375   0.5875   0.025
0.0375   0.6125   0.025
0.0375   0.6375   0.025
0.0375   0.6625   0.025
0.0375   0.6875   0.025
0.0375   0.7125   0.025
0.0375   0.7375   0.025
0.0375   0.7625   0.025
0.0375   0.7875   0.025
0.0375   0.8125   0.025
0.0375   0.8375   0.025
0.0375   0.8625   0.025
0.0375   0.8875   0.025
0.0375   0.9125   0.025
0.0375   0.9375   0.025
0.0375   0.9625   0.025
0.0375   0.9875   0.025
0.0625   0.0125   0.025
0.0625   0.0375   0.025
0.0625   0.0625   0.025
0.0625   0.0875   0.025
0.0625   0.1125   0.025
0.0625   0.1375   0.025
0.0625   0.1625   0.025
0.0625   0.1875   0.025
0.0625   0.2125   0.025
0.0625   0.2375   0.025
0.0625   0.2625   0.025
0.0625   0.2875   0.025
0.0625   0.3125   0.025
0.0625   0.3375   0.025
0.0625   0.3625   0.025
0.0625   0.3875   0.025
0.0625   0.4125   0.025
0.0625   0.4375   0.025
0.0625   0.4625   0.025
0.0625   0.4875   0.025
0.0625   0.5125   0.025
0.0625   0.5375   0.025
0.0625   0.5625   0.025
0.0625   0.5875   0.025
0.0625   0.6125   0.025
0.0625   0.6375   0.025
0.0625   0.6625   0.025
0.0625   0.6875   0.025
0.0625   0.7125   0.025
0.0625   0.7375   0.025
0.0625   0.7625   0.025
0.0625   0.7875   0.025
0.0625   0.8125   0.025
0.0625   0.8375   0.025
0.0625   0.8625   0.025
0.0625   0.8875   0.025
0.0625   0.9125   0.025
0.0625   0.9375   0.025
0.0625   0.9625   0.025
0.0625   0.9875   0.025
0.0875   0.0125   0.025
0.0875   0.0375   0.025
0.0875   0.0625   0.025
0.0875   0.0875   0.025
0.0875   0.1125   0.025
0.0875   0.1375   0.025
0.0875   0.1625   0.025
0.0875   0.1875   0.025
0.0875   0.2125   0.025
0.0875   0.2375   0.025
0.0875   0.2625   0.025
0.0875   0.2875   0.025
0.0875   0.3125   0.025
0.0875   0.3375   0.025
0.0875   0.3625   0.025
0.0875   0.3875   0.025
0.0875   0.4125   0.025
0.0875   0.4375   0.025
0.0875   0.4625   0.025
0.0875   0.4875   0.025
0.0875   0.5125   0.025
0.0875   0.5375   0.025
0.0875   0.5625   0.025
0.0875   0.5875   0.025
0.0875   0.6125   0.025
0.0875   0.6375   0.025
0.0875   0.6625   0.025
0.0875   0.6875   0.025
0.0875   0.7125   0.025
0.0875   0.7375   0.025
0.0875   0.7625   0.025
0.0875   0.7875   0.025
0.0875   0.8125   0.025
0.0875   0.8375   0.025
0.0875   0.8625   0.025
0.0875   0.8875   0.025
0.0875   0.9125   0.025
0.0875   0.9375   0.025
0.0875   0.9625   0.025
0.0875   0.9875   0.025
0.1125   0.0125   0.025
0.1125   0.0375   0.025
0.1125   0.0625   0.025
0.1125   0.0875   0.025
0.1125   0.1125   0.025
0.1125   0.1375   0.025
0.1125   0.1625   0.025
0.1125   0.1875   0.025
0.1125   0.2125   0.025
0.1125   0.2375   0.025
0.1125   0.2625   0.025
0.1125   0.2875   0.025
0.1125   0.3125   0.025
0.1125   0.3375   0.025
0.1125   0.3625   0.025
0.1125   0.3875   0.025
0.1125   0.4125   0.025
0.1125   0.4375   0.025
0.1125   0.4625   0.025
0.1125   0.4875   0.025
0.1125   0.5125   0.025
0.1125   0.5375   0.025
0.1125   0.5625   0.025
0.1125   0.5875   0.025
0.1125   0.6125   0.025
0.1125   0.6375   0.025
0.1125   0.6625   0.025
0.1125   0.6875   0.025
0.1125   0.7125   0.025
0.1125   0.7375   0.025
0.1125   0.7625   0.025
0.1125   0.7875   0.025
0.1125   0.8125   0.025
0.1125   0.8375   0.025
0.1125   0.8625   0.025
0.1125   0.8875   0.025
0.1125   0.9125   0.025
0.1125   0.9375   0.025
0.1125   0.9625   0.025
0.1125   0.9875   0.025
0.1375   0.0125   0.025
0.1375   0.0375   0.025
0.1375   0.0625   0.025
0.1375   0.0875   0.025
0.1375   0.1125   0.025
0.1375   0.1375   0.025
0.1375   0.1625   0.025
0.1375   0.1875   0.025
0.1375   0.2125   0.025
0.1375   0.2375   0.025
0.1375   0.2625   0.025
0.1375   0.2875   0.025
0.1375   0.3125   0.025
0.1375   0.3375   0.025
0.1375   0.3625   0.025
0.1375   0.3875   0.025
0.1375   0.4125   0.025
0.1375   0.4375   0.025
0.1375   0.4625   0.025
0.1375   0.4875   0.025
0.1375   0.5125   0.025
0.1375   0.5375   0.025
0.1375   0.5625   0.025
0.1375   0.5875   0.025
0.1375   0.6125   0.025
0.1375   0.6375   0.025
0.1375   0.6625   0.025
0.1375   0.6875   0.025
0.1375   0.7125   0.025
0.1375   0.7375   0.025
0.1375   0.7625   0.025
0.1375   0.7875   0.025
0.1375   0.8125   0.025
0.1375   0.8375   0.025
0.1375   0.8625   0.025
0.1375   0.8875   0.025
0.1375   0.9125   0.025
0.1375   0.9375   0.025
0.1375   0.9625   0.025
0.1375   0.9875   0.025
0.1625   0.0125   0.025
0.1625   0.0375   0.025
0.1625   0.0625   0.025
0.1625   0.0875   0.025
0.1625   0.1125   0.025
0.1625   0.1375   0.025
0.1625   0.1625   0.025
0.1625   0.1875   0.025
0.1625   0.2125   0.025
0.1625   0.2375   0.025
0.1625   0.2625   0.025
0.1625   0.2875   0.025
0.1625   0.3125   0.025
0.1625   0.3375   0.025
0.1625   0.3625   0.025
0.1625   0.3875   0.025
0.1625   0.4125   0.025
0.1625   0.4375   0.025
0.1625   0.4625   0.025
0.1625   0.4875   0.025
0.1625   0.5125   0.025
0.1625   0.5375   0.025
0.1625   0.5625   0.025
0.1625   0.5875   0.025
0.1625   0.6125   0.025
0.1625   0.6375   0.025
0.1625   0.6625   0.025
0.1625   0.6875   0.025
0.1625   0.7125   0.025
0.1625   0.7375   0.025
0.1625   0.7625   0.025
0.1625   0.7875   0.025
0.1625   0.8125   0.025
0.1625   0.8375   0.025
0.1625   0.8625   0.025
0.1625   0.8875   0.025
0.1625   0.9125   0.025
0.1625   0.9375   0.025
0.1625   0.9625   0.025
0.1625   0.9875   0.025
0.1875   0.0125   0.025
0.1875   0.0375   0.025
0.1875   0.0625   0.025
0.1875   0.0875   0.025
0.1875   0.1125   0.025
0.1875   0.1375   0.025
0.1875   0.1625   0.025
0.1875   0.1875   0.025
0.1875   0.2125   0.025
0.1875   0.2375   0.025
0.1875   0.2625   0.025
0.1875   0.2875   0.025
0.1875   0.3125   0.025
0.1875   0.3375   0.025
0.1875   0.3625   0.025
0.1875   0.3875   0.025
0.1875   0.4125   0.025
0.1875   0.4375   0.025
0.1875   0.4625   0.025
0.1875   0.4875   0.025
0.1875   0.5125   0.025
0.1875   0.5375   0.025
0.1875   0.5625   0.025
0.1875   0.5875   0.025
0.1875   0.6125   0.025
0.1875   0.6375   0.025
0.1875   0.6625   0.025
0.1875   0.6875   0.025
0.1875   0.7125   0.025
0.1875   0.7375   0.025
0.1875   0.7625   0.025
0.1875   0.7875   0.025
0.1875   0.8125   0.025
0.1875   0.8375   0.025
0.1875   0.8625   0.025
0.1875   0.8875   0.025
0.1875   0.9125   0.025
0.1875   0.9375   0.025
0.1875   0.9625   0.025
0.1875   0.9875   0.025
0.2125   0.0125   0.025
0.2125   0.0375   0.025
0.2125   0.0625   0.025
0.2125   0.0875   0.025
0.2125   0.1125   0.025
0.2125   0.1375   0.025
0.2125   0.1625   0.025
0.2125   0.1875   0.025
0.2125   0.2125   0.025
0.2125   0.2375   0.025
0.2125   0.2625   0.025
0.2125   0.2875   0.025
0.2125   0.3125   0.025
0.2125   0.3375   0.025
0.2125   0.3625   0.025
0.2125   0.3875   0.025
0.2125   0.4125   0.025
0.2125   0.4375   0.025
0.2125   0.4625   0.025
0.2125   0.4875   0.025
0.2125   0.5125   0.025
0.2125   0.5375   0.025
0.2125   0.5625   0.025
0.2125   0.5875   0.025
0.2125   0.6125   0.025
0.2125   0.6375   0.025
0.2125   0.6625   0.025
0.2125   0.6875   0.025
0.2125   0.7125   0.025
0.2125   0.7375   0.025
0.2125   0.7625   0.025
0.2125   0.7875   0.025
0.2125   0.8125   0.025
0.2125   0.8375   0.025
0.2125   0.8625   0.025
0.2125   0.8875   0.025
0.2125   0.9125   0.025
0.2125   0.9375   0.025
0.2125   0.9625   0.025
0.2125   0.9875   0.025
0.2375   0.0125   0.025
0.2375   0.0375   0.025
0.2375   0.0625   0.025
0.2375   0.0875   0.025
0.2375   0.1125   0.025
0.2375   0.1375   0.025
0.2375   0.1625   0.025
0.2375   0.1875   0.025
0.2375   0.2125   0.025
0.2375   0.2375   0.025
0.2375   0.2625   0.025
0.2375   0.2875   0.025
0.2375   0.3125   0.025
0.2375   0.3375   0.025
0.2375   0.3625   0.025
0.2375   0.3875   0.025
0.2375   0.4125   0.025
0.2375   0.4375   0.025
0.2375   0.4625   0.025
0.2375   0.4875   0.025
0.2375   0.5125   0.025
0.2375   0.5375   0.025
0.2375   0.5625   0.025
0.2375   0.5875   0.025
0.2375   0.6125   0.025
0.2375   0.6375   0.025
0.2375   0.6625   0.025
0.2375   0.6875   0.025
0.2375   0.7125   0.025
0.2375   0.7375   0.025
0.2375   0.7625   0.025
0.2375   0.7875   0.025
0.2375   0.8125   0.025
0.2375   0.8375   0.025
0.2375   0.8625   0.025
0.2375   0.8875   0.025
0.2375   0.9125   0.025
0.2375   0.9375   0.025
0.2375   0.9625   0.025
0.2375   0.9875   0.025
0.2625   0.0125   0.025
0.2625   0.0375   0.025
0.2625   0.0625   0.025
0.2625   0.0875   0.025
0.2625   0.1125   0.025
0.2625   0.1375   0.025
0.2625   0.1625   0.025
0.2625   0.1875   0.025
0.2625   0.2125   0.025
0.2625   0.2375   0.025
0.2625   0.2625   0.025
[...]
POINT_DATA   32000
VECTORS Velocidades double

0 0.327717 0
0 0.745835 0
0 0.867559 0
0 0.912634 0
0 0.933688 0
0 0.945406 0
0 0.952722 0
0 0.957632 0
0 0.961084 0
0 0.963583 0
0 0.965426 0
0 0.966793 0
0 0.967804 0
0 0.968538 0
0 0.969049 0
0 0.969373 0
0 0.969537 0
0 0.969555 0
0 0.969437 0
0 0.969186 0
0 0.968799 0
0 0.96827 0
0 0.967586 0
0 0.966727 0
0 0.965668 0
0 0.964374 0
0 0.962798 0
0 0.960875 0
0 0.95852 0
0 0.955612 0
0 0.951977 0
0 0.947358 0
0 0.941353 0
0 0.933293 0
0 0.921965 0
0 0.904895 0
0 0.876272 0
0 0.820136 0
0 0.685944 0
0 0.294828 0
0 0.199885 0
0 0.507127 0
0 0.670879 0
0 0.758685 0
0 0.808945 0
0 0.83989 0
0 0.860177 0
0 0.874137 0
0 0.884087 0
0 0.891353 0
0 0.896737 0
0 0.900748 0
0 0.903721 0
0 0.905883 0
0 0.907389 0
0 0.908347 0
0 0.908828 0
0 0.90888 0
0 0.908529 0
0 0.907784 0
0 0.906639 0
0 0.905072 0
0 0.903046 0
0 0.900508 0
0 0.897381 0
0 0.893566 0
0 0.888926 0
0 0.883281 0
0 0.876387 0
0 0.867907 0
0 0.857368 0
0 0.844082 0
0 0.827013 0
0 0.804541 0
0 0.773997 0
0 0.730773 0
0 0.666561 0
0 0.566197 0
0 0.403939 0
0 0.151675 0
0 0.141486 0
0 0.378476 0
0 0.534986 0
0 0.635066 0
0 0.699856 0
0 0.743071 0
0 0.77287 0
0 0.794039 0
0 0.809444 0
0 0.82085 0
0 0.829382 0
0 0.835781 0
0 0.840546 0
0 0.844023 0
0 0.84645 0
0 0.847994 0
0 0.848768 0
0 0.848847 0
0 0.848272 0
0 0.847058 0
0 0.845194 0
0 0.842649 0
0 0.839363 0
0 0.835253 0
0 0.830202 0
0 0.824055 0
0 0.816606 0
0 0.807584 0
0 0.796629 0
0 0.783255 0
0 0.766797 0
0 0.746328 0
0 0.720529 0
0 0.687483 0
0 0.644366 0
0 0.587005 0
0 0.509411 0
0 0.403832 0
0 0.263324 0
0 0.0918313 0
0 0.109357 0
0 0.300059 0
0 0.439341 0
0 0.538 0
0 0.607505 0
0 0.656923 0
0 0.692606 0
0 0.7188 0
0 0.738308 0
0 0.752993 0
0 0.76411 0
0 0.772521 0
0 0.778825 0
0 0.783443 0
0 0.786677 0
0 0.788736 0
0 0.789765 0
0 0.789861 0
0 0.789077 0
0 0.787432 0
0 0.784915 0
0 0.781483 0
0 0.777064 0
0 0.77155 0
0 0.764796 0
0 0.756608 0
0 0.746735 0
0 0.73485 0
0 0.72053 0
0 0.70322 0
0 0.68219 0
0 0.656471 0
0 0.62477 0
0 0.585372 0
0 0.536028 0
0 0.473932 0
0 0.395959 0
0 0.29963 0
0 0.185593 0
0 0.0622669 0
0 0.0889636 0
0 0.247261 0
0 0.369231 0
0 0.461256 0
0 0.530022 0
0 0.581393 0
0 0.619972 0
0 0.649161 0
0 0.671405 0
0 0.688441 0
0 0.701507 0
0 0.71149 0
0 0.719026 0
0 0.724576 0
0 0.728474 0
0 0.730958 0
0 0.732196 0
0 0.732296 0
0 0.731322 0
0 0.729297 0
0 0.726209 0
0 0.722011 0
0 0.716619 0
0 0.709914 0
0 0.701732 0
0 0.691862 0
0 0.680031 0
0 0.665893 0
0 0.649013 0
0 0.628839 0
0 0.604676 0
0 0.575654 0
0 0.540697 0
0 0.498505 0
0 0.447598 0
0 0.386474 0
0 0.314031 0
0 0.230424 0
0 0.138506 0
0 0.045524 0
0 0.0746392 0
0 0.208916 0
0 0.315634 0
0 0.399484 0
0 0.464801 0
0 0.515478 0
0 0.554783 0
0 0.585319 0
0 0.609086 0
0 0.627597 0
0 0.641982 0
0 0.653083 0
0 0.661528 0
0 0.667782 0
0 0.67219 0
0 0.675001 0
0 0.676393 0
0 0.676485 0
0 0.675345 0
0 0.672999 0
0 0.669437 0
0 0.664608 0
0 0.658427 0
0 0.650769 0
0 0.641466 0
0 0.630304 0
0 0.617014 0
0 0.60126 0
0 0.582633 0
0 0.560636 0
0 0.534674 0
0 0.504046 0
0 0.467955 0
0 0.425547 0
0 0.37601 0
0 0.318772 0
0 0.253869 0
0 0.1825 0
0 0.107725 0
0 0.0350036 0
0 0.0638473 0
0 0.179459 0
0 0.273128 0
0 0.348744 0
0 0.409426 0
0 0.457886 0
0 0.496463 0
0 0.527115 0
0 0.551426 0
0 0.570656 0
0 0.585787 0
0 0.59758 0
0 0.606619 0
0 0.613351 0
0 0.618112 0
0 0.62115 0
0 0.622644 0
0 0.622716 0
0 0.621436 0
0 0.618834 0
0 0.6149 0
0 0.609585 0
0 0.602806 0
0 0.594442 0
0 0.584331 0
0 0.57227 0
0 0.558009 0
0 0.541245 0
0 0.521622 0
0 0.498725 0
0 0.472082 0
0 0.441181 0
0 0.405495 0
0 0.364542 0
0 0.317992 0
0 0.265844 0
0 0.20867 0
0 0.147941 0
0 0.0863315 0
0 0.0278623 0
0 0.0553092 0
0 0.155876 0
0 0.238391 0
0 0.306261 0
0 0.361919 0
0 0.407361 0
0 0.444299 0
0 0.474205 0
0 0.498316 0
0 0.517653 0
0 0.533045 0
0 0.545153 0
0 0.554502 0
0 0.561502 0
0 0.566467 0
0 0.569636 0
0 0.571182 0
0 0.571224 0
0 0.569834 0
0 0.567041 0
0 0.562838 0
0 0.557182 0
0 0.549996 0
0 0.541167 0
0 0.530547 0
0 0.517956 0
0 0.503172 0
0 0.485939 0
0 0.465964 0
0 0.442923 0
0 0.416472 0
0 0.386268 0
0 0.352006 0
0 0.313481 0
0 0.270674 0
0 0.223886 0
0 0.173891 0
0 0.122106 0
0 0.0707211 0
0 0.0227269 0
0 0.0483149 0
0 0.13641 0
0 0.209322 0
0 0.270098 0
0 0.320747 0
0 0.362809 0
0 0.397578 0
0 0.426169 0
0 0.449544 0
0 0.468521 0
0 0.483782 0
0 0.49589 0
0 0.505303 0
0 0.512385 0
0 0.517423 0
0 0.520638 0
0 0.522191 0
0 0.522197 0
0 0.520724 0
0 0.517805 0
0 0.513434 0
0 0.507575 0
0 0.500159 0
0 0.491087 0
0 0.480233 0
0 0.467439 0
0 0.452522 0
0 0.435274 0
0 0.415469 0
0 0.39287 0
0 0.367246 0
0 0.338392 0
0 0.306173 0
0 0.270566 0
0 0.231737 0
0 0.190121 0
0 0.14652 0
0 0.102188 0
0 0.0588815 0
0 0.0188685 0
0 0.042439 0
0 0.119972 0
0 0.184542 0
0 0.238893 0
0 0.28474 0
0 0.323324 0
0 0.355648 0
0 0.382573 0
0 0.404847 0
0 0.423122 0
0 0.437953 0
0 0.449811 0
0 0.459085 0
0 0.466095 0
0 0.471093 0
0 0.47428 0
0 0.475803 0
0 0.475769 0
0 0.474243 0
0 0.471257 0
0 0.46681 0
0 0.460873 0
0 0.453388 0
0 0.444273 0
0 0.43342 0
0 0.420702 0
0 0.405974 0
0 0.389075 0
0 0.369841 0
0 0.348111 0
0 0.323745 0
0 0.296648 0
0 0.266799 0
0 0.23429 0
0 0.199381 0
0 0.162548 0
0 0.124542 0
0 0.0864302 0
0 0.049621 0
0 0.0158699 0
0 0.0374107 0
0 0.105855 0
0 0.163117 0
0 0.211672 0
0 0.253012 0
0 0.288168 0
0 0.317941 0
0 0.343004 0
0 0.363946 0
0 0.381284 0
0 0.395468 0
0 0.406884 0
0 0.415863 0
0 0.422675 0
0 0.427542 0
0 0.430641 0
0 0.432105 0
0 0.43203 0
0 0.430477 0
0 0.427479 0
0 0.423039 0
0 0.417134 0
0 0.409719 0
0 0.400727 0
0 0.390074 0
0 0.37766 0
0 0.363373 0
0 0.3471 0
0 0.328727 0
0 0.308158 0
0 0.285323 0
0 0.260203 0
0 0.232852 0
0 0.203431 0
0 0.172233 0
0 0.139726 0
0 0.106582 0
0 0.0736943 0
0 0.0421972 0
0 0.0134766 0
0 0.0330487 0
0 0.0935776 0
0 0.144392 0
0 0.187723 0
0 0.224883 0
0 0.256748 0
0 0.28397 0
0 0.307088 0
0 0.326566 0
0 0.342817 0
0 0.356204 0
0 0.367042 0
0 0.375607 0
0 0.382127 0
0 0.386793 0
0 0.389757 0
0 0.39114 0
0 0.391025 0
0 0.389472 0
0 0.38651 0
0 0.382146 0
0 0.376367 0
0 0.369136 0
0 0.360405 0
0 0.350109 0
0 0.338173 0
0 0.324519 0
0 0.30907 0
0 0.291756 0
0 0.272529 0
0 0.251373 0
0 0.22832 0
0 0.20347 0
0 0.177012 0
0 0.149249 0
0 0.120612 0
0 0.0916862 0
0 0.0632179 0
0 0.0361268 0
0 0.0115258 0
0 0.0292268 0
0 0.0828 0
0 0.127895 0
0 0.166517 0
0 0.19983 0
0 0.228585 0
0 0.253326 0
0 0.274488 0
0 0.292446 0
0 0.307526 0
0 0.320021 0
0 0.33019 0
0 0.338258 0
0 0.344418 0
0 0.348831 0
0 0.351628 0
0 0.352914 0
0 0.352764 0
0 0.351231 0
0 0.348346 0
0 0.344118 0
0 0.338538 0
0 0.331585 0
0 0.323221 0
0 0.313401 0
0 0.302073 0
0 0.289186 0
0 0.274693 0
0 0.25856 0
0 0.240773 0
0 0.221354 0
0 0.200367 0
0 0.177937 0
0 0.154264 0
0 0.129634 0
0 0.104438 0
0 0.0791774 0
0 0.054475 0
0 0.0310834 0
0 0.00990897 0
0 0.0258539 0
0 0.0732748 0
0 0.113275 0
0 0.147651 0
0 0.177438 0
0 0.203288 0
0 0.225659 0
0 0.244909 0
0 0.26134 0
0 0.275215 0
0 0.28677 0
0 0.296215 0
0 0.303735 0
0 0.309489 0
0 0.313614 0
0 0.316223 0
0 0.317403 0
0 0.317223 0
0 0.31573 0
0 0.312953 0
0 0.308906 0
0 0.303586 0
0 0.296978 0
0 0.28906 0
0 0.279802 0
0 0.269171 0
0 0.257137 0
0 0.243679 0
0 0.228787 0
0 0.212475 0
0 0.194787 0
0 0.175807 0
0 0.155671 0
0 0.134573 0
0 0.112779 0
0 0.0906329 0
0 0.0685644 0
0 0.047093 0
0 0.0268396 0
0 0.00855086 0
0 0.0228618 0
0 0.0648161 0
0 0.100264 0
0 0.130812 0
0 0.15738 0
0 0.180537 0
0 0.200673 0
0 0.218088 0
0 0.233024 0
0 0.245697 0
0 0.256296 0
0 0.264992 0
0 0.271935 0
0 0.277259 0
0 0.281076 0
0 0.283482 0
0 0.284553 0
0 0.284349 0
0 0.282912 0
0 0.28027 0
0 0.276438 0
0 0.271419 0
0 0.265207 0
0 0.257788 0
0 0.249147 0
0 0.239267 0
0 0.228135 0
0 0.215746 0
0 0.202112 0
0 0.187262 0
0 0.171257 0
0 0.154188 0
0 0.136192 0
0 0.117453 0
0 0.0982106 0
0 0.0787661 0
0 0.0594844 0
0 0.0408011 0
0 0.0232319 0
0 0.00739792 0
0 0.0201984 0
0 0.0572802 0
0 0.088653 0
0 0.11575 0
0 0.139387 0
0 0.160063 0
0 0.178114 0
0 0.193789 0
0 0.207289 0
0 0.218789 0
0 0.228442 0
0 0.236386 0
0 0.242745 0
0 0.247628 0
0 0.251129 0
0 0.253328 0
0 0.25429 0
0 0.254068 0
0 0.252699 0
0 0.25021 0
0 0.246618 0
0 0.241929 0
0 0.236144 0
0 0.229258 0
0 0.221265 0
0 0.212161 0
0 0.201946 0
0 0.19063 0
0 0.178235 0
0 0.164804 0
0 0.150403 0
0 0.135127 0
0 0.119108 0
0 0.102514 0
0 0.0855601 0
0 0.0685064 0
0 0.0516637 0
0 0.0353979 0
0 0.0201402 0
0 0.00641095 0
0 0.0178224 0
0 0.050553 0
0 0.0782747 0
0 0.102262 0
0 0.123237 0
0 0.14164 0
0 0.157759 0
0 0.171804 0
0 0.183943 0
0 0.194318 0
0 0.203053 0
0 0.210261 0
0 0.216042 0
0 0.220486 0
0 0.223671 0
0 0.225665 0
0 0.226522 0
0 0.226287 0
0 0.224996 0
0 0.222673 0
0 0.219335 0
0 0.214993 0
0 0.209651 0
0 0.203312 0
0 0.195978 0
0 0.187654 0
0 0.178349 0
0 0.168083 0
0 0.156886 0
0 0.144807 0
0 0.131915 0
0 0.118303 0
0 0.104094 0
0 0.0894415 0
0 0.0745337 0
0 0.0595957 0
0 0.0448919 0
0 0.0307306 0
0 0.017474 0
0 0.00556051 0
0 0.0157004 0
0 0.0445419 0
0 0.0689913 0
0 0.0901788 0
0 0.108744 0
0 0.125071 0
0 0.139412 0
0 0.151944 0
0 0.162807 0
0 0.172116 0
0 0.179975 0
0 0.186474 0
0 0.191695 0
0 0.195712 0
0 0.19859 0
0 0.200383 0
0 0.20114 0
0 0.2009 0
0 0.199693 0
0 0.197543 0
0 0.194466 0
0 0.190477 0
0 0.185583 0
0 0.179791 0
0 0.173111 0
0 0.165553 0
0 0.157133 0
0 0.147876 0
0 0.137818 0
0 0.127011 0
0 0.115523 0
0 0.103442 0
0 0.0908812 0
0 0.0779775 0
0 0.0648959 0
0 0.05183 0
0 0.0390048 0
0 0.0266808 0
0 0.0151636 0
0 0.00482407 0
0 0.0138047 0
0 0.0391695 0
0 0.0606876 0
0 0.0793579 0
0 0.095745 0
0 0.110186 0
0 0.122899 0
0 0.134036 0
0 0.143713 0
0 0.152026 0
0 0.159058 0
0 0.164885 0
0 0.169572 0
0 0.17318 0
0 0.175762 0
0 0.177365 0
0 0.178029 0
0 0.177788 0
0 0.176669 0
0 0.174694 0
0 0.17188 0
0 0.168241 0
0 0.163789 0
0 0.158535 0
0 0.15249 0
0 0.145671 0
0 0.138097 0
0 0.129798 0
0 0.120811 0
0 0.111188 0
0 0.100994 0
0 0.0903118 0
0 0.0792432 0
0 0.0679096 0
0 0.0564547 0
0 0.0450448 0
0 0.0338714 0
0 0.0231551 0
0 0.0131544 0
0 0.00418396 0
0 0.0121119 0
0 0.0343703 0
0 0.0532646 0
0 0.0696754 0
0 0.0840996 0
0 0.0968327 0
0 0.108063 0
0 0.117921 0
0 0.126505 0
0 0.133894 0
0 0.140156 0
0 0.145351 0
0 0.149535 0
0 0.152757 0
0 0.155061 0
0 0.156485 0
0 0.157064 0
0 0.156826 0
0 0.155797 0
0 0.153996 0
0 0.15144 0
0 0.148143 0
0 0.14412 0
0 0.139383 0
0 0.133948 0
0 0.127831 0
0 0.121057 0
0 0.113655 0
0 0.105663 0
0 0.0971324 0
0 0.0881233 0
0 0.0787117 0
0 0.0689884 0
0 0.0590604 0
0 0.0490521 0
0 0.0391064 0
0 0.0293861 0
0 0.0200785 0
0 0.0114025 0
0 0.00362613 0
0 0.0106015 0
0 0.0300872 0
0 0.0466364 0
0 0.0610228 0
0 0.0736824 0
0 0.0848739 0
0 0.0947606 0
0 0.103454 0
0 0.111037 0
0 0.117575 0
0 0.123124 0
0 0.127734 0
0 0.13145 0
0 0.134311 0
0 0.136354 0
0 0.137612 0
0 0.138114 0
0 0.137884 0
0 0.136944 0
0 0.135312 0
0 0.133006 0
0 0.130039 0
0 0.126426 0
0 0.122181 0
0 0.11732 0
0 0.111864 0
0 0.105837 0
0 0.0992673 0
0 0.092194 0
0 0.0846633 0
0 0.076732 0
0 0.0684685 0
0 0.0599532 0
0 0.0512798 0
0 0.0425559 0
0 0.0339037 0
0 0.0254621 0
0 0.0173897 0
0 0.00987266 0
0 0.00313914 0
0 0.00925574 0
0 0.0262702 0
0 0.0407267 0
0 0.053303 0
0 0.0643808 0
0 0.0741858 0
0 0.0828594 0
0 0.0904972 0
0 0.0971688 0
0 0.102929 0
0 0.107825 0
0 0.111896 0
0 0.115179 0
0 0.117707 0
0 0.119511 0
0 0.120616 0
0 0.121048 0
0 0.120829 0
0 0.119976 0
0 0.118508 0
0 0.116439 0
0 0.113784 0
0 0.110558 0
0 0.106775 0
0 0.102453 0
0 0.097612 0
0 0.0922751 0
0 0.086472 0
0 0.0802385 0
0 0.0736178 0
0 0.0666616 0
0 0.0594308 0
0 0.0519965 0
0 0.0444401 0
0 0.0368544 0
0 0.0293439 0
0 0.0220268 0
0 0.0150379 0
0 0.00853534 0
0 0.00271357 0
0 0.00805873 0
0 0.0228744 0
0 0.0354672 0
0 0.046429 0
0 0.0560927 0
0 0.0646546 0
0 0.0722374 0
0 0.0789228 0
0 0.0847698 0
0 0.0898241 0
0 0.094124 0
0 0.0977027 0
0 0.10059 0
0 0.102813 0
0 0.104396 0
0 0.105363 0
0 0.105734 0
0 0.105527 0
0 0.104759 0
0 0.103445 0
0 0.1016 0
0 0.0992387 0
0 0.096374 0
0 0.0930215 0
0 0.089198 0
0 0.0849232 0
0 0.0802204 0
0 0.0751174 0
0 0.0696473 0
0 0.0638498 0
0 0.0577712 0
0 0.0514657 0
0 0.0449954 0
0 0.0384309 0
0 0.031852 0
0 0.0253479 0
0 0.0190192 0
0 0.0129804 0
0 0.00736597 0
0 0.00234155 0
0 0.00699609 0
0 0.0198593 0
0 0.030796 0
0 0.040321 0
0 0.0487241 0
0 0.0561755 0
0 0.0627812 0
0 0.0686112 0
0 0.0737152 0
0 0.0781318 0
0 0.0818923 0
0 0.0850241 0
0 0.0875516 0
0 0.0894971 0
0 0.0908811 0
0 0.0917225 0
0 0.0920387 0
0 0.0918456 0
0 0.0911581 0
0 0.0899899 0
0 0.0883544 0
0 0.0862648 0
0 0.0837346 0
0 0.0807786 0
0 0.0774131 0
0 0.0736568 0
0 0.0695319 0
0 0.0650641 0
0 0.060284 0
0 0.0552272 0
0 0.0499351 0
0 0.0444553 0
0 0.038842 0
0 0.0331561 0
0 0.027466 0
0 0.0218478 0
0 0.0163871 0
0 0.0111809 0
0 0.00634364 0
0 0.00201638 0
0 0.00605474 0
0 0.0171881 0
0 0.0266564 0
0 0.0349062 0
0 0.0421886 0
0 0.0486511 0
0 0.0543847 0
0 0.0594495 0
0 0.0638875 0
0 0.0677309 0
0 0.0710057 0
0 0.0737344 0
0 0.075937 0
0 0.0776318 0
0 0.0788358 0
0 0.0795648 0
0 0.0798334 0
0 0.0796554 0
0 0.0790437 0
0 0.0780107 0
0 0.0765685 0
0 0.0747295 0
0 0.0725064 0
0 0.0699131 0
0 0.0669651 0
0 0.0636801 0
0 0.0600784 0
0 0.0561839 0
0 0.052024 0
0 0.0476306 0
0 0.0430404 0
0 0.0382949 0
0 0.033441 0
0 0.0285314 0
0 0.0236243 0
0 0.0187847 0
0 0.0140851 0
0 0.00960804 0
0 0.00545037 0
0 0.0017323 0
0 0.00522272 0
0 0.0148268 0
0 0.0229963 0
0 0.0301172 0
0 0.0364062 0
0 0.0419906 0
0 0.0469487 0
0 0.0513316 0
0 0.0551749 0
0 0.0585056 0
0 0.0613453 0
0 0.0637123 0
0 0.0656231 0
0 0.0670929 0
0 0.0681356 0
0 0.0687643 0
0 0.0689915 0
0 0.068829 0
0 0.068288 0
0 0.0673796 0
0 0.0661148 0
0 0.0645048 0
0 0.0625615 0
0 0.0602978 0
0 0.0577281 0
0 0.0548687 0
0 0.0517382 0
0 0.0483581 0
0 0.044753 0
0 0.0409513 0
0 0.036985 0
0 0.0328903 0
0 0.0287076 0
0 0.0244821 0
0 0.0202635 0
0 0.016107 0
0 0.012074 0
0 0.00823447 0
0 0.00467054 0
0 0.00148435 0
0 0.00448897 0
0 0.0127442 0
0 0.0197677 0
0 0.0258916 0
0 0.0313025 0
0 0.0361096 0
0 0.0403802 0
0 0.0441576 0
0 0.0474722 0
0 0.0503462 0
0 0.0527977 0
0 0.0548418 0
0 0.056492 0
0 0.0577607 0
0 0.0586595 0
0 0.0591993 0
0 0.0593907 0
0 0.0592438 0
0 0.0587682 0
0 0.0579739 0
0 0.0568705 0
0 0.0554685 0
0 0.0537785 0
0 0.0518124 0
0 0.0495833 0
0 0.0471062 0
0 0.0443978 0
0 0.0414772 0
0 0.0383665 0
0 0.0350903 0
0 0.0316767 0
0 0.028157 0
0 0.0245659 0
0 0.0209419 0
0 0.0173274 0
0 0.0137691 0
0 0.010319 0
0 0.00703628 0
0 0.00399045 0
0 0.00126813 0
0 0.00384329 0
0 0.0109115 0
0 0.016926 0
0 0.0221715 0
0 0.0268081 0
0 0.0309291 0
0 0.034592 0
0 0.0378337 0
0 0.0406796 0
0 0.0431484 0
0 0.0452551 0
0 0.0470121 0
0 0.0484304 0
0 0.0495204 0
0 0.0502915 0
0 0.0507529 0
0 0.0509134 0
0 0.0507817 0
0 0.0503663 0
0 0.0496756 0
0 0.0487184 0
0 0.047504 0
0 0.046042 0
0 0.0443432 0
0 0.0424195 0
0 0.0402841 0
0 0.037952 0
0 0.0354403 0
0 0.0327681 0
0 0.0299572 0
0 0.0270316 0
0 0.0240184 0
0 0.0209473 0
0 0.0178511 0
0 0.0147656 0
0 0.0117304 0
0 0.00878929 0
0 0.00599226 0
0 0.003398 0
0 0.0010798 0
0 0.00327622 0
0 0.00930174 0
0 0.0144297 0
0 0.0189031 0
0 0.0228584 0
0 0.0263753 0
0 0.0295025 0
0 0.0322713 0
0 0.0347032 0
0 0.0368137 0
0 0.0386151 0
0 0.0401178 0
0 0.0413308 0
0 0.0422624 0
0 0.0429206 0
0 0.0433131 0
0 0.0434472 0
0 0.0433302 0
0 0.0429695 0
0 0.0423725 0
0 0.041547 0
0 0.040501 0
0 0.0392434 0
0 0.0377835 0
0 0.0361321 0
0 0.0343009 0
0 0.0323031 0
0 0.0301537 0
0 0.0278695 0
0 0.0254691 0
0 0.0229733 0
0 0.0204053 0
0 0.0177904 0
0 0.0151562 0
0 0.0125332 0
0 0.00995462 0
0 0.00745741 0
0 0.00508352 0
0 0.00288242 0
0 0.000915916 0
0 0.00277895 0
0 0.0078901 0
0 0.0122404 0
0 0.0160362 0
0 0.0193932 0
0 0.0223791 0
0 0.0250351 0
0 0.0273876 0
0 0.0294546 0
0 0.031249 0
0 0.0327811 0
0 0.0340591 0
0 0.0350907 0
0 0.0358826 0
0 0.0364414 0
0 0.0367734 0
0 0.0368848 0
0 0.0367819 0
0 0.0364709 0
0 0.0359582 0
0 0.0352507 0
0 0.0343553 0
0 0.03328 0
0 0.0320329 0
0 0.0306235 0
0 0.0290622 0
0 0.0273604 0
0 0.0255313 0
0 0.0235892 0
0 0.0215502 0
0 0.0194321 0
0 0.0172546 0
0 0.0150391 0
0 0.0128089 0
0 0.0105897 0
0 0.00840928 0
0 0.00629871 0
0 0.00429315 0
0 0.00243408 0
0 0.000773418 0
0 0.00234332 0
0 0.00665336 0
0 0.0103222 0
0 0.0135239 0
0 0.0163561 0
0 0.0188759 0
0 0.0211181 0
0 0.0231047 0
0 0.0248506 0
0 0.0263668 0
0 0.0276615 0
0 0.0287416 0
0 0.0296133 0
0 0.0302822 0
0 0.0307536 0
0 0.0310327 0
0 0.0311248 0
0 0.0310351 0
0 0.030769 0
0 0.0303319 0
0 0.0297298 0
0 0.0289687 0
0 0.0280555 0
0 0.0269974 0
0 0.0258026 0
0 0.02448 0
0 0.0230398 0
0 0.021493 0
0 0.0198521 0
0 0.0181308 0
0 0.0163441 0
0 0.0145087 0
0 0.0126425 0
0 0.0107652 0
0 0.00889825 0
0 0.00706489 0
0 0.005291 0
0 0.00360591 0
0 0.00204429 0
0 0.000649543 0
0 0.0019617 0
0 0.00556994 0
0 0.00864163 0
0 0.0113226 0
0 0.0136946 0
0 0.0158055 0
0 0.0176843 0
0 0.0193494 0
0 0.0208131 0
0 0.0220845 0
0 0.0231703 0
0 0.0240762 0
0 0.0248072 0
0 0.0253678 0
0 0.0257625 0
0 0.0259955 0
0 0.0260711 0
0 0.0259938 0
0 0.0257681 0
0 0.0253986 0
0 0.0248904 0
0 0.0242487 0
0 0.0234795 0
0 0.0225889 0
0 0.021584 0
0 0.0204726 0
0 0.0192631 0
0 0.0179651 0
0 0.0165891 0
0 0.0151468 0
0 0.0136507 0
0 0.0121148 0
0 0.0105542 0
0 0.0089852 0
0 0.0074256 0
0 0.00589476 0
0 0.00441413 0
0 0.00300803 0
0 0.00170523 0
0 0.000541795 0
0 0.001627 0
0 0.00461966 0
0 0.0071675 0
0 0.00939149 0
0 0.0113596 0
0 0.0131113 0
0 0.0146708 0
0 0.0160531 0
0 0.0172686 0
0 0.0183246 0
0 0.0192265 0
0 0.019979 0
0 0.020586 0
0 0.0210514 0
0 0.0213787 0
0 0.0215713 0
0 0.021633 0
0 0.0215672 0
0 0.0213778 0
0 0.0210687 0
0 0.0206441 0
0 0.0201087 0
0 0.0194672 0
0 0.0187252 0
0 0.0178884 0
0 0.0169635 0
0 0.0159577 0
0 0.0148789 0
0 0.0137362 0
0 0.012539 0
0 0.011298 0
0 0.0100247 0
0 0.00873165 0
0 0.0074323 0
0 0.00614129 0
0 0.00487457 0
0 0.0036498 0
0 0.00248698 0
0 0.00140977 0
0 0.000447909 0
0 0.00133256 0
0 0.00378369 0
0 0.00587061 0
0 0.00769245 0
0 0.00930487 0
0 0.0107403 0
0 0.0120184 0
0 0.0131515 0
0 0.0141481 0
0 0.0150139 0
0 0.0157535 0
0 0.0163706 0
0 0.0168683 0
0 0.0172497 0
0 0.0175177 0
0 0.017675 0
0 0.0177246 0
0 0.0176695 0
0 0.0175128 0
0 0.0172578 0
0 0.0169079 0
0 0.016467 0
0 0.0159392 0
0 0.015329 0
0 0.0146413 0
0 0.0138816 0
0 0.0130559 0
0 0.0121709 0
0 0.0112339 0
0 0.0102528 0
0 0.00923628 0
0 0.00819389 0
0 0.00713578 0
0 0.00607298 0
0 0.00501742 0
0 0.00398207 0
0 0.00298127 0
0 0.0020313 0
0 0.00115142 0
0 0.000365815 0
0 0.00107217 0
0 0.00304435 0
0 0.00472356 0
0 0.00618961 0
0 0.00748728 0
0 0.00864266 0
0 0.00967153 0
0 0.0105839 0
0 0.0113864 0
0 0.0120836 0
0 0.0126793 0
0 0.0131763 0
0 0.0135771 0
0 0.0138841 0
0 0.0140996 0
0 0.0142259 0
0 0.0142652 0
0 0.01422 0
0 0.0140928 0
0 0.0138863 0
0 0.0136033 0
0 0.013247 0
0 0.0128206 0
0 0.012328 0
0 0.0117731 0
0 0.0111604 0
0 0.0104948 0
0 0.00978171 0
0 0.00902707 0
0 0.00823731 0
0 0.00741945 0
0 0.00658109 0
0 0.00573044 0
0 0.00487632 0
0 0.0040283 0
0 0.00319675 0
0 0.00239313 0
0 0.00163048 0
0 0.000924178 0
0 0.000293614 0
0 0.000839939 0
0 0.00238497 0
0 0.00370055 0
0 0.00484919 0
0 0.00586601 0
0 0.00677142 0
0 0.00757779 0
0 0.00829293 0
0 0.008922 0
0 0.00946868 0
0 0.0099357 0
0 0.0103253 0
0 0.0106395 0
0 0.0108801 0
0 0.0110489 0
0 0.0111475 0
0 0.0111779 0
0 0.011142 0
0 0.0110416 0
0 0.0108789 0
0 0.0106563 0
0 0.0103761 0
0 0.010041 0
0 0.00965396 0
0 0.00921821 0
0 0.00873728 0
0 0.00821505 0
0 0.00765578 0
0 0.00706415 0
0 0.00644522 0
0 0.00580452 0
0 0.00514799 0
0 0.00448205 0
0 0.0038136 0
0 0.00315009 0
0 0.00249963 0
0 0.00187114 0
0 0.00127477 0
0 0.000722538 0
0 0.000229549 0
0 0.00063033 0
0 0.00178981 0
0 0.00277712 0
0 0.00363919 0
0 0.00440238 0
0 0.00508201 0
0 0.00568736 0
0 0.00622426 0
0 0.00669659 0
0 0.00710708 0
0 0.00745777 0
0 0.00775033 0
0 0.00798623 0
0 0.00816681 0
0 0.00829339 0
0 0.00836729 0
0 0.00838985 0
0 0.0083625 0
0 0.00828674 0
0 0.00816416 0
0 0.00799648 0
0 0.00778557 0
0 0.00753346 0
0 0.00724237 0
0 0.00691475 0
0 0.00655328 0
0 0.00616089 0
0 0.00574082 0
0 0.00529657 0
0 0.00483198 0
0 0.00435118 0
0 0.00385864 0
0 0.00335917 0
0 0.00285795 0
0 0.00236053 0
0 0.00187299 0