# vtk DataFile Version 2.0
Presion
ASCII

DATASET STRUCTURED_GRID
DIMENSIONS   40   40   20

POINTS   32000   double
0.0125   0.0125   0.025
0.0375   0.0125   0.025
0.0625   0.0125   0.025
0.0875   0.0125   0.025
0.1125   0.0125   0.025
0.1375   0.0125   0.025
0.1625   0.0125   0.025
0.1875   0.0125   0.025
0.2125   0.0125   0.025
0.2375   0.0125   0.025
0.2625   0.0125   0.025
0.2875   0.0125   0.025
0.3125   0.0125   0.025
0.3375   0.0125   0.025
0.3625   0.0125   0.025
0.3875   0.0125   0.025
0.4125   0.0125   0.025
0.4375   0.0125   0.025
0.4625   0.0125   0.025
0.4875   0.0125   0.025
0.5125   0.0125   0.025
0.5375   0.0125   0.025
0.5625   0.0125   0.025
0.5875   0.0125   0.025
0.6125   0.0125   0.025
0.6375   0.0125   0.025
0.6625   0.0125   0.025
0.6875   0.0125   0.025
0.7125   0.0125   0.025
0.7375   0.0125   0.025
0.7625   0.0125   0.025
0.7875   0.0125   0.025
0.8125   0.0125   0.025
0.8375   0.0125   0.025
0.8625   0.0125   0.025
0.8875   0.0125   0.025
0.9125   0.0125   0.025
0.9375   0.0125   0.025
0.9625   0.0125   0.025
0.9875   0.0125   0.025
0.0125   0.0375   0.025
0.0375   0.0375   0.025
0.0625   0.0375   0.025
0.0875   0.0375   0.025
0.1125   0.0375   0.025
0.1375   0.0375   0.025
0.1625   0.0375   0.025
0.1875   0.0375   0.025
0.2125   0.0375   0.025
0.2375   0.0375   0.025
0.2625   0.0375   0.025
0.2875   0.0375   0.025
0.3125   0.0375   0.025
0.3375   0.0375   0.025
0.3625   0.0375   0.025
0.3875   0.0375   0.025
0.4125   0.0375   0.025
0.4375   0.0375   0.025
0.4625   0.0375   0.025
0.4875   0.0375   0.025
0.5125   0.0375   0.025
0.5375   0.0375   0.025
0.5625   0.0375   0.025
0.5875   0.0375   0.025
0.6125   0.0375   0.025
0.6375   0.0375   0.025
0.6625   0.0375   0.025
0.6875   0.0375   0.025
0.7125   0.0375   0.025
0.7375   0.0375   0.025
0.7625   0.0375   0.025
0.7875   0.0375   0.025
0.8125   0.0375   0.025
0.8375   0.0375   0.025
0.8625   0.0375   0.025
0.8875   0.0375   0.025
0.9125   0.0375   0.025
0.9375   0.0375   0.025
0.9625   0.0375   0.025
0.9875   0.0375   0.025
0.0125   0.0625   0.025
0.0375   0.0625   0.025
0.0625   0.0625   0.025
0.0875   0.0625   0.025
0.1125   0.0625   0.025
0.1375   0.0625   0.025
0.1625   0.0625   0.025
0.1875   0.0625   0.025
0.2125   0.0625   0.025
0.2375   0.0625   0.025
0.2625   0.0625   0.025
0.2875   0.0625   0.025
0.3125   0.0625   0.025
0.3375   0.0625   0.025
0.3625   0.0625   0.025
0.3875   0.0625   0.025
0.4125   0.0625   0.025
0.4375   0.0625   0.025
0.4625   0.0625   0.025
0.4875   0.0625   0.025
0.5125   0.0625   0.025
0.5375   0.0625   0.025
0.5625   0.0625   0.025
0.5875   0.0625   0.025
0.6125   0.0625   0.025
0.6375   0.0625   0.025
0.6625   0.0625   0.025
0.6875   0.0625   0.025
0.7125   0.0625   0.025
0.7375   0.0625   0.025
0.7625   0.0625   0.025
0.7875   0.0625   0.025
0.8125   0.0625   0.025
0.8375   0.0625   0.025
0.8625   0.0625   0.025
0.8875   0.0625   0.025
0.9125   0.0625   0.025
0.9375   0.0625   0.025
0.9625   0.0625   0.025
0.9875   0.0625   0.025
0.0125   0.0875   0.025
0.0375   0.0875   0.025
0.0625   0.0875   0.025
0.0875   0.0875   0.025
0.1125   0.0875   0.025
0.1375   0.0875   0.025
0.1625   0.0875   0.025
0.1875   0.0875   0.025
0.2125   0.0875   0.025
0.2375   0.0875   0.025
0.2625   0.0875   0.025
0.2875   0.0875   0.025
0.3125   0.0875   0.025
0.3375   0.0875   0.025
0.3625   0.0875   0.025
0.3875   0.0875   0.025
0.4125   0.0875   0.025
0.4375   0.0875   0.025
0.4625   0.0875   0.025
0.4875   0.0875   0.025
0.5125   0.0875   0.025
0.5375   0.0875   0.025
0.5625   0.0875   0.025
0.5875   0.0875   0.025
0.6125   0.0875   0.025
0.6375   0.0875   0.025
0.6625   0.0875   0.025
0.6875   0.0875   0.025
0.7125   0.0875   0.025
0.7375   0.0875   0.025
0.7625   0.0875   0.025
0.7875   0.0875   0.025
0.8125   0.0875   0.025
0.8375   0.0875   0.025
0.8625   0.0875   0.025
0.8875   0.0875   0.025
0.9125   0.0875   0.025
0.9375   0.0875   0.025
0.9625   0.0875   0.025
0.9875   0.0875   0.025
0.0125   0.1125   0.025
0.0375   0.1125   0.025
0.0625   0.1125   0.025
0.0875   0.1125   0.025
0.1125   0.1125   0.025
0.1375   0.1125   0.025
0.1625   0.1125   0.025
0.1875   0.1125   0.025
0.2125   0.1125   0.025
0.2375   0.1125   0.025
0.2625   0.1125   0.025
0.2875   0.1125   0.025
0.3125   0.1125   0.025
0.3375   0.1125   0.025
0.3625   0.1125   0.025
0.3875   0.1125   0.025
0.4125   0.1125   0.025
0.4375   0.1125   0.025
0.4625   0.1125   0.025
0.4875   0.1125   0.025
0.5125   0.1125   0.025
0.5375   0.1125   0.025
0.5625   0.1125   0.025
0.5875   0.1125   0.025
0.6125   0.1125   0.025
0.6375   0.1125   0.025
0.6625   0.1125   0.025
0.6875   0.1125   0.025
0.7125   0.1125   0.025
0.7375   0.1125   0.025
0.7625   0.1125   0.025
0.7875   0.1125   0.025
0.8125   0.1125   0.025
0.8375   0.1125   0.025
0.8625   0.1125   0.025
0.8875   0.1125   0.025
0.9125   0.1125   0.025
0.9375   0.1125   0.025
0.9625   0.1125   0.025
0.9875   0.1125   0.025
0.0125   0.1375   0.025
0.0375   0.1375   0.025
0.0625   0.1375   0.025
0.0875   0.1375   0.025
0.1125   0.1375   0.025
0.1375   0.1375   0.025
0.1625   0.1375   0.025
0.1875   0.1375   0.025
0.2125   0.1375   0.025
0.2375   0.1375   0.025
0.2625   0.1375   0.025
0.2875   0.1375   0.025
0.3125   0.1375   0.025
0.3375   0.1375   0.025
0.3625   0.1375   0.025
0.3875   0.1375   0.025
0.4125   0.1375   0.025
0.4375   0.1375   0.025
0.4625   0.1375   0.025
0.4875   0.1375   0.025
0.5125   0.1375   0.025
0.5375   0.1375   0.025
0.5625   0.1375   0.025
0.5875   0.1375   0.025
0.6125   0.1375   0.025
0.6375   0.1375   0.025
0.6625   0.1375   0.025
0.6875   0.1375   0.025
0.7125   0.1375   0.025
0.7375   0.1375   0.025
0.7625   0.1375   0.025
0.7875   0.1375   0.025
0.8125   0.1375   0.025
0.8375   0.1375   0.025
0.8625   0.1375   0.025
0.8875   0.1375   0.025
0.9125   0.1375   0.025
0.9375   0.1375   0.025
0.9625   0.1375   0.025
0.9875   0.1375   0.025
0.0125   0.1625   0.025
0.0375   0.1625   0.025
0.0625   0.1625   0.025
0.0875   0.1625   0.025
0.1125   0.1625   0.025
0.1375   0.1625   0.025
0.1625   0.1625   0.025
0.1875   0.1625   0.025
0.2125   0.1625   0.025
0.2375   0.1625   0.025
0.2625   0.1625   0.025
0.2875   0.1625   0.025
0.3125   0.1625   0.025
0.3375   0.1625   0.025
0.3625   0.1625   0.025
0.3875   0.1625   0.025
0.4125   0.1625   0.025
0.4375   0.1625   0.025
0.4625   0.1625   0.025
0.4875   0.1625   0.025
0.5125   0.1625   0.025
0.5375   0.1625   0.025
0.5625   0.1625   0.025
0.5875   0.1625   0.025
0.6125   0.1625   0.025
0.6375   0.1625   0.025
0.6625   0.1625   0.025
0.6875   0.1625   0.025
0.7125   0.1625   0.025
0.7375   0.1625   0.025
0.7625   0.1625   0.025
0.7875   0.1625   0.025
0.8125   0.1625   0.025
0.8375   0.1625   0.025
0.8625   0.1625   0.025
0.8875   0.1625   0.025
0.9125   0.1625   0.025
0.9375   0.1625   0.025
0.9625   0.1625   0.025
0.9875   0.1625   0.025
0.0125   0.1875   0.025
0.0375   0.1875   0.025
0.0625   0.1875   0.025
0.0875   0.1875   0.025
0.1125   0.1875   0.025
0.1375   0.1875   0.025
0.1625   0.1875   0.025
0.1875   0.1875   0.025
0.2125   0.1875   0.025
0.2375   0.1875   0.025
0.2625   0.1875   0.025
0.2875   0.1875   0.025
0.3125   0.1875   0.025
0.3375   0.1875   0.025
0.3625   0.1875   0.025
0.3875   0.1875   0.025
0.4125   0.1875   0.025
0.4375   0.1875   0.025
0.4625   0.1875   0.025
0.4875   0.1875   0.025
0.5125   0.1875   0.025
0.5375   0.1875   0.025
0.5625   0.1875   0.025
0.5875   0.1875   0.025
0.6125   0.1875   0.025
0.6375   0.1875   0.025
0.6625   0.1875   0.025
0.6875   0.1875   0.025
0.7125   0.1875   0.025
0.7375   0.1875   0.025
0.7625   0.1875   0.025
0.7875   0.1875   0.025
0.8125   0.1875   0.025
0.8375   0.1875   0.025
0.8625   0.1875   0.025
0.8875   0.1875   0.025
0.9125   0.1875   0.025
0.9375   0.1875   0.025
0.9625   0.1875   0.025
0.9875   0.1875   0.025
0.0125   0.2125   0.025
0.0375   0.2125   0.025
0.0625   0.2125   0.025
0.0875   0.2125   0.025
0.1125   0.2125   0.025
0.1375   0.2125   0.025
0.1625   0.2125   0.025
0.1875   0.2125   0.025
0.2125   0.2125   0.025
0.2375   0.2125   0.025
0.2625   0.2125   0.025
0.2875   0.2125   0.025
0.3125   0.2125   0.025
0.3375   0.2125   0.025
0.3625   0.2125   0.025
0.3875   0.2125   0.025
0.4125   0.2125   0.025
0.4375   0.2125   0.025
0.4625   0.2125   0.025
0.4875   0.2125   0.025
0.5125   0.2125   0.025
0.5375   0.2125   0.025
0.5625   0.2125   0.025
0.5875   0.2125   0.025
0.6125   0.2125   0.025
0.6375   0.2125   0.025
0.6625   0.2125   0.025
0.6875   0.2125   0.025
0.7125   0.2125   0.025
0.7375   0.2125   0.025
0.7625   0.2125   0.025
0.7875   0.2125   0.025
0.8125   0.2125   0.025
0.8375   0.2125   0.025
0.8625   0.2125   0.025
0.8875   0.2125   0.025
0.9125   0.2125   0.025
0.9375   0.2125   0.025
0.9625   0.2125   0.025
0.9875   0.2125   0.025
0.0125   0.2375   0.025
0.0375   0.2375   0.025
0.0625   0.2375   0.025
0.0875   0.2375   0.025
0.1125   0.2375   0.025
0.1375   0.2375   0.025
0.1625   0.2375   0.025
0.1875   0.2375   0.025
0.2125   0.2375   0.025
0.2375   0.2375   0.025
0.2625   0.2375   0.025
0.2875   0.2375   0.025
0.3125   0.2375   0.025
0.3375   0.2375   0.025
0.3625   0.2375   0.025
0.3875   0.2375   0.025
0.4125   0.2375   0.025
0.4375   0.2375   0.025
0.4625   0.2375   0.025
0.4875   0.2375   0.025
0.5125   0.2375   0.025
0.5375   0.2375   0.025
0.5625   0.2375   0.025
0.5875   0.2375   0.025
0.6125   0.2375   0.025
0.6375   0.2375   0.025
0.6625   0.2375   0.025
0.6875   0.2375   0.025
0.7125   0.2375   0.025
0.7375   0.2375   0.025
0.7625   0.2375   0.025
0.7875   0.2375   0.025
0.8125   0.2375   0.025
0.8375   0.2375   0.025
0.8625   0.2375   0.025
0.8875   0.2375   0.025
0.9125   0.2375   0.025
0.9375   0.2375   0.025
0.9625   0.2375   0.025
0.9875   0.2375   0.025
0.0125   0.2625   0.025
0.0375   0.2625   0.025
0.0625   0.2625   0.025
0.0875   0.2625   0.025
0.1125   0.2625   0.025
0.1375   0.2625   0.025
0.1625   0.2625   0.025
0.1875   0.2625   0.025
0.2125   0.2625   0.025
0.2375   0.2625   0.025
0.2625   0.2625   0.025
[...]
POINT_DATA   32000
SCALARS Presion double
LOOKUP_TABLE   Presion

0 0 0 0 0 0 0 0 0 0 0 0 0 0 0 0 0 0 0 0 0 0 0 0 0 0 0 0 0 0 0 0 0 0 0 0 0 0 0 0 -0.00248405 -0.00285998 -0.00346517 -0.00412452 -0.00477003 -0.00536296 -0.0058765 -0.00629135 -0.00659391 -0.00677512 -0.00682931 -0.00675434 -0.00654976 -0.00621743 -0.00576116 -0.00518677 -0.00450223 -0.00371789 -0.00284656 -0.00190363 -0.00090669 0.000123413 0.00116478 0.00219378 0.00318601 0.00411707 0.0049634 0.00570318 0.00631718 0.00678967 0.00710909 0.00726873 0.00726713 0.00710838 0.00680179 0.00636137 0.00580528 0.00515811 0.00447081 0.00393682 -0.00288084 -0.00304526 -0.00347306 -0.00401729 -0.00459168 -0.00514285 -0.00563553 -0.00604559 -0.00635648 -0.00655706 -0.00663996 -0.00660186 -0.00644101 -0.00615812 -0.00575582 -0.0052387 -0.00461341 -0.00388878 -0.00307598 -0.00218862 -0.00124217 -0.000255871 0.000750415 0.00175477 0.00273423 0.00366541 0.00452532 0.0052922 0.00594638 0.00647122 0.00685403 0.0070866 0.00716639 0.00709695 0.00688857 0.00655936 0.00613771 0.00566971 0.00524124 0.00503922 -0.00279174 -0.00298765 -0.00337843 -0.00387739 -0.00441588 -0.00494412 -0.0054268 -0.00583903 -0.00616338 -0.00638789 -0.0065041 -0.00650787 -0.00639623 -0.00616854 -0.00582598 -0.00537151 -0.00480995 -0.00414818 -0.00339526 -0.00256264 -0.00166347 -0.00071526 0.000264058 0.00125399 0.00223252 0.00317668 0.00406329 0.00486983 0.00557535 0.00616157 0.00661401 0.00692247 0.00708289 0.00709779 0.00697739 0.006741 0.00641966 0.00606158 0.00574389 0.00559226 -0.00244367 -0.00275275 -0.0031876 -0.00369879 -0.00423852 -0.00476748 -0.00525554 -0.00568037 -0.0060258 -0.00628026 -0.00643506 -0.00648565 -0.00642796 -0.00626003 -0.00598143 -0.00559319 -0.00509805 -0.00450058 -0.00380746 -0.00302772 -0.00217209 -0.00125629 -0.000296432 0.000688173 0.0016761 0.00264431 0.00356887 0.00442584 0.00519236 0.00584777 0.00637516 0.00676163 0.00700088 0.00709346 0.00704808 0.00688278 0.0066267 0.00632292 0.00603292 0.00583983 -0.00197226 -0.00241658 -0.00293508 -0.00349617 -0.00406711 -0.00461907 -0.00512871 -0.00557804 -0.00595351 -0.00624498 -0.00644418 -0.00654656 -0.00654722 -0.00644296 -0.00623164 -0.00591232 -0.00548542 -0.00495303 -0.00431927 -0.00359062 -0.00277525 -0.00188708 -0.000940455 4.63808e-05 0.00105236 0.00205407 0.00302639 0.00394351 0.00478003 0.00551232 0.00612025 0.0065875 0.00690464 0.00706932 0.00708755 0.00697472 0.00675652 0.00647007 0.00616486 0.00590115 -0.00146361 -0.00204388 -0.00266234 -0.00329481 -0.00391775 -0.00451052 -0.00505625 -0.00554162 -0.0059563 -0.00629214 -0.00654177 -0.006701 -0.0067643 -0.00672734 -0.00658638 -0.00633843 -0.00598154 -0.00551522 -0.00494089 -0.00426237 -0.0034852 -0.00262136 -0.00168338 -0.00068848 0.000342584 0.00138584 0.00241476 0.00340126 0.00431691 0.00513446 0.00582989 0.00638253 0.00677896 0.00701298 0.00708711 0.00701342 0.00681407 0.00652158 0.00617837 0.00583433 -0.000977062 -0.00168682 -0.00240963 -0.00312394 -0.0038116 -0.00445788 -0.0050512 -0.00558259 -0.0060449 -0.00643219 -0.00673821 -0.00695931 -0.00708958 -0.00712369 -0.00705636 -0.0068826 -0.00659808 -0.00619968 -0.00568603 -0.00505814 -0.00431881 -0.00347786 -0.00254589 -0.00153891 -0.000477326 0.000614357 0.00170808 0.0027732 0.00377784 0.00469053 0.0054825 0.00612787 0.00660827 0.00691271 0.00703948 0.00699699 0.00680428 0.00649088 0.0060961 0.00566673 -0.00055707 -0.00138788 -0.00221349 -0.00301323 -0.00377225 -0.00448003 -0.0051292 -0.00571444 -0.00623153 -0.0066766 -0.00704464 -0.00733261 -0.00753433 -0.00764362 -0.00765378 -0.00755787 -0.00734921 -0.00702201 -0.00657198 -0.00599718 -0.00529744 -0.00448015 -0.00355367 -0.00253257 -0.00143658 -0.000290633 0.000875702 0.00202908 0.00313378 0.00415344 0.00505377 0.00580262 0.00637557 0.00675584 0.00693665 0.00692242 0.00672932 0.00638531 0.0059293 0.00540932 -0.000239399 -0.00118262 -0.00210665 -0.00299128 -0.00382402 -0.00459753 -0.00530779 -0.00595252 -0.00653002 -0.00703831 -0.0074735 -0.00783324 -0.00811116 -0.00830033 -0.00839273 -0.00837955 -0.00825178 -0.00800088 -0.00761956 -0.00710267 -0.00644679 -0.00565646 -0.00473738 -0.00370219 -0.0025696 -0.00136458 -0.000118085 0.00113379 0.00235112 0.00349206 0.00451583 0.00538288 0.00606144 0.00652769 0.00676876 0.00678445 0.00658817 0.00620712 0.00568164 0.0050637 -5.45904e-05 -0.00110192 -0.00211864 -0.00308517 -0.00399107 -0.00483171 -0.00560582 -0.00631368 -0.00695575 -0.00753171 -0.00803874 -0.0084751 -0.0088343 -0.0091088 -0.00928932 -0.00936526 -0.00932528 -0.00915802 -0.008853 -0.00840159 -0.0077967 -0.0070395 -0.00613245 -0.00508562 -0.00391609 -0.00264839 -0.00131449 4.67784e-05 0.00139106 0.00267035 0.00383638 0.00484086 0.00564315 0.0062108 0.00652349 0.00657544 0.00637692 0.00595477 0.00535194 0.00462604 -2.99268e-05 -0.0011734 -0.0022764 -0.00332037 -0.00429698 -0.00520408 -0.00604287 -0.00681584 -0.00752537 -0.00817259 -0.0087557 -0.00927351 -0.00971954 -0.0100857 -0.0103615 -0.0105347 -0.0105915 -0.0105177 -0.0102994 -0.00992411 -0.00938059 -0.00866596 -0.00777867 -0.00672546 -0.00552091 -0.00418842 -0.00276047 -0.00127834 0.000208966 0.00164671 0.00297799 0.00414426 0.00509412 0.00578455 0.00618594 0.00628547 0.00608946 0.00562433 0.00493622 0.00408957 -0.000190547 -0.00142236 -0.00260485 -0.00372093 -0.00476455 -0.00573601 -0.00663883 -0.00747758 -0.00825636 -0.00897769 -0.00964075 -0.0102449 -0.0107838 -0.0112488 -0.0116285 -0.0119088 -0.0120737 -0.0121059 -0.0119878 -0.0117027 -0.0112345 -0.0105755 -0.00971934 -0.00866829 -0.00743347 -0.00603613 -0.00450849 -0.00289385 -0.00124582 0.00037353 0.00189754 0.00325562 0.00438344 0.00522489 0.00573864 0.00590281 0.00571839 0.00521074 0.00442942 0.00344645 -0.000560011 -0.00187234 -0.00312724 -0.00430953 -0.00541562 -0.00644832 -0.00741347 -0.00831762 -0.00916657 -0.0099642 -0.0107107 -0.0114062 -0.0120444 -0.0126163 -0.0131098 -0.013509 -0.0137956 -0.0139491 -0.0139478 -0.0137703 -0.0133953 -0.0128092 -0.0119995 -0.0109631 -0.00970623 -0.00824677 -0.00661558 -0.00485721 -0.00302963 -0.00120264 0.000546186 0.00213229 0.00347576 0.00450435 0.00516186 0.00541455 0.00525593 0.00470919 0.00382705 0.00268958 -0.00116049 -0.00254531 -0.00386533 -0.00510755 -0.00627101 -0.0073611 -0.00838598 -0.00935425 -0.0102734 -0.0111489 -0.011982 -0.0127736 -0.0135178 -0.0142056 -0.0148238 -0.0153552 -0.0157792 -0.0160718 -0.0162071 -0.0161585 -0.0158984 -0.0154065 -0.0146633 -0.0136586 -0.0123922 -0.010877 -0.00914119 -0.00722932 -0.0052031 -0.00314015 -0.00113005 0.000726682 0.00233153 0.00359236 0.00443409 0.00480731 0.00469509 0.00411655 0.00312689 0.00181436 -0.00201271 -0.00346172 -0.00483938 -0.00613501 -0.0073503 -0.00849328 -0.00957449 -0.0106047 -0.0115933 -0.0125473 -0.0134695 -0.0143616 -0.0152185 -0.0160311 -0.0167859 -0.0174641 -0.0180427 -0.0184945 -0.0187889 -0.0188935 -0.018774 -0.0184023 -0.0177502 -0.0167991 -0.0155407 -0.0139811 -0.0121436 -0.0100712 -0.00782836 -0.00550003 -0.00318856 -0.00101244 0.000907892 0.00245602 0.00353289 0.00406842 0.00403107 0.00343312 0.00233094 0.000820804 -0.00313562 -0.00464035 -0.00606809 -0.0074104 -0.0086716 -0.00986228 -0.0109955 -0.0120843 -0.0131403 -0.0141723 -0.0151849 -0.0161812 -0.0171568 -0.0181031 -0.0190062 -0.0198463 -0.0205978 -0.0212302 -0.0217082 -0.0219931 -0.0220432 -0.0218213 -0.0212897 -0.0204196 -0.0191924 -0.0176053 -0.0156744 -0.0134391 -0.0109645 -0.00834207 -0.00568705 -0.00313756 -0.000839434 0.00106157 0.00243623 0.00318734 0.00326302 0.00266468 0.00144779 -0.000283959 -0.00454608 -0.00609803 -0.00756836 -0.00895055 -0.0102513 -0.0114836 -0.0126632 -0.0138058 -0.0149254 -0.0160331 -0.0171359 -0.0182382 -0.0193371 -0.0204248 -0.0214872 -0.0225035 -0.0234462 -0.0242811 -0.024968 -0.0254617 -0.0257125 -0.0256733 -0.0252957 -0.0245387 -0.0233718 -0.0217805 -0.0197713 -0.017377 -0.0146608 -0.0117188 -0.00867835 -0.00569827 -0.00295298 -0.000623105 0.00112464 0.00215773 0.00239628 0.00182506 0.000495441 -0.00148266 -0.00625835 -0.00784942 -0.0093552 -0.0107704 -0.0121036 -0.0133703 -0.014589 -0.0157783 -0.0169552 -0.0181338 -0.0193236 -0.0205314 -0.0217558 -0.0229903 -0.0242209 -0.0254261 -0.0265765 -0.0276345 -0.028555 -0.029286 -0.0297693 -0.0299474 -0.0297597 -0.0291519 -0.0280795 -0.026514 -0.0244491 -0.0219078 -0.0189479 -0.0156671 -0.012203 -0.00873497 -0.00546847 -0.00262449 -0.000415542 0.000980387 0.00144535 0.000939344 -0.000495195 -0.00274417 -0.00828373 -0.00990677 -0.0114416 -0.012883 -0.0142408 -0.0155328 -0.0167806 -0.0180063 -0.0192307 -0.0204716 -0.0217419 -0.0230507 -0.0243992 -0.0257823 -0.0271866 -0.0285901 -0.0299617 -0.0312606 -0.0324366 -0.0334311 -0.0341771 -0.0346062 -0.0346448 -0.0342244 -0.0332845 -0.0317804 -0.02969 -0.0270227 -0.023827 -0.0201978 -0.0162795 -0.0122702 -0.00840756 -0.00495764 -0.0021876 -0.000332833 0.000437641 4.78453e-05 -0.00147599 -0.00401889 -0.0106303 -0.01228 -0.0138386 -0.0152994 -0.0166726 -0.0179782 -0.0192414 -0.020489 -0.0217465 -0.0230361 -0.024375 -0.0257756 -0.0272419 -0.0287706 -0.0303492 -0.0319556 -0.033557 -0.0351095 -0.0365582 -0.0378377 -0.0388723 -0.0395824 -0.0398815 -0.0396855 -0.0389172 -0.0375135 -0.035434 -0.0326706 -0.0292581 -0.0252832 -0.0208921 -0.0162975 -0.0117681 -0.00761817 -0.00417795 -0.00175366 -0.000581626 -0.000788995 -0.00237643 -0.00523332 -0.0133027 -0.0149767 -0.0165558 -0.0180292 -0.0194065 -0.0207103 -0.0219703 -0.0232194 -0.0244891 -0.0258075 -0.027197 -0.028674 -0.0302456 -0.0319108 -0.0336583 -0.0354658 -0.037299 -0.0391111 -0.0408425 -0.0424213 -0.0437633 -0.0447777 -0.045365 -0.0454258 -0.0448652 -0.0436007 -0.0415715 -0.0387489 -0.0351491 -0.030845 -0.0259778 -0.0207684 -0.0155121 -0.0105718 -0.00634758 -0.00323043 -0.00154327 -0.00148457 -0.00309728 -0.00628346 -0.0163028 -0.0180033 -0.0196018 -0.0210809 -0.0224482 -0.0237294 -0.024961 -0.0261835 -0.0274367 -0.0287562 -0.0301707 -0.0317012 -0.0333587 -0.0351444 -0.0370482 -0.0390476 -0.0411069 -0.0431762 -0.0451915 -0.0470743 -0.0487325 -0.0500644 -0.0509578 -0.0512984 -0.0509739 -0.0498821 -0.0479406 -0.0450981 -0.041348 -0.0367438 -0.0314137 -0.0255782 -0.0195518 -0.0137417 -0.00862128 -0.00467911 -0.00234646 -0.00191878 -0.00350317 -0.00702705 -0.0196305 -0.0213658 -0.0229862 -0.0244632 -0.025802 -0.0270329 -0.0282016 -0.0293598 -0.0305583 -0.0318419 -0.0332473 -0.0348006 -0.036517 -0.0383998 -0.0404399 -0.0426142 -0.0448854 -0.0472004 -0.0494905 -0.0516709 -0.0536419 -0.0552913 -0.0564952 -0.057125 -0.0570519 -0.0561549 -0.05433 -0.0515022 -0.0476401 -0.0427725 -0.0370074 -0.0305544 -0.0237357 -0.0169945 -0.0108748 -0.0059724 -0.00284931 -0.00192925 -0.0034136 -0.0072744 -0.023285 -0.0250724 -0.0267211 -0.0281868 -0.0294719 -0.0306146 -0.0316745 -0.032719 -0.0338132 -0.0350139 -0.036367 -0.0379045 -0.0396453 -0.0415948 -0.0437439 -0.0460688 -0.0485294 -0.0510693 -0.0536147 -0.0560745 -0.0583415 -0.0602936 -0.0617959 -0.0627068 -0.0628824 -0.0621842 -0.0604882 -0.0576967 -0.0537527 -0.0486577 -0.0424931 -0.0354472 -0.0278366 -0.0201257 -0.0129206 -0.00692686 -0.0028576 -0.00130087 -0.00259241 -0.00677769 -0.0272683 -0.0291369 -0.0308249 -0.0322665 -0.0334629 -0.0344661 -0.0353565 -0.0362234 -0.0371512 -0.0382114 -0.0394602 -0.0409358 -0.0426603 -0.0446402 -0.0468656 -0.0493102 -0.0519309 -0.0546666 -0.057438 -0.0601475 -0.0626803 -0.0649046 -0.0666754 -0.0678392 -0.0682386 -0.0677197 -0.066141 -0.0633843 -0.0593689 -0.0540688 -0.0475358 -0.0399284 -0.0315433 -0.0228479 -0.0144933 -0.00728848 -0.00211165 0.000246664 -0.000735185 -0.00521824 -0.0315898 -0.0335846 -0.0353271 -0.0367249 -0.0377828 -0.0385765 -0.039218 -0.0398271 -0.0405129 -0.0413645 -0.0424495 -0.0438114 -0.0454747 -0.0474452 -0.0497103 -0.0522401 -0.0549864 -0.0578826 -0.0608429 -0.0637623 -0.0665183 -0.0689694 -0.070961 -0.0723285 -0.0729025 -0.0725158 -0.0710121 -0.0682566 -0.0641483 -0.0586372 -0.0517457 -0.0435986 -0.0344608 -0.0247829 -0.015237 -0.00671757 -0.000271145 0.0030736 0.00254611 -0.00219089 -0.0362738 -0.0384602 -0.0402755 -0.0415969 -0.042444 -0.0429331 -0.0432232 -0.0434755 -0.0438302 -0.0443963 -0.0452526 -0.0464465 -0.0480025 -0.049923 -0.0521908 -0.0547697 -0.0576051 -0.0606228 -0.0637293 -0.0668114 -0.069738 -0.0723578 -0.0745062 -0.0760081 -0.0766831 -0.0763523 -0.0748474 -0.0720201 -0.0677548 -0.0619829 -0.0547025 -0.0460058 -0.03612 -0.0254617 -0.0146961 -0.00477413 0.00310182 0.007638 0.0077424 0.00281578 -0.0413725 -0.0438423 -0.0457468 -0.0469356 -0.047466 -0.0475215 -0.0473295 -0.0471061 -0.0470282 -0.0472259 -0.0477869 -0.0487597 -0.0501647 -0.051998 -0.0542341 -0.0568283 -0.0597167 -0.0628161 -0.0660236 -0.0692165 -0.0722541 -0.0749743 -0.0772023 -0.0787523 -0.0794326 -0.0790536 -0.0774363 -0.0744225 -0.0698863 -0.0637473 -0.055988 -0.0466753 -0.0360003 -0.0243357 -0.0123142 -0.000905672 0.00856142 0.0145178 0.015473 0.0104466 -0.0469877 -0.0498647 -0.0518624 -0.0528208 -0.0528776 -0.0523249 -0.0514872 -0.0506489 -0.0500276 -0.0497723 -0.0499751 -0.0506793 -0.0518969 -0.0536124 -0.0557886 -0.0583689 -0.0612777 -0.0644208 -0.0676841 -0.0709339 -0.0740186 -0.0767645 -0.0789855 -0.0804839 -0.0810564 -0.0805019 -0.0786306 -0.0752755 -0.0703034 -0.0636283 -0.055226 -0.0451501 -0.0335657 -0.0208027 -0.00744396 0.00555955 0.0167981 0.0244397 0.0265215 0.0215201 -0.0533085 -0.0567521 -0.0588116 -0.0593687 -0.0587188 -0.0573241 -0.0556391 -0.0540286 -0.052749 -0.0519607 -0.051751 -0.0521505 -0.053155 -0.0547323 -0.056829 -0.0593732 -0.0622753 -0.0654276 -0.0687033 -0.0719563 -0.075023 -0.0777167 -0.0798387 -0.0811782 -0.0815184 -0.0806449 -0.0783556 -0.0744727 -0.0688557 -0.0614151 -0.0521265 -0.0410422 -0.0283172 -0.0142511 0.000625163 0.0154083 0.0286585 0.0383169 0.0418895 0.0370926 -0.0606786 -0.064879 -0.0668854 -0.0667444 -0.0650422 -0.0624948 -0.0597207 -0.0571669 -0.0551171 -0.0537275 -0.0530668 -0.0531409 -0.053921 -0.0553518 -0.0573594 -0.0598531 -0.0627271 -0.0658582 -0.0691059 -0.0723103 -0.0752947 -0.0778584 -0.0797888 -0.0808604 -0.0808407 -0.0794993 -0.076618 -0.0720039 -0.0655043 -0.0570224 -0.0465335 -0.0340942 -0.0198639 -0.0041314 0.0126107 0.0295168 0.045159 0.0573018 0.0628814 0.0585704 -0.0697219 -0.0748673 -0.0765238 -0.0751728 -0.0719088 -0.0678035 -0.0636583 -0.0599845 -0.0570649 -0.0550254 -0.0538956 -0.0536425 -0.0542028 -0.0554917 -0.0574101 -0.0598463 -0.0626759 -0.0657598 -0.0689421 -0.0720491 -0.07489 -0.0772496 -0.0789004 -0.0796007 -0.0791007 -0.0771502 -0.0735103 -0.0679661 -0.0603434 -0.0505267 -0.0384794 -0.0242552 -0.00801934 0.00993588 0.0291358 0.0487824 0.0674791 0.0828531 0.0912427 0.0879105 -0.0815851 -0.0877501 -0.0883748 -0.0849387 -0.0793716 -0.0731912 -0.0673587 -0.0623945 -0.0585285 -0.0558178 -0.0542261 -0.053665 -0.0540263 -0.0551896 -0.0570272 -0.0594048 -0.0621784 -0.0651925 -0.0682762 -0.0712416 -0.0738842 -0.0759742 -0.0772693 -0.0775109 -0.07643 -0.0737544 -0.0692191 -0.062579 -0.0536254 -0.0422058 -0.0282471 -0.0117727 0.00707111 0.0280007 0.0505554 0.0739749 0.0968937 0.116805 0.129383 0.127998 -0.0984308 -0.105237 -0.103345 -0.0963487 -0.0874222 -0.0785287 -0.0706731 -0.064272 -0.0594205 -0.0560537 -0.0540379 -0.0532113 -0.0534112 -0.0544768 -0.0562504 -0.0585741 -0.0612854 -0.0642127 -0.0671712 -0.0699599 -0.0723618 -0.0741338 -0.0750194 -0.0747439 -0.0730189 -0.0695487 -0.0640385 -0.0562051 -0.0457916 -0.0325852 -0.0164406 0.00269937 0.0247691 0.0495587 0.0766756 0.10544 0.134556 0.161375 0.18072 0.183346 -0.124501 -0.130103 -0.122557 -0.109576 -0.0958379 -0.0834868 -0.0732911 -0.0653678 -0.0595577 -0.0556068 -0.0532484 -0.0522303 -0.0523286 -0.0533405 -0.0550787 -0.0573637 -0.0600163 -0.0628514 -0.0656726 -0.0682682 -0.0704107 -0.0718464 -0.0723067 -0.071503 -0.0691296 -0.0648678 -0.058392 -0.0493763 -0.0375046 -0.0224818 -0.00405069 0.0179922 0.0437634 0.0732639 0.106335 0.142565 0.180959 0.218914 0.250119 0.261387 -0.168561 -0.166594 -0.14697 -0.124178 -0.103762 -0.0872088 -0.0744979 -0.0651309 -0.0585295 -0.0541728 -0.0516295 -0.050548 -0.050643 -0.051674 -0.0534291 -0.0557123 -0.0583324 -0.0610951 -0.0637961 -0.0662167 -0.0681226 -0.0692532 -0.0693316 -0.0680593 -0.0651168 -0.0601667 -0.0528553 -0.0428154 -0.0296681 -0.0130242 0.00751493 0.0323605 0.0619282 0.096632 0.136859 0.182916 0.23478 0.290881 0.344148 0.374822 -0.24976 -0.220059 -0.175829 -0.137654 -0.108644 -0.0876334 -0.0727691 -0.062464 -0.0555399 -0.0511585 -0.0487235 -0.0477988 -0.0480556 -0.0492305 -0.0510998 -0.0534607 -0.056118 -0.0588744 -0.0615238 -0.0638454 -0.0656027 -0.0665332 -0.0663568 -0.06477 -0.0614461 -0.056035 -0.0481631 -0.0374301 -0.0234038 -0.00560795 0.0164972 0.0435518 0.0763444 0.115891 0.163529 0.221044 0.290767 0.374927 0.4698 0.546283 -0.410794 -0.292169 -0.200625 -0.141394 -0.104249 -0.0806861 -0.0654797 -0.0556215 -0.0493638 -0.0456518 -0.0438154 -0.0434016 -0.0440841 -0.0456086 -0.0477614 -0.0503485 -0.053182 -0.0560711 -0.0588145 -0.0611961 -0.0629824 -0.0639151 -0.0637159 -0.0620826 -0.0586879 -0.0531781 -0.0451711 -0.0342496 -0.0199506 -0.00174359 0.0210069 0.0491107 0.0836687 0.126288 0.179457 0.247219 0.336341 0.458101 0.62634 0.819356 -0.750304 -0.342758 -0.183975 -0.114746 -0.0801521 -0.0609284 -0.0495269 -0.0426268 -0.0386046 -0.036584 -0.0360442 -0.0366424 -0.038131 -0.0403112 -0.0430092 -0.0460601 -0.0492984 -0.0525501 -0.0556279 -0.0583272 -0.0604238 -0.0616691 -0.0617917 -0.0604964 -0.0574619 -0.05234 -0.0447528 -0.0342863 -0.0204791 -0.00279971 0.0193937 0.0469292 0.0809602 0.123249 0.176775 0.247174 0.346391 0.50155 0.770839 1.27044 0 0 0 0 0 0 0 0 0 0 0 0 0 0 0 0 0 0 0 0 0 0 0 0 0 0 0 0 0 0 0 0 0 0 0 0 0 0 0 0 -0.00249108 -0.002864 -0.0033803 -0.00389233 -0.00435589 -0.00475066 -0.00506362 -0.00528559 -0.00541032 -0.00543409 -0.00535532 -0.00517435 -0.00489313 -0.00451529 -0.00404609 -0.00349253 -0.00286348 -0.00216974 -0.0014241 -0.000641245 0.000162333 0.000968762 0.00175922 0.00251445 0.00321545 0.00384419 0.00438439 0.0048222 0.00514689 0.00535144 0.00543286 0.00539263 0.00523659 0.00497482 0.00462122 0.00419281 0.00370951 0.00319639 0.00269954 0.00236513 -0.00298034 -0.00313612 -0.00346811 -0.00385074 -0.00422103 -0.0045456 -0.00480499 -0.00498704 -0.00508405 -0.00509142 -0.00500692 -0.00483021 -0.00456263 -0.00420714 -0.00376832 -0.00325244 -0.00266757 -0.0020236 -0.00133234 -0.000607377 0.00013601 0.00088125 0.0016109 0.00230712 0.00295231 0.00352982 0.00402471 0.00442444 0.00471952 0.00490409 0.00497632 0.00493875 0.00479834 0.00456649 0.00425905 0.00389671 0.00350673 0.00312839 0.00282773 0.00273001 -0.00307419 -0.00323186 -0.00350399 -0.00381963 -0.00413003 -0.00440436 -0.00462333 -0.00477474 -0.00485087 -0.00484705 -0.00476083 -0.00459144 -0.00433963 -0.0040076 -0.00359902 -0.00311914 -0.00257491 -0.00197506 -0.00133014 -0.000652528 4.36736e-05 0.000742996 0.00142899 0.00208463 0.00269295 0.00323781 0.00370463 0.00408117 0.00435825 0.00453043 0.00459644 0.00455952 0.00442766 0.0042135 0.00393448 0.00361325 0.00327898 0.00297047 0.00274131 0.00266354 -0.00298241 -0.0032136 -0.00349543 -0.00379297 -0.00407573 -0.00432149 -0.0045152 -0.00464699 -0.00471053 -0.00470186 -0.00461879 -0.00446037 -0.0042268 -0.00391948 -0.00354104 -0.00309552 -0.00258854 -0.00202743 -0.00142141 -0.000781539 -0.000120824 0.000546169 0.00120364 0.00183486 0.00242291 0.00295138 0.00340526 0.00377179 0.00404135 0.00420819 0.00427103 0.0042334 0.00410393 0.00389611 0.00362821 0.00332319 0.00300878 0.00271793 0.00248837 0.00235828 -0.00282266 -0.00314746 -0.00347272 -0.0037835 -0.00406361 -0.00429992 -0.00448301 -0.00460656 -0.00466645 -0.00466001 -0.00458565 -0.00444242 -0.00423006 -0.00394912 -0.00360111 -0.00318871 -0.00271607 -0.00218902 -0.00161529 -0.00100464 -0.000369019 0.000277743 0.00092021 0.00154157 0.00212439 0.00265141 0.00310649 0.00347565 0.00374807 0.00391702 0.00398062 0.00394214 0.00381041 0.0035993 0.00332733 0.00301696 0.00269364 0.00238457 0.0021165 0.00191103 -0.00266638 -0.00308711 -0.00347046 -0.00381254 -0.00410726 -0.00434917 -0.00453437 -0.00466034 -0.00472549 -0.00472868 -0.00466907 -0.00454582 -0.00435824 -0.00410599 -0.003789