# vtk DataFile Version 2.0
Presion
ASCII

DATASET STRUCTURED_GRID
DIMENSIONS   40   40   20

POINTS   32000   double
0.0125   0.0125   0.025
0.0375   0.0125   0.025
0.0625   0.0125   0.025
0.0875   0.0125   0.025
0.1125   0.0125   0.025
0.1375   0.0125   0.025
0.1625   0.0125   0.025
0.1875   0.0125   0.025
0.2125   0.0125   0.025
0.2375   0.0125   0.025
0.2625   0.0125   0.025
0.2875   0.0125   0.025
0.3125   0.0125   0.025
0.3375   0.0125   0.025
0.3625   0.0125   0.025
0.3875   0.0125   0.025
0.4125   0.0125   0.025
0.4375   0.0125   0.025
0.4625   0.0125   0.025
0.4875   0.0125   0.025
0.5125   0.0125   0.025
0.5375   0.0125   0.025
0.5625   0.0125   0.025
0.5875   0.0125   0.025
0.6125   0.0125   0.025
0.6375   0.0125   0.025
0.6625   0.0125   0.025
0.6875   0.0125   0.025
0.7125   0.0125   0.025
0.7375   0.0125   0.025
0.7625   0.0125   0.025
0.7875   0.0125   0.025
0.8125   0.0125   0.025
0.8375   0.0125   0.025
0.8625   0.0125   0.025
0.8875   0.0125   0.025
0.9125   0.0125   0.025
0.9375   0.0125   0.025
0.9625   0.0125   0.025
0.9875   0.0125   0.025
0.0125   0.0375   0.025
0.0375   0.0375   0.025
0.0625   0.0375   0.025
0.0875   0.0375   0.025
0.1125   0.0375   0.025
0.1375   0.0375   0.025
0.1625   0.0375   0.025
0.1875   0.0375   0.025
0.2125   0.0375   0.025
0.2375   0.0375   0.025
0.2625   0.0375   0.025
0.2875   0.0375   0.025
0.3125   0.0375   0.025
0.3375   0.0375   0.025
0.3625   0.0375   0.025
0.3875   0.0375   0.025
0.4125   0.0375   0.025
0.4375   0.0375   0.025
0.4625   0.0375   0.025
0.4875   0.0375   0.025
0.5125   0.0375   0.025
0.5375   0.0375   0.025
0.5625   0.0375   0.025
0.5875   0.0375   0.025
0.6125   0.0375   0.025
0.6375   0.0375   0.025
0.6625   0.0375   0.025
0.6875   0.0375   0.025
0.7125   0.0375   0.025
0.7375   0.0375   0.025
0.7625   0.0375   0.025
0.7875   0.0375   0.025
0.8125   0.0375   0.025
0.8375   0.0375   0.025
0.8625   0.0375   0.025
0.8875   0.0375   0.025
0.9125   0.0375   0.025
0.9375   0.0375   0.025
0.9625   0.0375   0.025
0.9875   0.0375   0.025
0.0125   0.0625   0.025
0.0375   0.0625   0.025
0.0625   0.0625   0.025
0.0875   0.0625   0.025
0.1125   0.0625   0.025
0.1375   0.0625   0.025
0.1625   0.0625   0.025
0.1875   0.0625   0.025
0.2125   0.0625   0.025
0.2375   0.0625   0.025
0.2625   0.0625   0.025
0.2875   0.0625   0.025
0.3125   0.0625   0.025
0.3375   0.0625   0.025
0.3625   0.0625   0.025
0.3875   0.0625   0.025
0.4125   0.0625   0.025
0.4375   0.0625   0.025
0.4625   0.0625   0.025
0.4875   0.0625   0.025
0.5125   0.0625   0.025
0.5375   0.0625   0.025
0.5625   0.0625   0.025
0.5875   0.0625   0.025
0.6125   0.0625   0.025
0.6375   0.0625   0.025
0.6625   0.0625   0.025
0.6875   0.0625   0.025
0.7125   0.0625   0.025
0.7375   0.0625   0.025
0.7625   0.0625   0.025
0.7875   0.0625   0.025
0.8125   0.0625   0.025
0.8375   0.0625   0.025
0.8625   0.0625   0.025
0.8875   0.0625   0.025
0.9125   0.0625   0.025
0.9375   0.0625   0.025
0.9625   0.0625   0.025
0.9875   0.0625   0.025
0.0125   0.0875   0.025
0.0375   0.0875   0.025
0.0625   0.0875   0.025
0.0875   0.0875   0.025
0.1125   0.0875   0.025
0.1375   0.0875   0.025
0.1625   0.0875   0.025
0.1875   0.0875   0.025
0.2125   0.0875   0.025
0.2375   0.0875   0.025
0.2625   0.0875   0.025
0.2875   0.0875   0.025
0.3125   0.0875   0.025
0.3375   0.0875   0.025
0.3625   0.0875   0.025
0.3875   0.0875   0.025
0.4125   0.0875   0.025
0.4375   0.0875   0.025
0.4625   0.0875   0.025
0.4875   0.0875   0.025
0.5125   0.0875   0.025
0.5375   0.0875   0.025
0.5625   0.0875   0.025
0.5875   0.0875   0.025
0.6125   0.0875   0.025
0.6375   0.0875   0.025
0.6625   0.0875   0.025
0.6875   0.0875   0.025
0.7125   0.0875   0.025
0.7375   0.0875   0.025
0.7625   0.0875   0.025
0.7875   0.0875   0.025
0.8125   0.0875   0.025
0.8375   0.0875   0.025
0.8625   0.0875   0.025
0.8875   0.0875   0.025
0.9125   0.0875   0.025
0.9375   0.0875   0.025
0.9625   0.0875   0.025
0.9875   0.0875   0.025
0.0125   0.1125   0.025
0.0375   0.1125   0.025
0.0625   0.1125   0.025
0.0875   0.1125   0.025
0.1125   0.1125   0.025
0.1375   0.1125   0.025
0.1625   0.1125   0.025
0.1875   0.1125   0.025
0.2125   0.1125   0.025
0.2375   0.1125   0.025
0.2625   0.1125   0.025
0.2875   0.1125   0.025
0.3125   0.1125   0.025
0.3375   0.1125   0.025
0.3625   0.1125   0.025
0.3875   0.1125   0.025
0.4125   0.1125   0.025
0.4375   0.1125   0.025
0.4625   0.1125   0.025
0.4875   0.1125   0.025
0.5125   0.1125   0.025
0.5375   0.1125   0.025
0.5625   0.1125   0.025
0.5875   0.1125   0.025
0.6125   0.1125   0.025
0.6375   0.1125   0.025
0.6625   0.1125   0.025
0.6875   0.1125   0.025
0.7125   0.1125   0.025
0.7375   0.1125   0.025
0.7625   0.1125   0.025
0.7875   0.1125   0.025
0.8125   0.1125   0.025
0.8375   0.1125   0.025
0.8625   0.1125   0.025
0.8875   0.1125   0.025
0.9125   0.1125   0.025
0.9375   0.1125   0.025
0.9625   0.1125   0.025
0.9875   0.1125   0.025
0.0125   0.1375   0.025
0.0375   0.1375   0.025
0.0625   0.1375   0.025
0.0875   0.1375   0.025
0.1125   0.1375   0.025
0.1375   0.1375   0.025
0.1625   0.1375   0.025
0.1875   0.1375   0.025
0.2125   0.1375   0.025
0.2375   0.1375   0.025
0.2625   0.1375   0.025
0.2875   0.1375   0.025
0.3125   0.1375   0.025
0.3375   0.1375   0.025
0.3625   0.1375   0.025
0.3875   0.1375   0.025
0.4125   0.1375   0.025
0.4375   0.1375   0.025
0.4625   0.1375   0.025
0.4875   0.1375   0.025
0.5125   0.1375   0.025
0.5375   0.1375   0.025
0.5625   0.1375   0.025
0.5875   0.1375   0.025
0.6125   0.1375   0.025
0.6375   0.1375   0.025
0.6625   0.1375   0.025
0.6875   0.1375   0.025
0.7125   0.1375   0.025
0.7375   0.1375   0.025
0.7625   0.1375   0.025
0.7875   0.1375   0.025
0.8125   0.1375   0.025
0.8375   0.1375   0.025
0.8625   0.1375   0.025
0.8875   0.1375   0.025
0.9125   0.1375   0.025
0.9375   0.1375   0.025
0.9625   0.1375   0.025
0.9875   0.1375   0.025
0.0125   0.1625   0.025
0.0375   0.1625   0.025
0.0625   0.1625   0.025
0.0875   0.1625   0.025
0.1125   0.1625   0.025
0.1375   0.1625   0.025
0.1625   0.1625   0.025
0.1875   0.1625   0.025
0.2125   0.1625   0.025
0.2375   0.1625   0.025
0.2625   0.1625   0.025
0.2875   0.1625   0.025
0.3125   0.1625   0.025
0.3375   0.1625   0.025
0.3625   0.1625   0.025
0.3875   0.1625   0.025
0.4125   0.1625   0.025
0.4375   0.1625   0.025
0.4625   0.1625   0.025
0.4875   0.1625   0.025
0.5125   0.1625   0.025
0.5375   0.1625   0.025
0.5625   0.1625   0.025
0.5875   0.1625   0.025
0.6125   0.1625   0.025
0.6375   0.1625   0.025
0.6625   0.1625   0.025
0.6875   0.1625   0.025
0.7125   0.1625   0.025
0.7375   0.1625   0.025
0.7625   0.1625   0.025
0.7875   0.1625   0.025
0.8125   0.1625   0.025
0.8375   0.1625   0.025
0.8625   0.1625   0.025
0.8875   0.1625   0.025
0.9125   0.1625   0.025
0.9375   0.1625   0.025
0.9625   0.1625   0.025
0.9875   0.1625   0.025
0.0125   0.1875   0.025
0.0375   0.1875   0.025
0.0625   0.1875   0.025
0.0875   0.1875   0.025
0.1125   0.1875   0.025
0.1375   0.1875   0.025
0.1625   0.1875   0.025
0.1875   0.1875   0.025
0.2125   0.1875   0.025
0.2375   0.1875   0.025
0.2625   0.1875   0.025
0.2875   0.1875   0.025
0.3125   0.1875   0.025
0.3375   0.1875   0.025
0.3625   0.1875   0.025
0.3875   0.1875   0.025
0.4125   0.1875   0.025
0.4375   0.1875   0.025
0.4625   0.1875   0.025
0.4875   0.1875   0.025
0.5125   0.1875   0.025
0.5375   0.1875   0.025
0.5625   0.1875   0.025
0.5875   0.1875   0.025
0.6125   0.1875   0.025
0.6375   0.1875   0.025
0.6625   0.1875   0.025
0.6875   0.1875   0.025
0.7125   0.1875   0.025
0.7375   0.1875   0.025
0.7625   0.1875   0.025
0.7875   0.1875   0.025
0.8125   0.1875   0.025
0.8375   0.1875   0.025
0.8625   0.1875   0.025
0.8875   0.1875   0.025
0.9125   0.1875   0.025
0.9375   0.1875   0.025
0.9625   0.1875   0.025
0.9875   0.1875   0.025
0.0125   0.2125   0.025
0.0375   0.2125   0.025
0.0625   0.2125   0.025
0.0875   0.2125   0.025
0.1125   0.2125   0.025
0.1375   0.2125   0.025
0.1625   0.2125   0.025
0.1875   0.2125   0.025
0.2125   0.2125   0.025
0.2375   0.2125   0.025
0.2625   0.2125   0.025
0.2875   0.2125   0.025
0.3125   0.2125   0.025
0.3375   0.2125   0.025
0.3625   0.2125   0.025
0.3875   0.2125   0.025
0.4125   0.2125   0.025
0.4375   0.2125   0.025
0.4625   0.2125   0.025
0.4875   0.2125   0.025
0.5125   0.2125   0.025
0.5375   0.2125   0.025
0.5625   0.2125   0.025
0.5875   0.2125   0.025
0.6125   0.2125   0.025
0.6375   0.2125   0.025
0.6625   0.2125   0.025
0.6875   0.2125   0.025
0.7125   0.2125   0.025
0.7375   0.2125   0.025
0.7625   0.2125   0.025
0.7875   0.2125   0.025
0.8125   0.2125   0.025
0.8375   0.2125   0.025
0.8625   0.2125   0.025
0.8875   0.2125   0.025
0.9125   0.2125   0.025
0.9375   0.2125   0.025
0.9625   0.2125   0.025
0.9875   0.2125   0.025
0.0125   0.2375   0.025
0.0375   0.2375   0.025
0.0625   0.2375   0.025
0.0875   0.2375   0.025
0.1125   0.2375   0.025
0.1375   0.2375   0.025
0.1625   0.2375   0.025
0.1875   0.2375   0.025
0.2125   0.2375   0.025
0.2375   0.2375   0.025
0.2625   0.2375   0.025
0.2875   0.2375   0.025
0.3125   0.2375   0.025
0.3375   0.2375   0.025
0.3625   0.2375   0.025
0.3875   0.2375   0.025
0.4125   0.2375   0.025
0.4375   0.2375   0.025
0.4625   0.2375   0.025
0.4875   0.2375   0.025
0.5125   0.2375   0.025
0.5375   0.2375   0.025
0.5625   0.2375   0.025
0.5875   0.2375   0.025
0.6125   0.2375   0.025
0.6375   0.2375   0.025
0.6625   0.2375   0.025
0.6875   0.2375   0.025
0.7125   0.2375   0.025
0.7375   0.2375   0.025
0.7625   0.2375   0.025
0.7875   0.2375   0.025
0.8125   0.2375   0.025
0.8375   0.2375   0.025
0.8625   0.2375   0.025
0.8875   0.2375   0.025
0.9125   0.2375   0.025
0.9375   0.2375   0.025
0.9625   0.2375   0.025
0.9875   0.2375   0.025
0.0125   0.2625   0.025
0.0375   0.2625   0.025
0.0625   0.2625   0.025
0.0875   0.2625   0.025
0.1125   0.2625   0.025
0.1375   0.2625   0.025
0.1625   0.2625   0.025
0.1875   0.2625   0.025
0.2125   0.2625   0.025
0.2375   0.2625   0.025
0.2625   0.2625   0.025
[...]
POINT_DATA   32000
SCALARS Presion double
LOOKUP_TABLE   Presion

0 0 0 0 0 0 0 0 0 0 0 0 0 0 0 0 0 0 0 0 0 0 0 0 0 0 0 0 0 0 0 0 0 0 0 0 0 0 0 0 -0.00254606 -0.00292159 -0.00352118 -0.00416938 -0.00479976 -0.0053753 -0.00587071 -0.0062679 -0.00655421 -0.00672133 -0.00676411 -0.00668091 -0.00647153 -0.00613802 -0.00568423 -0.00511588 -0.00444069 -0.00366859 -0.00281183 -0.0018851 -0.000905135 0.000107989 0.0011333 0.00214801 0.00312848 0.00405095 0.0048923 0.005631 0.0062479 0.00672708 0.00705661 0.0072292 0.00724254 0.00709969 0.00680877 0.00638241 0.00583735 0.0051968 0.00451081 0.00397371 -0.00297415 -0.00313123 -0.0035484 -0.00407862 -0.00463644 -0.00516955 -0.00564375 -0.00603586 -0.00633006 -0.00651586 -0.00658632 -0.00653859 -0.00637119 -0.006085 -0.00568273 -0.00516893 -0.00455005 -0.0038346 -0.00303329 -0.00215914 -0.00122686 -0.000255091 0.000737155 0.00172871 0.00269731 0.00362017 0.00447477 0.00523965 0.00589526 0.00642491 0.00681564 0.00705878 0.00715115 0.00709547 0.00690105 0.00658491 0.00617433 0.00571438 0.00529026 0.00508921 -0.00291754 -0.00310136 -0.0034772 -0.00395898 -0.00447879 -0.00498759 -0.00545081 -0.00584419 -0.00615087 -0.00635934 -0.00646154 -0.00645373 -0.00633319 -0.00609951 -0.00575399 -0.0052996 -0.00474109 -0.00408511 -0.00334039 -0.00251791 -0.00163015 -0.000694161 0.000272893 0.00125122 0.00221947 0.00315527 0.00403597 0.00483939 0.00554483 0.00613403 0.00659239 0.00690937 0.00708042 0.0071074 0.00699972 0.0067758 0.00646573 0.0061168 0.00580534 0.00565645 -0.00260436 -0.00289666 -0.00331242 -0.00380313 -0.0043217 -0.00482934 -0.00529639 -0.00570093 -0.00602712 -0.00626376 -0.00640239 -0.00643887 -0.00636939 -0.00619223 -0.00590716 -0.00551534 -0.0050195 -0.00442414 -0.00373573 -0.00296296 -0.00211597 -0.00121017 -0.000260952 0.000713042 0.00169105 0.00265066 0.00356851 0.00442112 0.00518594 0.0058425 0.00637388 0.00676696 0.0070151 0.00711833 0.00708467 0.00693142 0.00668685 0.00639314 0.00611081 0.00592193 -0.00216941 -0.00259201 -0.00308725 -0.00362448 -0.00417154 -0.00469994 -0.0051866 -0.00561369 -0.00596785 -0.00623914 -0.00641945 -0.00650465 -0.00649007 -0.00637281 -0.00615104 -0.00582402 -0.00539232 -0.00485807 -0.0042253 -0.00350029 -0.00269074 -0.00181035 -0.000872789 0.00010433 0.00110062 0.00209332 0.00305798 0.00396932 0.00480239 0.00553386 0.00614379 0.00661571 0.00694002 0.00711395 0.00714298 0.00704183 0.00683538 0.00655986 0.0062637 0.00600586 -0.00169718 -0.00225069 -0.00284177 -0.00344699 -0.00404323 -0.00460999 -0.00513041 -0.00559119 -0.00598198 -0.00629477 -0.00652225 -0.00666066 -0.00670474 -0.00665052 -0.00649464 -0.00623443 -0.00586823 -0.00539574 -0.00481842 -0.00414001 -0.00336568 -0.0025073 -0.00157678 -0.000590728 0.000430784 0.0014645 0.00248462 0.00346371 0.00437393 0.00518849 0.00588366 0.00643883 0.00684053 0.00708229 0.00716621 0.00710376 0.00691638 0.00663567 0.00630296 0.0059667 -0.00124515 -0.00192326 -0.0026147 -0.0032985 -0.00395666 -0.00457435 -0.00513982 -0.00564389 -0.00607934 -0.0064402 -0.00672031 -0.00691644 -0.00702297 -0.00703503 -0.0069478 -0.00675677 -0.00645802 -0.00604875 -0.00552779 -0.00489619 -0.00415646 -0.00331848 -0.00239225 -0.00139322 -0.000341084 0.000740409 0.00182399 0.00287982 0.00387672 0.00478383 0.00557293 0.00621831 0.00670172 0.00701209 0.0071474 0.00711556 0.00693492 0.00663413 0.00625137 0.00583195 -0.000855819 -0.00165043 -0.00244103 -0.00320725 -0.0039341 -0.00461071 -0.00522932 -0.00578427 -0.00627114 -0.00668601 -0.00702387 -0.0072822 -0.00745515 -0.00753708 -0.00752186 -0.00740316 -0.00717487 -0.00683164 -0.00636955 -0.00578685 -0.00508317 -0.00426611 -0.00334348 -0.00232932 -0.00124269 -0.000107702 0.00104693 0.00218879 0.003283 0.00429403 0.00518832 0.0059341 0.0065073 0.00689122 0.00707893 0.00707445 0.00689335 0.0065627 0.00612026 0.00561257 -0.000563039 -0.00146607 -0.00235195 -0.00320042 -0.00399854 -0.00473839 -0.00541533 -0.00602661 -0.00657024 -0.00704415 -0.00744448 -0.00776943 -0.00801303 -0.00816899 -0.00823 -0.00818798 -0.00803464 -0.00776205 -0.00736344 -0.006834 -0.00617023 -0.00537704 -0.00445967 -0.00343029 -0.00230694 -0.00111378 0.000119205 0.00135692 0.00256051 0.00368913 0.00470302 0.00556321 0.00623856 0.00670555 0.00695134 0.00697547 0.00679079 0.00642368 0.00591331 0.00531013 -0.000395534 -0.00139942 -0.00237546 -0.00330368 -0.00417287 -0.00497752 -0.00571557 -0.0063867 -0.00699101 -0.0075281 -0.00799518 -0.00839113 -0.00870998 -0.0089449 -0.00908746 -0.00912794 -0.00905588 -0.0088607 -0.0085326 -0.00806346 -0.00744628 -0.00668274 -0.00577495 -0.0047326 -0.00357215 -0.0023173 -0.000999015 0.000345038 0.00167172 0.00293429 0.00408577 0.00507874 0.0058735 0.00643816 0.00675267 0.00681116 0.00662343 0.00621553 0.00562925 0.00492067 -0.000378918 -0.00147658 -0.00253712 -0.00354125 -0.00447948 -0.00534851 -0.00614858 -0.00688148 -0.00754919 -0.00815277 -0.00869049 -0.00916188 -0.00956104 -0.00988071 -0.0101115 -0.010242 -0.0102596 -0.0101511 -0.0099033 -0.00950454 -0.00894381 -0.00821889 -0.00732806 -0.00627776 -0.00508204 -0.00376348 -0.0023535 -0.000892104 0.000573121 0.00198893 0.00330008 0.00444918 0.00538616 0.00606891 0.00646833 0.00657175 0.00638516 0.0059342 0.0052639 0.00443716 -0.000536867 -0.00172153 -0.00286066 -0.00393603 -0.00494009 -0.00587172 -0.00673333 -0.00752869 -0.0082615 -0.00893421 -0.00954614 -0.0100975 -0.0105826 -0.0109937 -0.0113207 -0.0115506 -0.0116687 -0.0116587 -0.0115041 -0.0111892 -0.0106983 -0.0100246 -0.00916169 -0.00811172 -0.00688534 -0.00550304 -0.00399594 -0.00240597 -0.000785139 0.000806259 0.00230355 0.00363772 0.00474616 0.00557407 0.00608104 0.00624556 0.00606844 0.00557439 0.00481186 0.00385137 -0.000891745 -0.00215672 -0.00336835 -0.00450982 -0.00557573 -0.00656723 -0.00748888 -0.0083464 -0.00914517 -0.00988908 -0.0105785 -0.0112145 -0.0117916 -0.012302 -0.0127346 -0.0130751 -0.0133066 -0.0134099 -0.0133647 -0.0131505 -0.0127468 -0.012141 -0.011321 -0.0102835 -0.00903453 -0.00759117 -0.00598323 -0.00425381 -0.0024591 -0.000666846 0.00104771 0.00260201 0.00391837 0.00492634 0.00557105 0.00581947 0.00566519 0.00513084 0.00426808 0.00315553 -0.00146485 -0.00280338 -0.00408123 -0.00528335 -0.00640662 -0.00745456 -0.00843395 -0.00935251 -0.0102174 -0.011034 -0.011804 -0.0125293 -0.0132048 -0.0138229 -0.0143719 -0.014836 -0.0151962 -0.0154301 -0.0155134 -0.0154208 -0.0151256 -0.0146088 -0.0138513 -0.0128429 -0.0115836 -0.0100855 -0.00837563 -0.00649716 -0.00450987 -0.00248907 -0.000521636 0.00129435 0.00286313 0.00409496 0.00491658 0.00527974 0.00516789 0.00459975 0.00362953 0.00234413 -0.0022764 -0.00368153 -0.0050192 -0.0062763 -0.00745206 -0.00855244 -0.00958653 -0.0105642 -0.0114945 -0.0123846 -0.0132377 -0.0140566 -0.0148372 -0.015572 -0.0162489 -0.0168509 -0.0173569 -0.0177413 -0.0179754 -0.0180283 -0.017867 -0.0174647 -0.0167941 -0.0158367 -0.0145843 -0.0130424 -0.0112335 -0.00919894 -0.00700117 -0.00472275 -0.00246294 -0.000337349 0.0015369 0.00304639 0.00409453 0.00461297 0.00457089 0.00398044 0.00289713 0.00141598 -0.00334529 -0.0048099 -0.00620096 -0.00750721 -0.00873023 -0.00987844 -0.0109634 -0.0119972 -0.0129912 -0.0139545 -0.0148922 -0.0158086 -0.0167004 -0.0175608 -0.0183775 -0.0191325 -0.0198025 -0.0203588 -0.0207682 -0.0209938 -0.0209953 -0.0207372 -0.0201827 -0.0193034 -0.018081 -0.016512 -0.0146119 -0.0124186 -0.00999509 -0.00743026 -0.00483606 -0.00234735 -0.000106081 0.00174563 0.00308176 0.00380747 0.00387217 0.00327742 0.00207803 0.000376592 -0.00468877 -0.00620573 -0.00764382 -0.00899332 -0.010258 -0.0114486 -0.0125793 -0.013665 -0.0147194 -0.0157541 -0.0167766 -0.0177926 -0.0188007 -0.0197947 -0.0207625 -0.0216853 -0.0225378 -0.0232883 -0.0238986 -0.0243258 -0.0245216 -0.0244409 -0.0240362 -0.0232671 -0.0221036 -0.0205307 -0.0185542 -0.0162054 -0.0135456 -0.0106683 -0.00769744 -0.00478824 -0.00211081 0.000158524 0.00185703 0.00285532 0.00307547 0.00250285 0.00118844 -0.000758722 -0.006322 -0.00788454 -0.0093636 -0.0107504 -0.0120504 -0.0132769 -0.0144468 -0.0155779 -0.0166871 -0.0177891 -0.018894 -0.0200098 -0.021137 -0.0222707 -0.0233991 -0.024503 -0.0255555 -0.0265215 -0.0273583 -0.0280162 -0.0284389 -0.0285708 -0.0283524 -0.0277302 -0.02666 -0.0251129 -0.0230821 -0.020589 -0.0176899 -0.0144797 -0.0110929 -0.00770489 -0.00451672 -0.00174445 0.000404137 0.00175509 0.00219322 0.00167977 0.000257124 -0.00196117 -0.00825769 -0.00985991 -0.0113745 -0.0127927 -0.0141211 -0.0153751 -0.016575 -0.0177422 -0.0188974 -0.0200589 -0.0212405 -0.0224528 -0.0236987 -0.0249749 -0.0262705 -0.0275661 -0.0288331 -0.0300336 -0.03112 -0.0320362 -0.0327173 -0.0330966 -0.0331021 -0.0326657 -0.0317273 -0.0302418 -0.0281864 -0.0255693 -0.0224373 -0.018883 -0.0150477 -0.0111259 -0.00735057 -0.00398256 -0.00128364 0.000515734 0.00125025 0.000845984 -0.00067034 -0.00318391 -0.0105057 -0.0121434 -0.0136894 -0.015133 -0.0164813 -0.0177522 -0.0189694 -0.0201592 -0.021347 -0.0225558 -0.0238035 -0.0251043 -0.0264639 -0.027881 -0.0293459 -0.0308391 -0.0323308 -0.0337801 -0.0351349 -0.0363326 -0.0372997 -0.0379584 -0.0382234 -0.0380112 -0.0372446 -0.0358602 -0.0338166 -0.0311047 -0.0277574 -0.0238596 -0.0195548 -0.0150524 -0.0106167 -0.00655684 -0.00319715 -0.000838137 0.000288636 5.90513e-05 -0.0015263 -0.00435647 -0.0130733 -0.014745 -0.0163197 -0.0177827 -0.0191406 -0.0204139 -0.0216311 -0.0228244 -0.0240254 -0.025263 -0.0265604 -0.0279357 -0.0293981 -0.0309487 -0.0325791 -0.0342699 -0.03599 -0.0376961 -0.0393315 -0.040827 -0.0421012 -0.0430646 -0.0436189 -0.0436651 -0.0431081 -0.0418646 -0.0398727 -0.0371023 -0.033568 -0.0293412 -0.0245606 -0.0194447 -0.014285 -0.00943963 -0.00530281 -0.00225925 -0.000626115 -0.000597678 -0.00221467 -0.00537811 -0.0159649 -0.0176735 -0.0192765 -0.0207527 -0.022107 -0.0233632 -0.0245563 -0.0257265 -0.0269138 -0.0281541 -0.0294774 -0.0309062 -0.0324537 -0.0341236 -0.0359086 -0.0377898 -0.0397347 -0.0416972 -0.0436165 -0.0454171 -0.0470093 -0.048293 -0.0491571 -0.049487 -0.04917 -0.0481026 -0.0462008 -0.0434115 -0.0397265 -0.0351977 -0.0299519 -0.0242074 -0.0182762 -0.0125616 -0.00753168 -0.00366866 -0.0013973 -0.00100764 -0.00260335 -0.00610987 -0.0191835 -0.0209377 -0.022572 -0.0240543 -0.0253873 -0.0265997 -0.0277359 -0.0288472 -0.0299841 -0.0311921 -0.032509 -0.0339625 -0.03557 -0.0373375 -0.0392591 -0.0413155 -0.043473 -0.0456825 -0.0478788 -0.0499803 -0.0518898 -0.0534964 -0.054677 -0.0553027 -0.0552434 -0.0543762 -0.0525949 -0.0498224 -0.0460251 -0.0412302 -0.0355446 -0.0291766 -0.0224473 -0.0157971 -0.00976624 -0.0049446 -0.00188747 -0.00101211 -0.00251508 -0.00636527 -0.0227318 -0.0245491 -0.0262211 -0.0277007 -0.0289882 -0.0301203 -0.0311553 -0.0321598 -0.0331988 -0.0343295 -0.0355988 -0.03704 -0.0386747 -0.0405112 -0.0425439 -0.0447529 -0.0471023 -0.0495398 -0.0519955 -0.0543818 -0.0565938 -0.0585108 -0.0599984 -0.0609141 -0.0611122 -0.0604517 -0.0588057 -0.0560733 -0.0521948 -0.0471699 -0.0410788 -0.0341095 -0.0265783 -0.018949 -0.0118255 -0.0059092 -0.00190687 -0.00039952 -0.00171671 -0.0058993 -0.0266155 -0.0285246 -0.0302453 -0.0317096 -0.0329174 -0.0339191 -0.0347938 -0.0356298 -0.0365107 -0.0375083 -0.0386796 -0.0400642 -0.041687 -0.0435575 -0.0456698 -0.0480019 -0.0505152 -0.0531531 -0.0558405 -0.0584833 -0.0609694 -0.0631681 -0.0649346 -0.0661142 -0.0665472 -0.0660764 -0.0645562 -0.0618648 -0.0579178 -0.0526867 -0.0462217 -0.0386812 -0.0303629 -0.0217354 -0.0134499 -0.00631352 -0.00119992 0.00110729 9.37502e-05 -0.00439537 -0.0308477 -0.0328928 -0.0346769 -0.0361064 -0.0371855 -0.0379882 -0.0386249 -0.0392138 -0.0398628 -0.0406608 -0.0416761 -0.0429535 -0.0445205 -0.0463862 -0.0485424 -0.0509638 -0.0536074 -0.0564112 -0.059294 -0.0621546 -0.0648731 -0.0673092 -0.0693082 -0.070704 -0.0713243 -0.0709979 -0.069564 -0.0668825 -0.0628483 -0.0574075 -0.0505805 -0.0424916 -0.0334072 -0.0237807 -0.0142869 -0.00582169 0.000570447 0.00386619 0.0033027 -0.00144948 -0.0354566 -0.037702 -0.0395668 -0.0409289 -0.0418076 -0.0423174 -0.0426152 -0.0428597 -0.0431891 -0.0437119 -0.0445071 -0.0456238 -0.0470893 -0.04891 -0.0510733 -0.0535484 -0.0562857 -0.0592166 -0.0622523 -0.0652836 -0.0681822 -0.0707977 -0.0729656 -0.0745089 -0.0752439 -0.0749871 -0.0735647 -0.0708228 -0.0666401 -0.0609431 -0.053727 -0.0450827 -0.0352385 -0.0246148 -0.0138819 -0.00399546 0.00384029 0.00833401 0.00840063 0.00344996 -0.0404985 -0.043034 -0.0449949 -0.046233 -0.0468058 -0.046895 -0.0467245 -0.0465069 -0.0464162 -0.0465813 -0.0470903 -0.047993 -0.0493133 -0.0510514 -0.0531872 -0.0556814 -0.0584761 -0.0614939 -0.0646367 -0.0677862 -0.0708047 -0.0735309 -0.07579 -0.0773941 -0.078148 -0.0778571 -0.0763363 -0.0734209 -0.0689783 -0.0629224 -0.0552313 -0.0459692 -0.0353278 -0.0236835 -0.0116754 -0.000281217 0.00916402 0.0150891 0.0160078 0.0109495 -0.0460791 -0.049026 -0.0510853 -0.052101 -0.0522116 -0.0517065 -0.0509049 -0.0500866 -0.0494653 -0.049188 -0.0493471 -0.0499877 -0.0511253 -0.0527494 -0.0548284 -0.0573118 -0.0601305 -0.0631961 -0.0663999 -0.0696125 -0.0726859 -0.0754468 -0.0777092 -0.0792733 -0.0799321 -0.079479 -0.0777181 -0.074475 -0.0696094 -0.0630284 -0.0547021 -0.0446801 -0.0331266 -0.0203742 -0.00701258 0.00599735 0.0172349 0.0248602 0.0269106 0.0218711 -0.052391 -0.0559057 -0.05803 -0.058652 -0.0580675 -0.0567345 -0.0551006 -0.0535239 -0.0522562 -0.0514553 -0.051209 -0.0515498 -0.0524777 -0.0539659 -0.0559672 -0.0584165 -0.0612306 -0.0643083 -0.0675284 -0.0707492 -0.0738106 -0.0765266 -0.0786986 -0.0801135 -0.0805508 -0.0797906 -0.0776243 -0.0738667 -0.0683694 -0.0610354 -0.0518338 -0.0408111 -0.0281201 -0.0140614 0.000828403 0.0156354 0.0289052 0.0385653 0.042115 0.0372763 -0.059781 -0.0640497 -0.0661221 -0.0660528 -0.0644276 -0.0619559 -0.0592469 -0.0567395 -0.0547116 -0.0533167 -0.0526241 -0.0526423 -0.0533473 -0.0546897 -0.0566022 -0.0590016 -0.0617886 -0.0648469 -0.0680414 -0.071217 -0.0742006 -0.0767919 -0.0787786 -0.079933 -0.0800189 -0.0788004 -0.0760526 -0.0715753 -0.0652077 -0.0568451 -0.0464555 -0.0340889 -0.0199008 -0.00417916 0.0125799 0.0295209 0.0452003 0.0573633 0.0629317 0.0585781 -0.0688741 -0.0740809 -0.0758025 -0.0745291 -0.071353 -0.067336 -0.063268 -0.0596506 -0.0567598 -0.0547194 -0.0535598 -0.0532513 -0.053736 -0.0549355 -0.056758 -0.0590993 -0.061842 -0.0648536 -0.0679843 -0.0710646 -0.0739074 -0.0762981 -0.0780094 -0.0787976 -0.0784088 -0.076588 -0.0730894 -0.0676907 -0.0602099 -0.0505235 -0.0385874 -0.0244482 -0.0082661 0.00966912 0.0288816 0.0485662 0.0673113 0.0827218 0.0911136 0.0877415 -0.0808155 -0.0870307 -0.0877178 -0.0843641 -0.078894 -0.072812 -0.0670655 -0.0621636 -0.0583298 -0.0556191 -0.053997 -0.0533789 -0.0536625 -0.0547345 -0.0564747 -0.0587563 -0.0614426 -0.0643847 -0.0674174 -0.0703572 -0.0730033 -0.0751262 -0.0764839 -0.0768158 -0.0758492 -0.0733068 -0.0689172 -0.0624281 -0.0536231 -0.0423418 -0.0285039 -0.0121256 0.0066519 0.0275489 0.0501054 0.0735572 0.096527 0.116485 0.129079 0.12766 -0.097761 -0.104602 -0.102768 -0.0958578 -0.0870346 -0.0782458 -0.0704805 -0.0641436 -0.0593239 -0.0559553 -0.0539065 -0.05302 -0.0531396 -0.0541118 -0.0557866 -0.0580136 -0.0606374 -0.0634929 -0.0664009 -0.0691647 -0.0715706 -0.073376 -0.0743245 -0.0741395 -0.072529 -0.0691925 -0.0638288 -0.0561481 -0.0458859 -0.032822 -0.0168043 0.00223115 0.0242238 0.0489675 0.0760718 0.104855 0.134016 0.160884 0.180256 0.182856 -0.123939 -0.129561 -0.122067 -0.109171 -0.0955388 -0.0832945 -0.0731891 -0.0653283 -0.0595472 -0.0555911 -0.0531965 -0.052116 -0.0521322 -0.0530498 -0.0546889 -0.0568775 -0.0594432 -0.0622073 -0.0649787 -0.0675497 -0.0696961 -0.0711644 -0.0716863 -0.0709712 -0.06871 -0.0645795 -0.0582479 -0.049383 -0.0376615 -0.0227814 -0.00447915 0.0174548 0.0431414 0.072585 0.105628 0.141861 0.180284 0.218282 0.249517 0.260769 -0.168094 -0.166131 -0.146552 -0.123844 -0.103533 -0.0870849 -0.0744621 -0.0651544 -0.0585789 -0.0542145 -0.0516334 -0.0504887 -0.0505019 -0.0514395 -0.053097 -0.0552854 -0.0578204 -0.0605135 -0.0631655 -0.0655616 -0.0674705 -0.0686319 -0.0687691 -0.0675817 -0.0647471 -0.0599233 -0.0527512 -0.0428572 -0.029856 -0.0133518 0.0070599 0.0317957 0.0612751 0.0959146 0.136102 0.182145 0.234018 0.290147 0.34344 0.374106 -0.249352 -0.219644 -0.175452 -0.137357 -0.108452 -0.0875451 -0.072767 -0.0625197 -0.0556208 -0.051232 -0.0487604 -0.0477746 -0.0479522 -0.0490366 -0.0508112 -0.0530799 -0.0556541 -0.0583422 -0.0609429 -0.0632393 -0.0649975 -0.0659559 -0.0658342 -0.0643273 -0.0611054 -0.0558143 -0.0480752 -0.037482 -0.0235961 -0.00593545 0.0160454 0.0429915 0.0756948 0.115173 0.162764 0.220252 0.289967 0.374135 0.469023 0.545503 -0.410396 -0.29176 -0.200252 -0.141102 -0.104062 -0.080604 -0.0654851 -0.0556871 -0.049458 -0.0457426 -0.0438738 -0.0434031 -0.0440103 -0.0454477 -0.0475082 -0.0500047 -0.0527557 -0.0555759 -0.058269 -0.0606226 -0.0624062 -0.0633622 -0.0632123 -0.061653 -0.0583541 -0.0529581 -0.0450778 -0.0342906 -0.0201275 -0.00205225 0.0205761 0.0485719 0.0830395 0.125587 0.178705 0.246433 0.335536 0.45729 0.62553 0.818543 -0.749889 -0.342334 -0.183586 -0.114439 -0.0799548 -0.060842 -0.0495358 -0.0427041 -0.0387182 -0.036701 -0.0361341 -0.0366792 -0.0380943 -0.0401877 -0.0427921 -0.0457498 -0.0489017 -0.0520796 -0.0551015 -0.0577667 -0.059854 -0.0611161 -0.0612817 -0.0600544 -0.0571105 -0.052098 -0.0446343 -0.0343001 -0.0206281 -0.00308111 0.0189883 0.0464129 0.0803497 0.122563 0.176034 0.246395 0.34559 0.500738 0.770024 1.26962 0 0 0 0 0 0 0 0 0 0 0 0 0 0 0 0 0 0 0 0 0 0 0 0 0 0 0 0 0 0 0 0 0 0 0 0 0 0 0 0 -0.00254865 -0.00292255 -0.0034368 -0.00394285 -0.00439747 -0.00478153 -0.00508305 -0.00529373 -0.00540799 -0.00542264 -0.00533649 -0.00515018 -0.00486587 -0.00448728 -0.00401969 -0.00346999 -0.00284681 -0.00216061 -0.00142373 -0.00065031 0.000143787 0.000941342 0.00172419 0.00247368 0.00317134 0.00379955 0.00434228 0.00478575 0.00511914 0.0053351 0.00543015 0.00540511 0.00526493 0.00501869 0.00467916 0.00426216 0.00378637 0.00327578 0.00277603 0.0024355 -0.00306303 -0.00321359 -0.00353951 -0.00391435 -0.00427532 -0.00458956 -0.00483823 -0.00500972 -0.00509683 -0.00509535 -0.00500338 -0.00482082 -0.0045492 -0.00419158 -0.00375257 -0.00323837 -0.00265684 -0.00201765 -0.00133219 -0.000613612 0.00012332 0.000862595 0.00158734 0.00228022 0.00292411 0.00350272 0.00400132 0.00440744 0.00471148 0.0049073 0.00499264 0.00496939 0.0048438 0.00462639 0.00433212 0.00398075 0.00359877 0.00322497 0.00292563 0.00282775 -0.00318028 -0.00332902 -0.00359199 -0.00389793 -0.00419807 -0.00446182 -0.00467016 -0.00481116 -0.00487742 -0.00486452 -0.00477025 -0.00459406 -0.00433684 -0.00400093 -0.00359005 -0.00310943 -0.00256593 -0.00196808 -0.00132616 -0.000652182 4.01749e-05 0.000735921 0.00141911 0.00207318 0.00268163 0.00322865 0.00369989 0.00408322 0.0043694 0.00455274 0.00463158 0.00460862 0.00449117 0.00429113 0.00402517 0.00371523 0.00338991 0.00308772 0.0028624 0.00278661 -0.00311166 -0.00333056 -0.00360048 -0.00388639 -0.00415771 -0.0043922 -0.00457486 -0.0046959 -0.00474908 -0.0047306 -0.00463842 -0.00447175 -0.00423098 -0.00391763 -0.00353446 -0.00308556 -0.00257653 -0.00201463 -0.00140887 -0.000770076 -0.000110905 0.000554495 0.00121078 0.00184169 0.00243074 0.00296192 0.0034205 0.00379388 0.00407244 0.00425027 0.00432575 0.00430192 0.00418682 0.00399326 0.00373883 0.00344585 0.0031416 0.0028587 0.00263485 0.00250826 -0.00297454 -0.00328358 -0.00359427 -0.00389147 -0.00415878 -0.00438285 -0.00455409 -0.00466608 -0.00471464 -0.00469716 -0.00461212 -0.00445872 -0.00423689 -0.00394735 -0.00359181 -0.00317309 -0.00269543 -0.00216468 -0.00158849 -0.000976464 -0.000340292 0.000306556 0.000949076 0.00157093 0.00215516 0.00268495 0.00314453 0.00352017 0.00380114 0.00398066 0.00405657 0.00403174 0.00391445 0.00371795 0.00346012 0.00316282 0.00285101 0.00255158 0.00229104 0.00209078 -0.00283932 -0.00324079 -0.00360694 -0.0039335 -0.00421395 -0.00444242 -0.00461465 -0.00472784 -0.00478022 -0.00477063 -0.00469826 -0.00456241 -0.00436259 -0.00409872 -0.00377137 -0.00338203 -0.00293346 -0.00242998 -