# vtk DataFile Version 2.0
Velocidades
ASCII

DATASET STRUCTURED_GRID
DIMENSIONS   40   40   20

POINTS   32000   double
0.0125   0.0125   0.025
0.0125   0.0375   0.025
0.0125   0.0625   0.025
0.0125   0.0875   0.025
0.0125   0.1125   0.025
0.0125   0.1375   0.025
0.0125   0.1625   0.025
0.0125   0.1875   0.025
0.0125   0.2125   0.025
0.0125   0.2375   0.025
0.0125   0.2625   0.025
0.0125   0.2875   0.025
0.0125   0.3125   0.025
0.0125   0.3375   0.025
0.0125   0.3625   0.025
0.0125   0.3875   0.025
0.0125   0.4125   0.025
0.0125   0.4375   0.025
0.0125   0.4625   0.025
0.0125   0.4875   0.025
0.0125   0.5125   0.025
0.0125   0.5375   0.025
0.0125   0.5625   0.025
0.0125   0.5875   0.025
0.0125   0.6125   0.025
0.0125   0.6375   0.025
0.0125   0.6625   0.025
0.0125   0.6875   0.025
0.0125   0.7125   0.025
0.0125   0.7375   0.025
0.0125   0.7625   0.025
0.0125   0.7875   0.025
0.0125   0.8125   0.025
0.0125   0.8375   0.025
0.0125   0.8625   0.025
0.0125   0.8875   0.025
0.0125   0.9125   0.025
0.0125   0.9375   0.025
0.0125   0.9625   0.025
0.0125   0.9875   0.025
0.0375   0.0125   0.025
0.0375   0.0375   0.025
0.0375   0.0625   0.025
0.0375   0.0875   0.025
0.0375   0.1125   0.025
0.0375   0.1375   0.025
0.0375   0.1625   0.025
0.0375   0.1875   0.025
0.0375   0.2125   0.025
0.0375   0.2375   0.025
0.0375   0.2625   0.025
0.0375   0.2875   0.025
0.0375   0.3125   0.025
0.0375   0.3375   0.025
0.0375   0.3625   0.025
0.0375   0.3875   0.025
0.0375   0.4125   0.025
0.0375   0.4375   0.025
0.0375   0.4625   0.025
0.0375   0.4875   0.025
0.0375   0.5125   0.025
0.0375   0.5375   0.025
0.0375   0.5625   0.025
0.0375   0.5875   0.025
0.0375   0.6125   0.025
0.0375   0.6375   0.025
0.0375   0.6625   0.025
0.0375   0.6875   0.025
0.0375   0.7125   0.025
0.0375   0.7375   0.025
0.0375   0.7625   0.025
0.0375   0.7875   0.025
0.0375   0.8125   0.025
0.0375   0.8375   0.025
0.0375   0.8625   0.025
0.0375   0.8875   0.025
0.0375   0.9125   0.025
0.0375   0.9375   0.025
0.0375   0.9625   0.025
0.0375   0.9875   0.025
0.0625   0.0125   0.025
0.0625   0.0375   0.025
0.0625   0.0625   0.025
0.0625   0.0875   0.025
0.0625   0.1125   0.025
0.0625   0.1375   0.025
0.0625   0.1625   0.025
0.0625   0.1875   0.025
0.0625   0.2125   0.025
0.0625   0.2375   0.025
0.0625   0.2625   0.025
0.0625   0.2875   0.025
0.0625   0.3125   0.025
0.0625   0.3375   0.025
0.0625   0.3625   0.025
0.0625   0.3875   0.025
0.0625   0.4125   0.025
0.0625   0.4375   0.025
0.0625   0.4625   0.025
0.0625   0.4875   0.025
0.0625   0.5125   0.025
0.0625   0.5375   0.025
0.0625   0.5625   0.025
0.0625   0.5875   0.025
0.0625   0.6125   0.025
0.0625   0.6375   0.025
0.0625   0.6625   0.025
0.0625   0.6875   0.025
0.0625   0.7125   0.025
0.0625   0.7375   0.025
0.0625   0.7625   0.025
0.0625   0.7875   0.025
0.0625   0.8125   0.025
0.0625   0.8375   0.025
0.0625   0.8625   0.025
0.0625   0.8875   0.025
0.0625   0.9125   0.025
0.0625   0.9375   0.025
0.0625   0.9625   0.025
0.0625   0.9875   0.025
0.0875   0.0125   0.025
0.0875   0.0375   0.025
0.0875   0.0625   0.025
0.0875   0.0875   0.025
0.0875   0.1125   0.025
0.0875   0.1375   0.025
0.0875   0.1625   0.025
0.0875   0.1875   0.025
0.0875   0.2125   0.025
0.0875   0.2375   0.025
0.0875   0.2625   0.025
0.0875   0.2875   0.025
0.0875   0.3125   0.025
0.0875   0.3375   0.025
0.0875   0.3625   0.025
0.0875   0.3875   0.025
0.0875   0.4125   0.025
0.0875   0.4375   0.025
0.0875   0.4625   0.025
0.0875   0.4875   0.025
0.0875   0.5125   0.025
0.0875   0.5375   0.025
0.0875   0.5625   0.025
0.0875   0.5875   0.025
0.0875   0.6125   0.025
0.0875   0.6375   0.025
0.0875   0.6625   0.025
0.0875   0.6875   0.025
0.0875   0.7125   0.025
0.0875   0.7375   0.025
0.0875   0.7625   0.025
0.0875   0.7875   0.025
0.0875   0.8125   0.025
0.0875   0.8375   0.025
0.0875   0.8625   0.025
0.0875   0.8875   0.025
0.0875   0.9125   0.025
0.0875   0.9375   0.025
0.0875   0.9625   0.025
0.0875   0.9875   0.025
0.1125   0.0125   0.025
0.1125   0.0375   0.025
0.1125   0.0625   0.025
0.1125   0.0875   0.025
0.1125   0.1125   0.025
0.1125   0.1375   0.025
0.1125   0.1625   0.025
0.1125   0.1875   0.025
0.1125   0.2125   0.025
0.1125   0.2375   0.025
0.1125   0.2625   0.025
0.1125   0.2875   0.025
0.1125   0.3125   0.025
0.1125   0.3375   0.025
0.1125   0.3625   0.025
0.1125   0.3875   0.025
0.1125   0.4125   0.025
0.1125   0.4375   0.025
0.1125   0.4625   0.025
0.1125   0.4875   0.025
0.1125   0.5125   0.025
0.1125   0.5375   0.025
0.1125   0.5625   0.025
0.1125   0.5875   0.025
0.1125   0.6125   0.025
0.1125   0.6375   0.025
0.1125   0.6625   0.025
0.1125   0.6875   0.025
0.1125   0.7125   0.025
0.1125   0.7375   0.025
0.1125   0.7625   0.025
0.1125   0.7875   0.025
0.1125   0.8125   0.025
0.1125   0.8375   0.025
0.1125   0.8625   0.025
0.1125   0.8875   0.025
0.1125   0.9125   0.025
0.1125   0.9375   0.025
0.1125   0.9625   0.025
0.1125   0.9875   0.025
0.1375   0.0125   0.025
0.1375   0.0375   0.025
0.1375   0.0625   0.025
0.1375   0.0875   0.025
0.1375   0.1125   0.025
0.1375   0.1375   0.025
0.1375   0.1625   0.025
0.1375   0.1875   0.025
0.1375   0.2125   0.025
0.1375   0.2375   0.025
0.1375   0.2625   0.025
0.1375   0.2875   0.025
0.1375   0.3125   0.025
0.1375   0.3375   0.025
0.1375   0.3625   0.025
0.1375   0.3875   0.025
0.1375   0.4125   0.025
0.1375   0.4375   0.025
0.1375   0.4625   0.025
0.1375   0.4875   0.025
0.1375   0.5125   0.025
0.1375   0.5375   0.025
0.1375   0.5625   0.025
0.1375   0.5875   0.025
0.1375   0.6125   0.025
0.1375   0.6375   0.025
0.1375   0.6625   0.025
0.1375   0.6875   0.025
0.1375   0.7125   0.025
0.1375   0.7375   0.025
0.1375   0.7625   0.025
0.1375   0.7875   0.025
0.1375   0.8125   0.025
0.1375   0.8375   0.025
0.1375   0.8625   0.025
0.1375   0.8875   0.025
0.1375   0.9125   0.025
0.1375   0.9375   0.025
0.1375   0.9625   0.025
0.1375   0.9875   0.025
0.1625   0.0125   0.025
0.1625   0.0375   0.025
0.1625   0.0625   0.025
0.1625   0.0875   0.025
0.1625   0.1125   0.025
0.1625   0.1375   0.025
0.1625   0.1625   0.025
0.1625   0.1875   0.025
0.1625   0.2125   0.025
0.1625   0.2375   0.025
0.1625   0.2625   0.025
0.1625   0.2875   0.025
0.1625   0.3125   0.025
0.1625   0.3375   0.025
0.1625   0.3625   0.025
0.1625   0.3875   0.025
0.1625   0.4125   0.025
0.1625   0.4375   0.025
0.1625   0.4625   0.025
0.1625   0.4875   0.025
0.1625   0.5125   0.025
0.1625   0.5375   0.025
0.1625   0.5625   0.025
0.1625   0.5875   0.025
0.1625   0.6125   0.025
0.1625   0.6375   0.025
0.1625   0.6625   0.025
0.1625   0.6875   0.025
0.1625   0.7125   0.025
0.1625   0.7375   0.025
0.1625   0.7625   0.025
0.1625   0.7875   0.025
0.1625   0.8125   0.025
0.1625   0.8375   0.025
0.1625   0.8625   0.025
0.1625   0.8875   0.025
0.1625   0.9125   0.025
0.1625   0.9375   0.025
0.1625   0.9625   0.025
0.1625   0.9875   0.025
0.1875   0.0125   0.025
0.1875   0.0375   0.025
0.1875   0.0625   0.025
0.1875   0.0875   0.025
0.1875   0.1125   0.025
0.1875   0.1375   0.025
0.1875   0.1625   0.025
0.1875   0.1875   0.025
0.1875   0.2125   0.025
0.1875   0.2375   0.025
0.1875   0.2625   0.025
0.1875   0.2875   0.025
0.1875   0.3125   0.025
0.1875   0.3375   0.025
0.1875   0.3625   0.025
0.1875   0.3875   0.025
0.1875   0.4125   0.025
0.1875   0.4375   0.025
0.1875   0.4625   0.025
0.1875   0.4875   0.025
0.1875   0.5125   0.025
0.1875   0.5375   0.025
0.1875   0.5625   0.025
0.1875   0.5875   0.025
0.1875   0.6125   0.025
0.1875   0.6375   0.025
0.1875   0.6625   0.025
0.1875   0.6875   0.025
0.1875   0.7125   0.025
0.1875   0.7375   0.025
0.1875   0.7625   0.025
0.1875   0.7875   0.025
0.1875   0.8125   0.025
0.1875   0.8375   0.025
0.1875   0.8625   0.025
0.1875   0.8875   0.025
0.1875   0.9125   0.025
0.1875   0.9375   0.025
0.1875   0.9625   0.025
0.1875   0.9875   0.025
0.2125   0.0125   0.025
0.2125   0.0375   0.025
0.2125   0.0625   0.025
0.2125   0.0875   0.025
0.2125   0.1125   0.025
0.2125   0.1375   0.025
0.2125   0.1625   0.025
0.2125   0.1875   0.025
0.2125   0.2125   0.025
0.2125   0.2375   0.025
0.2125   0.2625   0.025
0.2125   0.2875   0.025
0.2125   0.3125   0.025
0.2125   0.3375   0.025
0.2125   0.3625   0.025
0.2125   0.3875   0.025
0.2125   0.4125   0.025
0.2125   0.4375   0.025
0.2125   0.4625   0.025
0.2125   0.4875   0.025
0.2125   0.5125   0.025
0.2125   0.5375   0.025
0.2125   0.5625   0.025
0.2125   0.5875   0.025
0.2125   0.6125   0.025
0.2125   0.6375   0.025
0.2125   0.6625   0.025
0.2125   0.6875   0.025
0.2125   0.7125   0.025
0.2125   0.7375   0.025
0.2125   0.7625   0.025
0.2125   0.7875   0.025
0.2125   0.8125   0.025
0.2125   0.8375   0.025
0.2125   0.8625   0.025
0.2125   0.8875   0.025
0.2125   0.9125   0.025
0.2125   0.9375   0.025
0.2125   0.9625   0.025
0.2125   0.9875   0.025
0.2375   0.0125   0.025
0.2375   0.0375   0.025
0.2375   0.0625   0.025
0.2375   0.0875   0.025
0.2375   0.1125   0.025
0.2375   0.1375   0.025
0.2375   0.1625   0.025
0.2375   0.1875   0.025
0.2375   0.2125   0.025
0.2375   0.2375   0.025
0.2375   0.2625   0.025
0.2375   0.2875   0.025
0.2375   0.3125   0.025
0.2375   0.3375   0.025
0.2375   0.3625   0.025
0.2375   0.3875   0.025
0.2375   0.4125   0.025
0.2375   0.4375   0.025
0.2375   0.4625   0.025
0.2375   0.4875   0.025
0.2375   0.5125   0.025
0.2375   0.5375   0.025
0.2375   0.5625   0.025
0.2375   0.5875   0.025
0.2375   0.6125   0.025
0.2375   0.6375   0.025
0.2375   0.6625   0.025
0.2375   0.6875   0.025
0.2375   0.7125   0.025
0.2375   0.7375   0.025
0.2375   0.7625   0.025
0.2375   0.7875   0.025
0.2375   0.8125   0.025
0.2375   0.8375   0.025
0.2375   0.8625   0.025
0.2375   0.8875   0.025
0.2375   0.9125   0.025
0.2375   0.9375   0.025
0.2375   0.9625   0.025
0.2375   0.9875   0.025
0.2625   0.0125   0.025
0.2625   0.0375   0.025
0.2625   0.0625   0.025
0.2625   0.0875   0.025
0.2625   0.1125   0.025
0.2625   0.1375   0.025
0.2625   0.1625   0.025
0.2625   0.1875   0.025
0.2625   0.2125   0.025
0.2625   0.2375   0.025
0.2625   0.2625   0.025
[...]
POINT_DATA   32000
VECTORS Velocidades double

6.54006e-05 0.00122192 0
0.000255532 0.00218776 0
0.000153368 0.00177569 0
1.11806e-06 0.00161218 0
-0.000148018 0.00174111 0
-0.00028447 0.00214422 0
-0.000408074 0.00279418 0
-0.000520199 0.00366538 0
-0.00062206 0.00473524 0
-0.000714438 0.00598354 0
-0.000797701 0.00739153 0
-0.000871873 0.00894113 0
-0.000936716 0.0106143 0
-0.000991813 0.0123926 0
-0.00103666 0.014257 0
-0.00107076 0.0161875 0
-0.00109376 0.0181639 0
-0.00110554 0.0201655 0
-0.00110639 0.0221721 0
-0.00109713 0.0241649 0
-0.00107931 0.0261276 0
-0.00105536 0.0280482 0
-0.00102889 0.0299207 0
-0.00100499 0.0317481 0
-0.000990707 0.0335452 0
-0.000995829 0.0353438 0
-0.00103401 0.0371989 0
-0.00112463 0.0391982 0
-0.00129578 0.0414765 0
-0.001589 0.044238 0
-0.00206701 0.047791 0
-0.00282635 0.0526028 0
-0.00401829 0.0593895 0
-0.00588295 0.0692607 0
-0.0087992 0.0839493 0
-0.0133184 0.106127 0
-0.019923 0.139511 0
-0.0268795 0.186588 0
-0.0163034 0.23025 0
0.124139 0.123428 0
0.000138805 0.00266608 0
0.000578573 0.00526432 0
0.000257309 0.00524369 0
-0.000279739 0.00556742 0
-0.000853704 0.00639179 0
-0.00140755 0.00776295 0
-0.00192453 0.00967319 0
-0.00240098 0.0120924 0
-0.00283701 0.0149822 0
-0.00323337 0.0183014 0
-0.00359034 0.0220077 0
-0.00390741 0.0260584 0
-0.00418336 0.0304094 0
-0.00441643 0.0350154 0
-0.00460466 0.0398296 0
-0.00474622 0.0448033 0
-0.00483992 0.0498871 0
-0.00488567 0.0550313 0
-0.00488513 0.0601879 0
-0.00484226 0.0653124 0
-0.00476408 0.0703669 0
-0.00466145 0.0753235 0
-0.00455012 0.0801691 0
-0.004452 0.0849111 0
-0.00439705 0.0895844 0
-0.00442594 0.094261 0
-0.00459411 0.0990619 0
-0.00497772 0.104174 0
-0.00568268 0.10987 0
-0.00685758 0.11654 0
-0.00871228 0.124722 0
-0.0115427 0.135143 0
-0.0157603 0.148741 0
-0.0219112 0.166632 0
-0.0306244 0.189869 0
-0.0422301 0.218608 0
-0.0549879 0.249529 0
-0.0574277 0.268614 0
0.00403935 0.23607 0
0.348647 0.0998477 0
7.633e-05 0.00388163 0
0.000448449 0.00796233 0
-0.000190798 0.00855985 0
-0.00124858 0.0096422 0
-0.00243771 0.0113458 0
-0.00362968 0.0137376 0
-0.00476981 0.01683 0
-0.005836 0.0206019 0
-0.00681969 0.0250142 0
-0.00771736 0.0300184 0
-0.00852669 0.0355607 0
-0.00924502 0.0415836 0
-0.00986885 0.048027 0
-0.010394 0.0548279 0
-0.0108162 0.0619205 0
-0.0111315 0.069237 0
-0.0113376 0.0767078 0
-0.0114347 0.0842629 0
-0.0114269 0.0918346 0
-0.0113235 0.0993592 0
-0.0111402 0.106782 0
-0.0109015 0.114059 0
-0.010642 0.121167 0
-0.0104096 0.128106 0
-0.0102684 0.134909 0
-0.0103038 0.14165 0
-0.0106287 0.148459 0
-0.0113927 0.155528 0
-0.0127934 0.163129 0
-0.0150902 0.171621 0
-0.0186182 0.181447 0
-0.0237913 0.19311 0
-0.0310705 0.207065 0
-0.0408264 0.223468 0
-0.0528992 0.241571 0
-0.0652823 0.258406 0
-0.0702064 0.266118 0
-0.042564 0.247916 0
0.0914889 0.17899 0
0.513659 0.0642226 0
-0.00014 0.00501715 0
-0.000190772 0.0104802 0
-0.00133968 0.0116792 0
-0.00303592 0.0135335 0
-0.0049489 0.016117 0
-0.00689797 0.0194779 0
-0.00878988 0.0236285 0
-0.0105782 0.0285522 0
-0.0122401 0.0342125 0
-0.0137633 0.0405597 0
-0.01514 0.0475359 0
-0.016363 0.0550769 0
-0.017425 0.063114 0
-0.0183183 0.071574 0
-0.019035 0.0803797 0
-0.0195683 0.0894507 0
-0.0199143 0.0987039 0
-0.0200729 0.108055 0
-0.0200506 0.117421 0
-0.0198621 0.126722 0
-0.0195327 0.135887 0
-0.0191013 0.144855 0
-0.0186229 0.153583 0
-0.0181722 0.162052 0
-0.0178481 0.17027 0
-0.0177792 0.178283 0
-0.0181299 0.186179 0
-0.0191088 0.194088 0
-0.0209761 0.202189 0
-0.0240464 0.210686 0
-0.028679 0.21978 0
-0.0352283 0.229577 0
-0.0439056 0.239919 0
-0.0544237 0.250041 0
-0.0651359 0.257934 0
-0.0709716 0.259265 0
-0.058557 0.245928 0
0.00465557 0.205757 0
0.189924 0.129835 0
0.619886 0.0412265 0
-0.000495921 0.00607593 0
-0.00127955 0.0128068 0
-0.00314688 0.0145255 0
-0.00560565 0.0170637 0
-0.0083251 0.0204319 0
-0.0111005 0.0246429 0
-0.013812 0.0296943 0
-0.0163921 0.0355658 0
-0.0188026 0.0422206 0
-0.0210207 0.0496099 0
-0.0230308 0.0576753 0
-0.0248197 0.066351 0
-0.0263746 0.0755648 0
-0.0276826 0.0852388 0
-0.0287312 0.0952899 0
-0.0295096 0.10563 0
-0.0300107 0.116166 0
-0.030233 0.126804 0
-0.030184 0.137448 0
-0.0298822 0.148003 0
-0.0293608 0.158381 0
-0.0286708 0.1685 0
-0.0278844 0.178293 0
-0.027099 0.187709 0
-0.0264411 0.196719 0
-0.0260711 0.205317 0
-0.0261875 0.213524 0
-0.0270303 0.221378 0
-0.0288782 0.228923 0
-0.0320347 0.236182 0
-0.0367835 0.243095 0
-0.0432787 0.24942 0
-0.0512968 0.254541 0
-0.0596966 0.25716 0
-0.0652754 0.254816 0
-0.0604042 0.243262 0
-0.0283792 0.216158 0
0.0645535 0.166732 0
0.278021 0.0954417 0
0.689393 0.0276071 0
-0.000967457 0.00702992 0
-0.0027387 0.0148833 0
-0.00551004 0.017024 0
-0.00884767 0.020124 0
-0.0124425 0.0241407 0
-0.0160879 0.0290498 0
-0.0196521 0.034828 0
-0.0230539 0.0414452 0
-0.026243 0.0488617 0
-0.0291868 0.0570288 0
-0.0318615 0.0658893 0
-0.0342465 0.0753783 0
-0.0363226 0.0854238 0
-0.0380703 0.095947 0
-0.0394709 0.106862 0
-0.0405078 0.118076 0
-0.0411689 0.129491 0
-0.0414494 0.141002 0
-0.041355 0.152504 0
-0.0409056 0.163886 0
-0.0401385 0.175042 0
-0.0391127 0.185867 0
-0.0379119 0.196267 0
-0.0366487 0.206154 0
-0.0354668 0.215455 0
-0.0345445 0.224105 0
-0.0340942 0.232049 0
-0.0343591 0.239228 0
-0.035599 0.245562 0
-0.0380558 0.250912 0
-0.0418763 0.25502 0
-0.0469482 0.257409 0
-0.052568 0.257225 0
-0.0567822 0.253006 0
-0.0551262 0.242384 0
-0.0383182 0.221872 0
0.0115585 0.187234 0
0.126009 0.135738 0
0.352072 0.0722816 0
0.73706 0.0194615 0
-0.00152944 0.00784979 0
-0.00448825 0.0166524 0
-0.00831321 0.0191177 0
-0.0126267 0.0226513 0
-0.0171519 0.0271692 0
-0.0216945 0.0326143 0
-0.0261236 0.038942 0
-0.0303529 0.0461105 0
-0.0343252 0.0540755 0
-0.0380004 0.0627877 0
-0.0413472 0.0721917 0
-0.0443379 0.0822251 0
-0.0469454 0.0928183 0
-0.0491428 0.103893 0
-0.0509032 0.115364 0
-0.0522024 0.127136 0
-0.0530209 0.139105 0
-0.0533478 0.151161 0
-0.053184 0.163186 0
-0.052547 0.175056 0
-0.0514741 0.186646 0
-0.0500269 0.197829 0
-0.0482946 0.20848 0
-0.0463964 0.218476 0
-0.0444835 0.227697 0
-0.0427387 0.236024 0
-0.0413717 0.243333 0
-0.0406086 0.249483 0
-0.0406657 0.254292 0
-0.0416979 0.257507 0
-0.0436934 0.258748 0
-0.0462701 0.257421 0
-0.0482891 0.25261 0
-0.0471413 0.242914 0
-0.0374915 0.22632 0
-0.0092299 0.200249 0
0.0553771 0.162246 0
0.184246 0.11215 0
0.413601 0.0565712 0
0.771483 0.0144202 0
-0.00215841 0.0085124 0
-0.0064533 0.0180711 0
-0.0114432 0.0207701 0
-0.016805 0.0246146 0
-0.0222989 0.0294891 0
-0.0277525 0.0353106 0
-0.0330451 0.0420161 0
-0.038093 0.0495526 0
-0.0428376 0.0578714 0
-0.0472345 0.0669228 0
-0.0512468 0.0766536 0
-0.0548398 0.087005 0
-0.0579782 0.0979107 0
-0.0606261 0.109296 0
-0.0627471 0.121075 0
-0.0643067 0.133152 0
-0.0652757 0.145421 0
-0.0656337 0.157764 0
-0.0653736 0.170053 0
-0.0645064 0.182151 0
-0.0630649 0.193914 0
-0.0611084 0.205194 0
-0.0587251 0.215836 0
-0.0560345 0.225685 0
-0.0531868 0.23458 0
-0.0503595 0.242355 0
-0.0477491 0.248831 0
-0.0455529 0.253803 0
-0.0439338 0.257024 0
-0.0429539 0.258172 0
-0.0424495 0.256807 0
-0.0418005 0.252312 0
-0.039516 0.243807 0
-0.0325125 0.230069 0
-0.0149377 0.209509 0
0.0235442 0.180369 0
0.0997173 0.141512 0
0.237683 0.0942829 0
0.465068 0.0456549 0
0.797563 0.0111662 0
-0.00283348 0.00900158 0
-0.00856619 0.0191107 0
-0.0147957 0.0219612 0
-0.0212519 0.0260034 0
-0.0277351 0.031099 0
-0.0341006 0.0371457 0
-0.0402446 0.0440664 0
-0.0460928 0.0518002 0
-0.0515898 0.0602949 0
-0.0566906 0.0695014 0
-0.0613542 0.0793699 0
-0.0655396 0.0898459 0
-0.0692032 0.100868 0
-0.0722987 0.112364 0
-0.0747781 0.124251 0
-0.0765948 0.136435 0
-0.0777065 0.148804 0
-0.0780803 0.161236 0
-0.0776976 0.173593 0
-0.0765587 0.185726 0
-0.0746881 0.197474 0
-0.072138 0.208667 0
-0.0689911 0.219126 0
-0.0653617 0.228665 0
-0.0613935 0.237093 0
-0.0572535 0.244205 0
-0.0531198 0.249782 0
-0.0491575 0.253579 0
-0.0454763 0.255309 0
-0.0420529 0.254621 0
-0.0385926 0.251065 0
-0.0342832 0.244046 0
-0.0273702 0.23278 0
-0.0144584 0.216254 0
0.0105473 0.193277 0
0.057816 0.16276 0
0.142829 0.124476 0
0.286125 0.080588 0
0.508669 0.037832 0
0.818149 0.0089698 0
-0.00353638 0.00930697 0
-0.0107668 0.019754 0
-0.0182762 0.0226823 0
-0.0258468 0.026819 0
-0.0333214 0.0320102 0
-0.0405867 0.0381411 0
-0.0475612 0.0451254 0
-0.0541847 0.0528975 0
-0.0604093 0.0614044 0
-0.0661922 0.0705998 0
-0.0714902 0.080438 0
-0.0762565 0.0908704 0
-0.0804387 0.101841 0
-0.0839791 0.113282 0
-0.0868163 0.125115 0
-0.0888887 0.137245 0
-0.0901382 0.149559 0
-0.0905163 0.161929 0
-0.0899889 0.17421 0
-0.0885424 0.186241 0
-0.0861891 0.197843 0
-0.0829706 0.20883 0
-0.0789607 0.219001 0
-0.0742654 0.228147 0
-0.069019 0.236048 0
-0.0633762 0.242476 0
-0.057496 0.247184 0
-0.0515139 0.249905 0
-0.0454925 0.250336 0
-0.0393371 0.248121 0
-0.0326477 0.242827 0
-0.0244656 0.233914 0
-0.0128525 0.220708 0
0.00576803 0.202399 0
0.0375366 0.17814 0
0.0922195 0.147348 0
0.183879 0.110408 0
0.329901 0.0698851 0
0.546116 0.032035 0
0.83495 0.0074191 0
-0.00425109 0.00942254 0
-0.0130017 0.019992 0
-0.0217993 0.0229312 0
-0.0304794 0.027068 0
-0.0389287 0.0322391 0
-0.047069 0.0383226 0
-0.0548447 0.0452284 0
-0.0622133 0.0528904 0
-0.0691378 0.0612578 0
-0.0755798 0.0702891 0
-0.0814955 0.079945 0
-0.0868327 0.0901837 0
-0.0915297 0.100956 0
-0.095516 0.112201 0
-0.0987148 0.123842 0
-0.101047 0.135788 0
-0.102436 0.147924 0
-0.102813 0.160118 0
-0.102127 0.172218 0
-0.100347 0.18405 0
-0.0974683 0.195425 0
-0.093521 0.206138 0
-0.0885672 0.215971 0
-0.0827031 0.224696 0
-0.0760534 0.232076 0
-0.0687612 0.237862 0
-0.0609692 0.241795 0
-0.0527883 0.243598 0
-0.0442437 0.242966 0
-0.0351846 0.239556 0
-0.0251311 0.232966 0
-0.0130186 0.22272 0
0.00321059 0.208253 0
0.0272143 0.188938 0
0.065043 0.164204 0
0.125929 0.133847 0
0.222524 0.0986449 0
0.369488 0.0613239 0
0.578682 0.0275909 0
0.84902 0.00627527 0
-0.00496325 0.00934541 0
-0.0152225 0.019821 0
-0.0252873 0.0227096 0
-0.0350478 0.0267588 0
-0.0444372 0.0318016 0
-0.0534148 0.0377143 0
-0.0619541 0.044408 0
-0.0700332 0.0518201 0
-0.0776281 0.0599055 0
-0.0847068 0.06863 0
-0.0912258 0.0779627 0
-0.0971274 0.0878706 0
-0.10234 0.0983126 0
-0.106779 0.109235 0
-0.11035 0.120567 0
-0.112954 0.132218 0
-0.114492 0.144076 0
-0.114874 0.156004 0
-0.114027 0.167844 0
-0.111899 0.179415 0
-0.108468 0.190513 0
-0.10375 0.200923 0
-0.0977932 0.21041 0
-0.0906848 0.218732 0
-0.0825409 0.225639 0
-0.0734955 0.230871 0
-0.0636795 0.234161 0
-0.0531861 0.235233 0
-0.0420129 0.233791 0
-0.0299681 0.229511 0
-0.0165136 0.222029 0
-0.000512362 0.210932 0
0.0201614 0.195755 0
0.0491732 0.176024 0
0.0923933 0.151388 0
0.158454 0.121918 0
0.258667 0.0886415 0
0.40536 0.0543026 0
0.607299 0.0240679 0
0.86103 0.00539559 0
-0.00565955 0.00907517 0
-0.0173844 0.0192415 0
-0.0286674 0.0220212 0
-0.0394565 0.0259001 0
-0.0497339 0.030712 0
-0.059499 0.036337 0
-0.0687565 0.0426918 0
-0.0775072 0.0497212 0
-0.0857419 0.0573893 0
-0.093436 0.0656717 0
-0.100547 0.0745484 0
-0.107011 0.0839967 0
-0.112746 0.0939852 0
-0.117652 0.104469 0
-0.121614 0.115383 0
-0.124511 0.126643 0
-0.12622 0.138136 0
-0.126625 0.149725 0
-0.125628 0.161247 0
-0.123154 0.172512 0
-0.119163 0.18331 0
-0.113651 0.193412 0
-0.106657 0.202573 0
-0.098257 0.210539 0
-0.0885618 0.21705 0
-0.0776995 0.221841 0
-0.0657945 0.224645 0
-0.0529289 0.225189 0
-0.0390827 0.223188 0
-0.0240355 0.218345 0
-0.00720929 0.210332 0
0.0125784 0.198793 0
0.037482 0.183349 0
0.0711208 0.163654 0
0.119126 0.139528 0
0.189505 0.11124 0
0.292328 0.0799667 0
0.43793 0.0483933 0
0.632645 0.0211826 0
0.871422 0.0046919 0
-0.00632717 0.00861361 0
-0.0194445 0.0182576 0
-0.0318705 0.0208722 0
-0.0436149 0.0245011 0
-0.0547117 0.0289841 0
-0.0652027 0.0342095 0
-0.0751253 0.040104 0
-0.0845048 0.0466238 0
-0.0933474 0.0537451 0
-0.101637 0.061456 0
-0.10933 0.069749 0
-0.11636 0.0786138 0
-0.122631 0.0880307 0
-0.128025 0.0979643 0
-0.132407 0.108359 0
-0.13563 0.119135 0
-0.137544 0.130183 0
-0.138003 0.141368 0
-0.136883 0.152521 0
-0.134084 0.163451 0
-0.129543 0.173937 0
-0.123239 0.183743 0
-0.115199 0.192614 0
-0.10549 0.20029 0
-0.0942192 0.206501 0
-0.0815133 0.210982 0
-0.0674948 0.213466 0
-0.0522418 0.213685 0
-0.0357243 0.211373 0
-0.0177044 0.20625 0
0.00242099 0.198026 0
0.0258587 0.186393 0
0.0547611 0.171045 0
0.0926622 0.15174 0
0.144917 0.12843 0
0.218909 0.101524 0
0.323569 0.0722821 0
0.467532 0.0432875 0
0.65521 0.0187437 0
0.880491 0.00410767 0
-0.0069533 0.00796484 0
-0.0213608 0.0168777 0
-0.0348297 0.0192718 0
-0.0474358 0.0225734 0
-0.059268 0.0266329 0
-0.0704122 0.0313514 0
-0.0809399 0.0366698 0
-0.090901 0.0425584 0
-0.100318 0.0490083 0
-0.109183 0.0560224 0
-0.117454 0.0636078 0
-0.125056 0.0717681 0
-0.131881 0.0804965 0
-0.137793 0.0897699 0
-0.142633 0.0995426 0
-0.146225 0.109742 0
-0.14839 0.120267 0
-0.148952 0.130981 0
-0.147754 0.141719 0
-0.14467 0.152285 0
-0.139613 0.162454 0
-0.132543 0.171982 0
-0.123474 0.18061 0
-0.112468 0.188069 0
-0.099629 0.194086 0
-0.0850865 0.198394 0
-0.0689656 0.200727 0
-0.0513458 0.200825 0
-0.0321944 0.198434 0
-0.0112642 0.193296 0
0.0120607 0.185147 0
0.0389946 0.173722 0
0.0716643 0.158777 0
0.113489 0.140149 0
0.169527 0.117893 0
0.246552 0.0925173 0
0.352457 0.0653203 0
0.494428 0.0387574 0
0.67535 0.0166175 0
0.888436 0.00360521 0
-0.00752493 0.00713567 0
-0.0230915 0.0151154 0
-0.0374793 0.0172345 0
-0.0508351 0.0201336 0
-0.0633047 0.0236788 0
-0.0750193 0.0277881 0
-0.0860851 0.0324197 0
-0.0965767 0.0375612 0
-0.106533 0.0432204 0
-0.115953 0.0494166 0
-0.124796 0.0561729 0
-0.132979 0.0635083 0
-0.140382 0.0714309 0
-0.146847 0.079931 0
-0.152191 0.0889754 0
-0.156207 0.0985023 0
-0.158683 0.108417 0
-0.159411 0.118592 0
-0.158199 0.128862 0
-0.154892 0.139032 0
-0.149376 0.148875 0
-0.141592 0.158145 0
-0.131541 0.166575 0
-0.11928 0.173893 0
-0.104912 0.179823 0
-0.0885714 0.184095 0
-0.0703907 0.186445 0
-0.0504552 0.186621 0
-0.0287347 0.184375 0
-0.00498025 0.179465 0
0.0214277 0.171653 0
0.0516966 0.160707 0
0.0879091 0.14643 0
0.133349 0.128724 0
0.192765 0.107723 0
0.272345 0.0840022 0
0.379046 0.0588658 0
0.518811 0.0346304 0
0.693317 0.0147076 0
0.895395 0.00315838 0
-0.00802868 0.00613623 0
-0.0245949 0.0129913 0
-0.0397557 0.0147818 0
-0.053732 0.0172061 0
-0.0667286 0.0201509 0
-0.0789219 0.0235548 0
-0.0904521 0.0273958 0
-0.101418 0.0316808 0
-0.111875 0.0364356 0
-0.121829 0.041697 0
-0.131238 0.0475051 0
-0.140013 0.0538954 0
-0.148018 0.060892 0
-0.155076 0.068501 0
-0.160975 0.0767037 0
-0.165479 0.0854515 0
-0.16834 0.0946617 0
-0.169312 0.104215 0
-0.16817 0.113953 0
-0.164724 0.123685 0
-0.158832 0.133187 0
-0.150415 0.142207 0
-0.139458 0.150481 0
-0.126014 0.157729 0
-0.110187 0.163675 0
-0.0921179 0.168044 0
-0.0719491 0.170575 0
-0.0497754 0.171017 0
-0.0255737 0.169128 0
0.000901198 0.16468 0
0.0302642 0.157448 0
0.0637049 0.147227 0
0.103246 0.13386 0
0.152022 0.117299 0
0.214466 0.0977343 0
0.29621 0.0757857 0
0.403364 0.0527412 0
0.540813 0.0307716 0
0.709286 0.0129418 0
0.901457 0.00274822 0
-0.00845095 0.00498052 0
-0.0258303 0.0105339 0
-0.0415977 0.0119446 0
-0.0560508 0.0138264 0
-0.0694531 0.0160912 0
-0.0820252 0.0187013 0
-0.0939402 0.0216566 0
-0.10532 0.0249838 0
-0.116234 0.0287277 0
-0.126695 0.0329427 0
-0.136661 0.0376861 0
-0.146036 0.0430107 0
-0.154668 0.0489579 0
-0.16236 0.0555512 0
-0.168871 0.0627889 0
-0.173934 0.0706391 0
-0.177263 0.0790342 0
-0.178575 0.0878683 0
-0.177604 0.0969954 0
-0.174126 0.106231 0
-0.167968 0.115357 0
-0.159027 0.124126 0
-0.147273 0.132269 0
-0.13275 0.139509 0
-0.115566 0.145563 0
-0.0958694 0.150156 0
-0.0738126 0.153022 0
-0.0495032 0.153911 0
-0.0229285 0.152584 0
0.00614788 0.148815 0
0.0383297 0.142394 0
0.0747784 0.133134 0
0.117445 0.120904 0
0.169302 0.105698 0
0.234471 0.0877476 0
0.318056 0.0676955 0
0.425408 0.0467966 0
0.560513 0.027072 0
0.723367 0.011264 0
0.906679 0.00236044 0
-0.00877825 0.00368699 0
-0.0267586 0.00778135 0
-0.0429487 0.00876509 0
-0.0577226 0.0100436 0
-0.0714004 0.0115578 0
-0.0842446 0.0132962 0
-0.0964586 0.0152815 0
-0.108185 0.0175605 0
-0.119507 0.020196 0
-0.130443 0.0232596 0
-0.140951 0.0268257 0
-0.150927 0.0309642 0
-0.160207 0.035735 0
-0.16857 0.0411802 0
-0.175751 0.0473183 0
-0.181448 0.0541372 0
-0.185338 0.0615893 0
-0.187097 0.0695868 0
-0.18642 0.0780005 0
-0.183041 0.0866596 0
-0.176754 0.0953553 0
-0.167429 0.103847 0
-0.155018 0.111869 0
-0.139557 0.119143 0
-0.121152 0.125385 0
-0.0999587 0.130313 0
-0.076143 0.133659 0
-0.0498256 0.135165 0
-0.0210065 0.134593 0
0.0105378 0.131716 0
0.0453935 0.126328 0
0.0846858 0.118255 0
0.130284 0.107388 0
0.18499 0.0937467 0
0.252618 0.077592 0
0.337779 0.0595747 0
0.445144 0.0409017 0
0.577942 0.023441 0
0.735623 0.00962891 0
0.911094 0.00198385 0
-0.00899764 0.0022789 0
-0.0273444 0.00478245 0
-0.0437587 0.00529835 0
-0.0586879 0.005922 0
-0.0725044 0.00662718 0
-0.0855081 0.00742966 0
-0.0979288 0.00837471 0
-0.109928 0.00952812 0
-0.1216 0.0109694 0
-0.132969 0.0127858 0
-0.143994 0.0150676 0
-0.154564 0.0179016 0
-0.164502 0.021366 0
-0.173569 0.0255236 0
-0.181474 0.0304153 0
-0.187881 0.0360528 0
-0.19243 0.0424129 0
-0.194755 0.0494323 0
-0.194509 0.0570041 0
-0.191383 0.0649776 0
-0.185133 0.0731602 0
-0.175598 0.0813226 0
-0.162706 0.0892066 0
-0.146481 0.0965349 0
-0.127026 0.103021 0
-0.104504 0.108379 0
-0.0790898 0.112332 0
-0.0509187 0.114616 0
-0.0200058 0.114982 0
0.0138566 0.113201 0
0.0512312 0.109064 0
0.0931992 0.102405 0
0.141539 0.0931256 0
0.19888 0.0812657 0
0.268734 0.0671013 0
0.355253 0.0512774 0
0.462505 0.0349404 0
0.593088 0.0198007 0
0.746071 0.00799896 0
0.914712 0.00160934 0
-0.0090975 0.000784549 0
-0.0275575 0.00159708 0
-0.0439872 0.00161295 0
-0.0589001 0.00154292 0
-0.0727137 0.00139593 0
-0.0857592 0.00121513 0
-0.0982884 0.00106696 0
-0.110478 0.00103402 0
-0.122432 0.00120998 0
-0.134181 0.00169558 0
-0.145684 0.00259466 0
-0.156826 0.00400992 0
-0.16742 0.0060378 0
-0.177211 0.0087626 0
-0.185884 0.0122498 0
-0.193072 0.0165388 0
-0.19838 0.021636 0
-0.201399 0.0275086 0
-0.201735 0.0340795 0
-0.199037 0.0412253 0
-0.193017 0.0487769 0
-0.183477 0.0565232 0
-0.170318 0.0642178 0
-0.153543 0.071589 0
-0.133251 0.0783496 0
-0.109604 0.084208 0
-0.0827861 0.0888769 0
-0.0529462 0.0920803 0
-0.0201151 0.0935577 0
0.0158954 0.0930686 0
0.05562 0.0903996 0
0.100089 0.0853812 0
0.150983 0.0779226 0
0.210754 0.0680725 0
0.282626 0.0561113 0
0.370323 0.0426644 0
0.477386 0.0288059 0
0.605898 0.0160818 0
0.754695 0.00634164 0
0.917526 0.00122921 0
-0.00906827 -0.000762859 0
-0.0273757 -0.00170393 0
-0.0436062 -0.00220887 0
-0.0583282 -0.00299568 0
-0.0719949 -0.00401928 0
-0.0849607 -0.00521039 0
-0.0974937 -0.00648394 0
-0.109782 -0.00774382 0
-0.121938 -0.00888557 0
-0.133998 -0.00979848 0
-0.145923 -0.0103676 0
-0.157597 -0.0104768 0
-0.168826 -0.0100122 0
-0.179343 -0.0088679 0
-0.188813 -0.00695187 0
-0.196844 -0.00419369 0
-0.203005 -0.000552243 0
-0.206846 0.0039766 0
-0.207928 0.00935345 0
-0.205851 0.0154909 0
-0.20028 0.0222521 0
-0.190974 0.0294521 0
-0.177798 0.0368637 0
-0.160732 0.0442256 0
-0.139857 0.0512532 0
-0.115331 0.0576496 0
-0.087344 0.063116 0
-0.0560557 0.0673613 0
-0.0215129 0.0701082 0
0.0164509 0.0711004 0
0.0583372 0.0701123 0
0.105119 0.0669673 0
0.158374 0.061573 0
0.220379 0.0539784 0
0.294076 0.0444564 0
0.382806 0.0335999 0
0.489647 0.022397 0
0.616279 0.0122206 0
0.761444 0.00462792 0
0.919518 0.000836757 0
-0.00890345 -0.00232572 0
-0.0267863 -0.0050398 0
-0.0426025 -0.00607235 0
-0.0569605 -0.00758028 0
-0.0703362 -0.009483 0
-0.0830982 -0.0116877 0
-0.0955239 -0.0140944 0
-0.107809 -0.0165976 0
-0.120072 -0.0190866 0
-0.132356 -0.0214446 0
-0.144626 -0.0235496 0
-0.156769 -0.0252748 0
-0.168588 -0.0264911 0
-0.17981 -0.0270716 0
-0.190086 -0.026897 0
-0.199003 -0.0258634 0
-0.206098 -0.0238904 0
-0.210885 -0.0209302 0
-0.212879 -0.0169764 0
-0.211629 -0.0120708 0
-0.206749 -0.00630787 0