# vtk DataFile Version 2.0
Presion
ASCII

DATASET STRUCTURED_GRID
DIMENSIONS   40   40   20

POINTS   32000   double
0.0125   0.0125   0.025
0.0375   0.0125   0.025
0.0625   0.0125   0.025
0.0875   0.0125   0.025
0.1125   0.0125   0.025
0.1375   0.0125   0.025
0.1625   0.0125   0.025
0.1875   0.0125   0.025
0.2125   0.0125   0.025
0.2375   0.0125   0.025
0.2625   0.0125   0.025
0.2875   0.0125   0.025
0.3125   0.0125   0.025
0.3375   0.0125   0.025
0.3625   0.0125   0.025
0.3875   0.0125   0.025
0.4125   0.0125   0.025
0.4375   0.0125   0.025
0.4625   0.0125   0.025
0.4875   0.0125   0.025
0.5125   0.0125   0.025
0.5375   0.0125   0.025
0.5625   0.0125   0.025
0.5875   0.0125   0.025
0.6125   0.0125   0.025
0.6375   0.0125   0.025
0.6625   0.0125   0.025
0.6875   0.0125   0.025
0.7125   0.0125   0.025
0.7375   0.0125   0.025
0.7625   0.0125   0.025
0.7875   0.0125   0.025
0.8125   0.0125   0.025
0.8375   0.0125   0.025
0.8625   0.0125   0.025
0.8875   0.0125   0.025
0.9125   0.0125   0.025
0.9375   0.0125   0.025
0.9625   0.0125   0.025
0.9875   0.0125   0.025
0.0125   0.0375   0.025
0.0375   0.0375   0.025
0.0625   0.0375   0.025
0.0875   0.0375   0.025
0.1125   0.0375   0.025
0.1375   0.0375   0.025
0.1625   0.0375   0.025
0.1875   0.0375   0.025
0.2125   0.0375   0.025
0.2375   0.0375   0.025
0.2625   0.0375   0.025
0.2875   0.0375   0.025
0.3125   0.0375   0.025
0.3375   0.0375   0.025
0.3625   0.0375   0.025
0.3875   0.0375   0.025
0.4125   0.0375   0.025
0.4375   0.0375   0.025
0.4625   0.0375   0.025
0.4875   0.0375   0.025
0.5125   0.0375   0.025
0.5375   0.0375   0.025
0.5625   0.0375   0.025
0.5875   0.0375   0.025
0.6125   0.0375   0.025
0.6375   0.0375   0.025
0.6625   0.0375   0.025
0.6875   0.0375   0.025
0.7125   0.0375   0.025
0.7375   0.0375   0.025
0.7625   0.0375   0.025
0.7875   0.0375   0.025
0.8125   0.0375   0.025
0.8375   0.0375   0.025
0.8625   0.0375   0.025
0.8875   0.0375   0.025
0.9125   0.0375   0.025
0.9375   0.0375   0.025
0.9625   0.0375   0.025
0.9875   0.0375   0.025
0.0125   0.0625   0.025
0.0375   0.0625   0.025
0.0625   0.0625   0.025
0.0875   0.0625   0.025
0.1125   0.0625   0.025
0.1375   0.0625   0.025
0.1625   0.0625   0.025
0.1875   0.0625   0.025
0.2125   0.0625   0.025
0.2375   0.0625   0.025
0.2625   0.0625   0.025
0.2875   0.0625   0.025
0.3125   0.0625   0.025
0.3375   0.0625   0.025
0.3625   0.0625   0.025
0.3875   0.0625   0.025
0.4125   0.0625   0.025
0.4375   0.0625   0.025
0.4625   0.0625   0.025
0.4875   0.0625   0.025
0.5125   0.0625   0.025
0.5375   0.0625   0.025
0.5625   0.0625   0.025
0.5875   0.0625   0.025
0.6125   0.0625   0.025
0.6375   0.0625   0.025
0.6625   0.0625   0.025
0.6875   0.0625   0.025
0.7125   0.0625   0.025
0.7375   0.0625   0.025
0.7625   0.0625   0.025
0.7875   0.0625   0.025
0.8125   0.0625   0.025
0.8375   0.0625   0.025
0.8625   0.0625   0.025
0.8875   0.0625   0.025
0.9125   0.0625   0.025
0.9375   0.0625   0.025
0.9625   0.0625   0.025
0.9875   0.0625   0.025
0.0125   0.0875   0.025
0.0375   0.0875   0.025
0.0625   0.0875   0.025
0.0875   0.0875   0.025
0.1125   0.0875   0.025
0.1375   0.0875   0.025
0.1625   0.0875   0.025
0.1875   0.0875   0.025
0.2125   0.0875   0.025
0.2375   0.0875   0.025
0.2625   0.0875   0.025
0.2875   0.0875   0.025
0.3125   0.0875   0.025
0.3375   0.0875   0.025
0.3625   0.0875   0.025
0.3875   0.0875   0.025
0.4125   0.0875   0.025
0.4375   0.0875   0.025
0.4625   0.0875   0.025
0.4875   0.0875   0.025
0.5125   0.0875   0.025
0.5375   0.0875   0.025
0.5625   0.0875   0.025
0.5875   0.0875   0.025
0.6125   0.0875   0.025
0.6375   0.0875   0.025
0.6625   0.0875   0.025
0.6875   0.0875   0.025
0.7125   0.0875   0.025
0.7375   0.0875   0.025
0.7625   0.0875   0.025
0.7875   0.0875   0.025
0.8125   0.0875   0.025
0.8375   0.0875   0.025
0.8625   0.0875   0.025
0.8875   0.0875   0.025
0.9125   0.0875   0.025
0.9375   0.0875   0.025
0.9625   0.0875   0.025
0.9875   0.0875   0.025
0.0125   0.1125   0.025
0.0375   0.1125   0.025
0.0625   0.1125   0.025
0.0875   0.1125   0.025
0.1125   0.1125   0.025
0.1375   0.1125   0.025
0.1625   0.1125   0.025
0.1875   0.1125   0.025
0.2125   0.1125   0.025
0.2375   0.1125   0.025
0.2625   0.1125   0.025
0.2875   0.1125   0.025
0.3125   0.1125   0.025
0.3375   0.1125   0.025
0.3625   0.1125   0.025
0.3875   0.1125   0.025
0.4125   0.1125   0.025
0.4375   0.1125   0.025
0.4625   0.1125   0.025
0.4875   0.1125   0.025
0.5125   0.1125   0.025
0.5375   0.1125   0.025
0.5625   0.1125   0.025
0.5875   0.1125   0.025
0.6125   0.1125   0.025
0.6375   0.1125   0.025
0.6625   0.1125   0.025
0.6875   0.1125   0.025
0.7125   0.1125   0.025
0.7375   0.1125   0.025
0.7625   0.1125   0.025
0.7875   0.1125   0.025
0.8125   0.1125   0.025
0.8375   0.1125   0.025
0.8625   0.1125   0.025
0.8875   0.1125   0.025
0.9125   0.1125   0.025
0.9375   0.1125   0.025
0.9625   0.1125   0.025
0.9875   0.1125   0.025
0.0125   0.1375   0.025
0.0375   0.1375   0.025
0.0625   0.1375   0.025
0.0875   0.1375   0.025
0.1125   0.1375   0.025
0.1375   0.1375   0.025
0.1625   0.1375   0.025
0.1875   0.1375   0.025
0.2125   0.1375   0.025
0.2375   0.1375   0.025
0.2625   0.1375   0.025
0.2875   0.1375   0.025
0.3125   0.1375   0.025
0.3375   0.1375   0.025
0.3625   0.1375   0.025
0.3875   0.1375   0.025
0.4125   0.1375   0.025
0.4375   0.1375   0.025
0.4625   0.1375   0.025
0.4875   0.1375   0.025
0.5125   0.1375   0.025
0.5375   0.1375   0.025
0.5625   0.1375   0.025
0.5875   0.1375   0.025
0.6125   0.1375   0.025
0.6375   0.1375   0.025
0.6625   0.1375   0.025
0.6875   0.1375   0.025
0.7125   0.1375   0.025
0.7375   0.1375   0.025
0.7625   0.1375   0.025
0.7875   0.1375   0.025
0.8125   0.1375   0.025
0.8375   0.1375   0.025
0.8625   0.1375   0.025
0.8875   0.1375   0.025
0.9125   0.1375   0.025
0.9375   0.1375   0.025
0.9625   0.1375   0.025
0.9875   0.1375   0.025
0.0125   0.1625   0.025
0.0375   0.1625   0.025
0.0625   0.1625   0.025
0.0875   0.1625   0.025
0.1125   0.1625   0.025
0.1375   0.1625   0.025
0.1625   0.1625   0.025
0.1875   0.1625   0.025
0.2125   0.1625   0.025
0.2375   0.1625   0.025
0.2625   0.1625   0.025
0.2875   0.1625   0.025
0.3125   0.1625   0.025
0.3375   0.1625   0.025
0.3625   0.1625   0.025
0.3875   0.1625   0.025
0.4125   0.1625   0.025
0.4375   0.1625   0.025
0.4625   0.1625   0.025
0.4875   0.1625   0.025
0.5125   0.1625   0.025
0.5375   0.1625   0.025
0.5625   0.1625   0.025
0.5875   0.1625   0.025
0.6125   0.1625   0.025
0.6375   0.1625   0.025
0.6625   0.1625   0.025
0.6875   0.1625   0.025
0.7125   0.1625   0.025
0.7375   0.1625   0.025
0.7625   0.1625   0.025
0.7875   0.1625   0.025
0.8125   0.1625   0.025
0.8375   0.1625   0.025
0.8625   0.1625   0.025
0.8875   0.1625   0.025
0.9125   0.1625   0.025
0.9375   0.1625   0.025
0.9625   0.1625   0.025
0.9875   0.1625   0.025
0.0125   0.1875   0.025
0.0375   0.1875   0.025
0.0625   0.1875   0.025
0.0875   0.1875   0.025
0.1125   0.1875   0.025
0.1375   0.1875   0.025
0.1625   0.1875   0.025
0.1875   0.1875   0.025
0.2125   0.1875   0.025
0.2375   0.1875   0.025
0.2625   0.1875   0.025
0.2875   0.1875   0.025
0.3125   0.1875   0.025
0.3375   0.1875   0.025
0.3625   0.1875   0.025
0.3875   0.1875   0.025
0.4125   0.1875   0.025
0.4375   0.1875   0.025
0.4625   0.1875   0.025
0.4875   0.1875   0.025
0.5125   0.1875   0.025
0.5375   0.1875   0.025
0.5625   0.1875   0.025
0.5875   0.1875   0.025
0.6125   0.1875   0.025
0.6375   0.1875   0.025
0.6625   0.1875   0.025
0.6875   0.1875   0.025
0.7125   0.1875   0.025
0.7375   0.1875   0.025
0.7625   0.1875   0.025
0.7875   0.1875   0.025
0.8125   0.1875   0.025
0.8375   0.1875   0.025
0.8625   0.1875   0.025
0.8875   0.1875   0.025
0.9125   0.1875   0.025
0.9375   0.1875   0.025
0.9625   0.1875   0.025
0.9875   0.1875   0.025
0.0125   0.2125   0.025
0.0375   0.2125   0.025
0.0625   0.2125   0.025
0.0875   0.2125   0.025
0.1125   0.2125   0.025
0.1375   0.2125   0.025
0.1625   0.2125   0.025
0.1875   0.2125   0.025
0.2125   0.2125   0.025
0.2375   0.2125   0.025
0.2625   0.2125   0.025
0.2875   0.2125   0.025
0.3125   0.2125   0.025
0.3375   0.2125   0.025
0.3625   0.2125   0.025
0.3875   0.2125   0.025
0.4125   0.2125   0.025
0.4375   0.2125   0.025
0.4625   0.2125   0.025
0.4875   0.2125   0.025
0.5125   0.2125   0.025
0.5375   0.2125   0.025
0.5625   0.2125   0.025
0.5875   0.2125   0.025
0.6125   0.2125   0.025
0.6375   0.2125   0.025
0.6625   0.2125   0.025
0.6875   0.2125   0.025
0.7125   0.2125   0.025
0.7375   0.2125   0.025
0.7625   0.2125   0.025
0.7875   0.2125   0.025
0.8125   0.2125   0.025
0.8375   0.2125   0.025
0.8625   0.2125   0.025
0.8875   0.2125   0.025
0.9125   0.2125   0.025
0.9375   0.2125   0.025
0.9625   0.2125   0.025
0.9875   0.2125   0.025
0.0125   0.2375   0.025
0.0375   0.2375   0.025
0.0625   0.2375   0.025
0.0875   0.2375   0.025
0.1125   0.2375   0.025
0.1375   0.2375   0.025
0.1625   0.2375   0.025
0.1875   0.2375   0.025
0.2125   0.2375   0.025
0.2375   0.2375   0.025
0.2625   0.2375   0.025
0.2875   0.2375   0.025
0.3125   0.2375   0.025
0.3375   0.2375   0.025
0.3625   0.2375   0.025
0.3875   0.2375   0.025
0.4125   0.2375   0.025
0.4375   0.2375   0.025
0.4625   0.2375   0.025
0.4875   0.2375   0.025
0.5125   0.2375   0.025
0.5375   0.2375   0.025
0.5625   0.2375   0.025
0.5875   0.2375   0.025
0.6125   0.2375   0.025
0.6375   0.2375   0.025
0.6625   0.2375   0.025
0.6875   0.2375   0.025
0.7125   0.2375   0.025
0.7375   0.2375   0.025
0.7625   0.2375   0.025
0.7875   0.2375   0.025
0.8125   0.2375   0.025
0.8375   0.2375   0.025
0.8625   0.2375   0.025
0.8875   0.2375   0.025
0.9125   0.2375   0.025
0.9375   0.2375   0.025
0.9625   0.2375   0.025
0.9875   0.2375   0.025
0.0125   0.2625   0.025
0.0375   0.2625   0.025
0.0625   0.2625   0.025
0.0875   0.2625   0.025
0.1125   0.2625   0.025
0.1375   0.2625   0.025
0.1625   0.2625   0.025
0.1875   0.2625   0.025
0.2125   0.2625   0.025
0.2375   0.2625   0.025
0.2625   0.2625   0.025
[...]
POINT_DATA   32000
SCALARS Presion double
LOOKUP_TABLE   Presion

0 0 0 0 0 0 0 0 0 0 0 0 0 0 0 0 0 0 0 0 0 0 0 0 0 0 0 0 0 0 0 0 0 0 0 0 0 0 0 0 -2.57698e-06 -2.55493e-06 -2.5113e-06 -2.44675e-06 -2.36216e-06 -2.2586e-06 -2.13725e-06 -1.99938e-06 -1.84629e-06 -1.67924e-06 -1.49942e-06 -1.30922e-06 -1.10819e-06 -8.97084e-07 -6.76455e-07 -4.46708e-07 -2.08109e-07 3.91752e-08 2.95036e-07 5.59368e-07 8.32013e-07 1.11311e-06 1.4018e-06 1.69741e-06 1.99894e-06 2.30505e-06 2.61396e-06 2.92348e-06 3.23095e-06 3.53328e-06 3.82696e-06 4.11136e-06 4.37916e-06 4.62615e-06 4.84812e-06 5.04107e-06 5.20133e-06 5.32574e-06 5.4118e-06 5.45778e-06 -5.18158e-06 -5.13712e-06 -5.04916e-06 -4.91907e-06 -4.74866e-06 -4.54011e-06 -4.29586e-06 -4.01851e-06 -3.71072e-06 -3.37505e-06 -3.01393e-06 -2.63217e-06 -2.22891e-06 -1.80562e-06 -1.36342e-06 -9.03082e-07 -4.25108e-07 7.02149e-08 5.82723e-07 1.11226e-06 1.65858e-06 2.22199e-06 2.80089e-06 3.39394e-06 3.99923e-06 4.61408e-06 5.235e-06 5.85759e-06 6.47652e-06 7.08556e-06 7.6776e-06 8.25127e-06 8.79182e-06 9.29066e-06 9.73921e-06 1.01293e-05 1.04533e-05 1.0705e-05 1.0879e-05 1.0972e-05 -7.8401e-06 -7.77248e-06 -7.63875e-06 -7.44111e-06 -7.18239e-06 -6.866e-06 -6.49576e-06 -6.07573e-06 -5.61004e-06 -5.10269e-06 -4.55739e-06 -3.98149e-06 -3.3737e-06 -2.73624e-06 -2.07076e-06 -1.37835e-06 -6.59679e-07 8.49464e-08 8.5541e-07 1.65163e-06 2.47338e-06 3.32126e-06 4.19304e-06 5.0869e-06 6.00007e-06 6.92866e-06 7.86749e-06 8.80999e-06 9.74811e-06 1.06724e-05 1.1572e-05 1.24446e-05 1.32676e-05 1.4028e-05 1.47122e-05 1.53077e-05 1.58027e-05 1.61872e-05 1.64531e-05 1.6595e-05 -1.05793e-05 -1.04873e-05 -1.03056e-05 -1.00373e-05 -9.68641e-06 -9.25778e-06 -8.7568e-06 -8.18918e-06 -7.56073e-06 -6.87703e-06 -6.14325e-06 -5.36935e-06 -4.55368e-06 -3.69919e-06 -2.80802e-06 -1.88152e-06 -9.20382e-07 7.51891e-08 1.1053e-06 2.17013e-06 3.26966e-06 4.40492e-06 5.57333e-06 6.77274e-06 7.99973e-06 9.24931e-06 1.05147e-05 1.17872e-05 1.30561e-05 1.43085e-05 1.55295e-05 1.67156e-05 1.78361e-05 1.88727e-05 1.98068e-05 2.06204e-05 2.12973e-05 2.18232e-05 2.2187e-05 2.2381e-05 -1.34265e-05 -1.33085e-05 -1.30758e-05 -1.27324e-05 -1.2284e-05 -1.1737e-05 -1.10987e-05 -1.03767e-05 -9.57879e-06 -8.71238e-06 -7.78428e-06 -6.80723e-06 -5.77925e-06 -4.70406e-06 -3.58421e-06 -2.42118e-06 -1.21556e-06 3.27927e-08 1.32442e-06 2.66e-06 4.04001e-06 5.46613e-06 6.93574e-06 8.44665e-06 9.99501e-06 1.1575e-05 1.31783e-05 1.47943e-05 1.64093e-05 1.80071e-05 1.95684e-05 2.1088e-05 2.25265e-05 2.38597e-05 2.5063e-05 2.61126e-05 2.69866e-05 2.76661e-05 2.81361e-05 2.83863e-05 -1.64102e-05 -1.6264e-05 -1.5976e-05 -1.55518e-05 -1.49987e-05 -1.43252e-05 -1.35409e-05 -1.26556e-05 -1.16795e-05 -1.06221e-05 -9.49221e-06 -8.30551e-06 -7.05979e-06 -5.7595e-06 -4.40753e-06 -3.00534e-06 -1.55317e-06 -5.02873e-08 1.5046e-06 3.11301e-06 4.77625e-06 6.49692e-06 8.27282e-06 1.01021e-05 1.19807e-05 1.39024e-05 1.58576e-05 1.78337e-05 1.98143e-05 2.17795e-05 2.37054e-05 2.55843e-05 2.73675e-05 2.90241e-05 3.05222e-05 3.18312e-05 3.29225e-05 3.37716e-05 3.43589e-05 3.46711e-05 -1.95599e-05 -1.93826e-05 -1.9034e-05 -1.85215e-05 -1.78545e-05 -1.70441e-05 -1.61024e-05 -1.50424e-05 -1.3877e-05 -1.26183e-05 -1.12773e-05 -9.87308e-06 -8.40316e-06 -6.87276e-06 -5.28501e-06 -3.64109e-06 -1.94059e-06 -1.8186e-07 1.63754e-06 3.52036e-06 5.4692e-06 7.48792e-06 9.57529e-06 1.17302e-05 1.39491e-05 1.62253e-05 1.85487e-05 2.09048e-05 2.32746e-05 2.56341e-05 2.79546e-05 3.02252e-05 3.2387e-05 3.44008e-05 3.62266e-05 3.78251e-05 3.91598e-05 4.01992e-05 4.09182e-05 4.12997e-05 -2.29066e-05 -2.26947e-05 -2.22786e-05 -2.16682e-05 -2.08755e-05 -1.99148e-05 -1.88017e-05 -1.75527e-05 -1.6184e-05 -1.47111e-05 -1.31478e-05 -1.15166e-05 -9.81512e-06 -8.04921e-06 -6.22202e-06 -4.33421e-06 -2.38431e-06 -3.69301e-07 1.71488e-06 3.87274e-06 6.10863e-06 8.42818e-06 1.08318e-05 1.33196e-05 1.58891e-05 1.85341e-05 2.1244e-05 2.40029e-05 2.67894e-05 2.95755e-05 3.23271e-05 3.5029e-05 3.76112e-05 4.00249e-05 4.22196e-05 4.41457e-05 4.5757e-05 4.7013e-05 4.78819e-05 4.83421e-05 -2.64834e-05 -2.62322e-05 -2.574e-05 -2.50196e-05 -2.40864e-05 -2.29586e-05 -2.16562e-05 -2.02001e-05 -1.86109e-05 -1.69082e-05 -1.5109e-05 -1.32399e-05 -1.12986e-05 -9.29154e-06 -7.2217e-06 -5.0887e-06 -2.88956e-06 -6.19277e-07 1.72839e-06 4.1603e-06 6.6832e-06 9.30496e-06 1.20284e-05 1.48557e-05 1.77861e-05 2.08144e-05 2.39305e-05 2.71178e-05 3.03526e-05 3.3603e-05 3.68291e-05 4.00104e-05 4.30643e-05 4.59303e-05 4.85454e-05 5.0847e-05 5.27765e-05 5.42825e-05 5.53245e-05 5.58751e-05 -3.03254e-05 -3.0029e-05 -2.94499e-05 -2.86043e-05 -2.7512e-05 -2.61961e-05 -2.4682e-05 -2.29963e-05 -2.11653e-05 -1.92136e-05 -1.71623e-05 -1.50427e-05 -1.28525e-05 -1.0599e-05 -8.28415e-06 -5.90617e-06 -3.45979e-06 -9.37374e-07 1.67024e-06 4.37292e-06 7.18049e-06 1.01037e-05 1.31485e-05 1.63203e-05 1.96206e-05 2.30466e-05 2.65894e-05 3.02326e-05 3.3951e-05 3.77091e-05 4.14606e-05 4.51789e-05 4.87666e-05 5.21495e-05 5.52489e-05 5.79857e-05 6.02857e-05 6.20837e-05 6.33278e-05 6.39837e-05 -3.44705e-05 -3.41218e-05 -3.34421e-05 -3.24522e-05 -3.11774e-05 -2.96469e-05 -2.78931e-05 -2.59498e-05 -2.38506e-05 -2.16263e-05 -1.93038e-05 -1.69192e-05 -1.44709e-05 -1.1966e-05 -9.40551e-06 -6.78501e-06 -4.09612e-06 -1.32763e-06 1.53331e-06 4.50036e-06 7.58714e-06 1.08079e-05 1.41728e-05 1.76911e-05 2.13682e-05 2.52045e-05 2.91941e-05 3.33219e-05 3.75624e-05 4.18771e-05 4.62132e-05 5.05366e-05 5.47336e-05 5.87125e-05 6.2375e-05 6.56216e-05 6.83577e-05 7.05002e-05 7.19832e-05 7.27631e-05 -3.896e-05 -3.85499e-05 -3.77527e-05 -3.65948e-05 -3.51082e-05 -3.33299e-05 -3.1301e-05 -2.9065e-05 -2.66645e-05 -2.41391e-05 -2.15224e-05 -1.88566e-05 -1.61405e-05 -1.33811e-05 -1.05768e-05 -7.71959e-06 -4.7966e-06 -1.79202e-06 1.31169e-06 4.53273e-06 7.88921e-06 1.13995e-05 1.50791e-05 1.8942e-05 2.29987e-05 2.72549e-05 3.17091e-05 3.63497e-05 4.11528e-05 4.60781e-05 5.10668e-05 5.60759e-05 6.09728e-05 6.56446e-05 6.99681e-05 7.38172e-05 7.70716e-05 7.96249e-05 8.13929e-05 8.23202e-05 -4.38395e-05 -4.33569e-05 -4.24212e-05 -4.10656e-05 -3.93304e-05 -3.72625e-05 -3.49141e-05 -3.23408e-05 -2.95977e-05 -2.67357e-05 -2.37974e-05 -2.08322e-05 -1.78396e-05 -1.4825e-05 -1.17828e-05 -8.69924e-06 -5.55555e-06 -2.3298e-06 1.00121e-06 4.46097e-06 8.07271e-06 1.18594e-05 1.58427e-05 2.00426e-05 2.44762e-05 2.91563e-05 3.40883e-05 3.92674e-05 4.46736e-05 5.02677e-05 5.5986e-05 6.17752e-05 6.74814e-05 7.29648e-05 7.80704e-05 8.26381e-05 8.65138e-05 8.95613e-05 9.16724e-05 9.27768e-05 -4.91598e-05 -4.8591e-05 -4.74907e-05 -4.59008e-05 -4.38711e-05 -4.14608e-05 -3.87363e-05 -3.57691e-05 -3.26308e-05 -2.93878e-05 -2.60951e-05 -2.28105e-05 -1.95344e-05 -1.62684e-05 -1.30001e-05 -9.70734e-06 -6.36284e-06 -2.93702e-06 6.00015e-07 4.2776e-06 8.12437e-06 1.21682e-05 1.64375e-05 2.09593e-05 2.57589e-05 3.08585e-05 3.62739e-05 4.20106e-05 4.80578e-05 5.4381e-05 6.09145e-05 6.75945e-05 7.42416e-05 8.06824e-05 8.67207e-05 9.2152e-05 9.67787e-05 0.000100425 0.000102953 0.000104271 -5.49783e-05 -5.43067e-05 -5.30102e-05 -5.11403e-05 -4.8759e-05 -4.59398e-05 -4.27672e-05 -3.93331e-05 -3.57317e-05 -3.20509e-05 -2.83637e-05 -2.47389e-05 -2.11761e-05 -1.767e-05 -1.41964e-05 -1.07206e-05 -7.20351e-06 -3.60606e-06 1.09177e-07 3.97751e-06 8.03279e-06 1.23075e-05 1.68372e-05 2.16564e-05 2.68005e-05 3.23033e-05 3.8195e-05 4.44972e-05 5.12149e-05 5.83261e-05 6.57684e-05 7.34678e-05 8.12154e-05 8.87937e-05 9.59526e-05 0.00010243 0.00010797 0.000112348 0.000115384 0.000116964 -6.13613e-05 -6.05667e-05 -5.90354e-05 -5.68299e-05 -5.40259e-05 -5.07142e-05 -4.7001e-05 -4.3005e-05 -3.8851e-05 -3.46586e-05 -3.05273e-05 -2.65409e-05 -2.26964e-05 -1.89738e-05 -1.53292e-05 -1.17088e-05 -8.05787e-06 -4.32561e-06 -4.66832e-07 3.55905e-06 7.78998e-06 1.22621e-05 1.70174e-05 2.20987e-05 2.75518e-05 3.34252e-05 3.97677e-05 4.66241e-05 5.40259e-05 6.19757e-05 7.04254e-05 7.92944e-05 8.83374e-05 9.72776e-05 0.000105793 0.000113543 0.000120202 0.000125477 0.000129138 0.000131038 -6.83851e-05 -6.74438e-05 -6.56315e-05 -6.30233e-05 -5.97095e-05 -5.58003e-05 -5.14278e-05 -4.67445e-05 -4.19173e-05 -3.7113e-05 -3.24741e-05 -2.81078e-05 -2.40016e-05 -2.01068e-05 -1.63459e-05 -1.26362e-05 -8.90256e-06 -5.0812e-06 -1.11987e-06 3.02516e-06 7.39336e-06 1.20223e-05 1.69592e-05 2.22544e-05 2.7965e-05 3.41552e-05 4.08968e-05 4.82662e-05 5.63358e-05 6.51543e-05 7.47099e-05 8.49252e-05 9.55063e-05 0.000106092 0.000116259 0.00012557 0.000133603 0.000139983 0.000144414 0.000146707 -7.61392e-05 -7.50235e-05 -7.28765e-05 -6.9786e-05 -6.58572e-05 -6.12206e-05 -5.60367e-05 -5.04988e-05 -4.48306e-05 -3.92717e-05 -3.40396e-05 -2.92844e-05 -2.49669e-05 -2.09788e-05 -1.71858e-05 -1.34641e-05 -9.7132e-06 -5.85669e-06 -1.83822e-06 2.38478e-06 6.8484e-06 1.15876e-05 1.6653e-05 2.21012e-05 2.79994e-05 3.44272e-05 4.1481e-05 4.92765e-05 5.79466e-05 6.76203e-05 7.83679e-05 9.01427e-05 0.000102574 0.000115169 0.000127364 0.000138593 0.000148317 0.000156059 0.00016144 0.000164217 -8.47283e-05 -8.34071e-05 -8.08639e-05 -7.71992e-05 -7.25317e-05 -6.70102e-05 -6.08224e-05 -5.4206e-05 -4.74569e-05 -4.09258e-05 -3.49724e-05 -2.98478e-05 -2.54297e-05 -2.14857e-05 -1.77879e-05 -1.4158e-05 -1.04693e-05 -6.63707e-06 -2.60706e-06 1.65466e-06 6.17238e-06 1.09713e-05 1.61037e-05 2.16319e-05 2.76303e-05 3.41892e-05 4.14251e-05 4.94952e-05 5.86112e-05 6.90364e-05 8.10199e-05 9.46306e-05 0.000109339 0.000124422 0.00013912 0.000152707 0.000164509 0.000173927 0.000180479 0.000183852 -9.42747e-05 -9.27136e-05 -8.97068e-05 -8.53657e-05 -7.98195e-05 -7.32289e-05 -6.58012e-05 -5.78104e-05 -4.96292e-05 -4.17665e-05 -3.4863e-05 -2.94729e-05 -2.51914e-05 -2.15243e-05 -1.81051e-05 -1.46984e-05 -1.11616e-05 -7.41262e-06 -3.40951e-06 8.61982e-07 5.40019e-06 1.02052e-05 1.53359e-05 2.08621e-05 2.68602e-05 3.34204e-05 4.06637e-05 4.87726e-05 5.80391e-05 6.89246e-05 8.20586e-05 9.79269e-05 0.000115546 0.000133763 0.000151557 0.000168031 0.000182371 0.000193842 0.000201831 0.000205938 -0.00010492 -0.000103082 -9.95402e-05 -9.44143e-05 -8.7839e-05 -7.99774e-05 -7.10374e-05 -6.12996e-05 -5.11767e-05 -4.13416e-05 -3.29563e-05 -2.76903e-05 -2.40463e-05 -2.103e-05 -1.81319e-05 -1.50982e-05 -1.18021e-05 -8.18441e-06 -4.22867e-06 4.80057e-08 4.59612e-06 9.34617e-06 1.43971e-05 1.98349e-05 2.57305e-05 3.2155e-05 3.9202e-05 4.70289e-05 5.59459e-05 6.66102e-05 8.03783e-05 9.93662e-05 0.000120932 0.000143157 0.000164757 0.000184723 0.000202127 0.000216087 0.000225835 0.00023084 -0.000116824 -0.000114673 -0.000110523 -0.000104502 -9.67479e-05 -8.74136e-05 -7.66831e-05 -6.47857e-05 -5.20468e-05 -3.90762e-05 -2.75602e-05 -2.39057e-05 -2.19039e-05 -2.00581e-05 -1.79445e-05 -1.54199e-05 -1.24322e-05 -8.97062e-06 -5.05298e-06 -7.29531e-07 3.88582e-06 8.4777e-06 1.33531e-05 1.86199e-05 2.4328e-05 3.0505e-05 3.71739e-05 4.43754e-05 5.22402e-05 6.12651e-05 7.35047e-05 9.81234e-05 0.000125418 0.000152738 0.000178908 0.000202995 0.000224027 0.000240974 0.000252856 0.000258962 -0.000130166 -0.000127664 -0.000122833 -0.000115813 -0.000106741 -9.57581e-05 -8.30109e-05 -6.86284e-05 -5.26612e-05 -3.48647e-05 -1.38279e-05 -1.79936e-05 -1.91459e-05 -1.89078e-05 -1.77346e-05 -1.57828e-05 -1.31249e-05 -9.81177e-06 -5.89174e-06 -1.41722e-06 3.56704e-06 7.6872e-06 1.22674e-05 1.73007e-05 2.27776e-05 2.86646e-05 3.48878e-05 4.12966e-05 4.75605e-05 5.28183e-05 5.4299e-05 9.41241e-05 0.000129637 0.000162996 0.000194341 0.000223106 0.000248336 0.000268818 0.00028328 0.000290733 -0.000145143 -0.000142252 -0.000136668 -0.000128547 -0.000118033 -0.000105266 -9.03776e-05 -7.3459e-05 -5.45045e-05 -3.3285e-05 -9.15244e-06 -1.45125e-05 -1.7215e-05 -1.81462e-05 -1.77727e-05 -1.6335e-05 -1.39697e-05 -1.07688e-05 -6.80582e-06 -2.14695e-06 3.14823e-06 6.87899e-06 1.11587e-05 1.59535e-05 2.12158e-05 2.68658e-05 3.27659e-05 3.86734e-05 4.4141e-05 4.83165e-05 4.96301e-05 9.44094e-05 0.000135809 0.000174792 0.000211468 0.000245314 0.000275287 0.000299909 0.000317488 0.000326598 -0.000161964 -0.000158642 -0.000152231 -0.000142908 -0.000130833 -0.000116165 -9.90484e-05 -7.9601e-05 -5.78848e-05 -3.38821e-05 -7.53782e-06 -1.29845e-05 -1.6374e-05 -1.80285e-05 -1.82328e-05 -1.71896e-05 -1.50409e-05 -1.18937e-05 -7.83586e-06 -2.94707e-06 2.69539e-06 6.05803e-06 1.00573e-05 1.4646e-05 1.97556e-05 2.52841e-05 3.10758e-05 3.68901e-05 4.23564e-05 4.69322e-05 4.99623e-05 9.81381e-05 0.000144282 0.000188471 0.000230515 0.000269769 0.00030503 0.000334476 0.000355828 0.000366998 -0.00018085 -0.000177053 -0.000169731 -0.000159093 -0.000145329 -0.000128629 -0.000109175 -8.71405e-05 -6.26787e-05 -3.59416e-05 -7.14175e-06 -1.26715e-05 -1.64523e-05 -1.85697e-05 -1.91713e-05 -1.84007e-05 -1.6381e-05 -1.32173e-05 -9.00235e-06 -3.82308e-06 2.23299e-06 5.24381e-06 8.99442e-06 1.34285e-05 1.84687e-05 2.40094e-05 2.99054e-05 3.59595e-05 4.1913e-05 4.74625e-05 5.23513e-05 0.000104091 0.000154729 0.000203994 0.000251495 0.000296483 0.0003376 0.000372644 0.000398588 0.000412351 -0.000202035 -0.000197708 -0.000189377 -0.00017729 -0.000161682 -0.000142787 -0.000120837 -9.60663e-05 -6.87093e-05 -3.90222e-05 -7.3254e-06 -1.31088e-05 -1.72262e-05 -1.9687e-05 -2.05685e-05 -1.99716e-05 -1.79989e-05 -1.47476e-05 -1.03091e-05 -4.77196e-06 1.77351e-06 4.45387e-06 7.99449e-06 1.23328e-05 1.73892e-05 2.30643e-05 2.9235e-05 3.57524e-05 4.24471e-05 4.91536e-05 5.57652e-05 0.000111494 0.000166746 0.000221163 0.000274293 0.000325353 0.000372909 0.00041442 0.000445963 0.000463032 -0.000225765 -0.00022084 -0.000211376 -0.000197676 -0.000180032 -0.000158733 -0.000134072 -0.000106342 -7.58402e-05 -4.28842e-05 -7.83634e-06 -1.40357e-05 -1.85158e-05 -2.12754e-05 -2.23671e-05 -2.18704e-05 -1.98749e-05 -1.64706e-05 -1.1745e-05 -5.78402e-06 1.32534e-06 3.70224e-06 7.07513e-06 1.13761e-05 1.65262e-05 2.24354e-05 2.9003e-05 3.61201e-05 4.36775e-05 5.15831e-05 5.97855e-05 0.000119901 0.00018 0.000239751 0.000298725 0.000356196 0.00041076 0.000459664 0.000498027 0.000519357 -0.000252297 -0.000246687 -0.000235932 -0.000220411 -0.000200489 -0.000176529 -0.00014889 -0.000117922 -8.39729e-05 -4.73935e-05 -8.55966e-06 -1.53014e-05 -2.01872e-05 -2.32325e-05 -2.44917e-05 -2.4041e-05 -2.19659e-05 -1.83527e-05 -1.32847e-05 -6.84218e-06 8.95907e-07 3.00171e-06 6.25091e-06 1.05695e-05 1.58787e-05 2.20973e-05 2.91432e-05 3.69372e-05 4.54097e-05 5.4509e-05 6.42085e-05 0.000129035 0.000194229 0.000259528 0.000324578 0.000388774 0.000450865 0.000508091 0.000554696 0.000581557 -0.000281902 -0.000275492 -0.000263241 -0.000245632 -0.000223133 -0.000196198 -0.000165266 -0.000130746 -9.30209e-05 -5.24603e-05 -9.43302e-06 -1.68081e-05 -2.21341e-05 -2.54584e-05 -2.68538e-05 -2.64067e-05 -2.42065e-05 -2.034e-05 -1.4887e-05 -7.92006e-06 4.94137e-07 2.36737e-06 5.53851e-06 9.92488e-06 1.54463e-05 2.20277e-05 2.96014e-05 3.81103e-05 4.75116e-05 5.77804e-05 6.89078e-05 0.000138691 0.000209197 0.00028025 0.000351603 0.000422804 0.00049286 0.000559259 0.000615681 0.000649743 -0.000314865 -0.000307496 -0.000293474 -0.000273432 -0.00024798 -0.000217698 -0.000183116 -0.000144706 -0.000102878 -5.8e-05 -1.04126e-05 -1.84768e-05 -2.42579e-05 -2.78471e-05 -2.93485e-05 -2.88684e-05 -2.65075e-05 -2.23564e-05 -1.64924e-05 -8.9792e-06 1.32817e-07 1.82056e-06 4.96189e-06 9.46208e-06 1.52371e-05 2.22159e-05 3.03415e-05 3.95738e-05 4.98906e-05 6.12894e-05 7.3781e-05 0.000148685 0.000224661 0.000301638 0.000379488 0.00045794 0.000536306 0.000612578 0.000680437 0.000723865 -0.000351482 -0.000342929 -0.000326757 -0.000303824 -0.000274949 -0.000240879 -0.000202258 -0.000159617 -0.000113384 -6.39025e-05 -1.14558e-05 -2.02262e-05 -2.64491e-05 -3.02738e-05 -3.1846e-05 -3.12995e-05 -2.87513e-05 -2.42992e-05 -1.80194e-05 -9.96559e-06 -1.68882e-07 1.39258e-06 4.55652e-06 9.21296e-06 1.52723e-05 2.26656e-05 3.1345e-05 4.12839e-05 5.24787e-05 6.49477e-05 7.87265e-05 0.000158818 0.000240337 0.000323336 0.000407827 0.000493723 0.000580661 0.000667299 0.000748103 0.000803638 -0.000392054 -0.000381983 -0.000363121 -0.000336683 -0.000303794 -0.000265425 -0.000222352 -0.000175164 -0.000124285 -7.00026e-05 -1.25086e-05 -2.19542e-05 -2.85719e-05 -3.2583e-05 -3.41833e-05 -3.35395e-05 -3.07883e-05 -2.60366e-05 -1.93612e-05 -1.08066e-05 -3.83089e-07 1.12741e-06 4.37161e-06 9.22285e-06 1.55859e-05 2.33942e-05 3.26077e-05 4.32125e-05 5.52212e-05 6.86736e-05 8.36336e-05 0.000168864 0.000255884 0.000344894 0.000436071 0.00052953 0.000625218 0.000722504 0.000817419 0.000888444 -0.000436872 -0.000424762 -0.000402416 -0.000371635 -0.000333997 -0.000290756 -0.00024283 -0.000190843 -0.000135183 -7.60487e-05 -1.34931e-05 -2.35225e-05 -3.04489e-05 -3.45778e-05 -3.61591e-05 -3.53932e-05 -3.2437e-05 -2.74083e-05 -2.03865e-05 -1.14103e-05 -4.71922e-07 1.08175e-06 4.4681e-06 9.54664e-06 1.62198e-05 2.44254e-05 3.41319e-05 4.53372e-05 5.80684e-05 7.23846e-05 8.83786e-05 0.000178562 0.000270894 0.000365748 0.000463503 0.000564509 0.000669019 0.000777049 0.000886633 0.000977164 -0.000486179 -0.000471167 -0.000444137 -0.00040788 -0.000364611 -0.000315908 -0.000262798 -0.000205892 -0.000145494 -8.16702e-05 -1.42943e-05 -2.4743e-05 -3.18551e-05 -3.60215e-05 -3.75406e-05 -3.66411e-05 -3.34974e-05 -2.82383e-05 -2.09497e-05 -1.1672e-05 -3.89257e-07 1.31892e-06 4.9084e-06 1.02356e-05 1.72086e-05 2.57741e-05 3.59109e-05 4.76274e-05 6.09625e-05 7.59895e-05 9.28243e-05 0.000187616 0.000284891 0.000385223 0.000489223 0.000597537 0.000710741 0.00082948 0.000953394 0.00106793 -0.000540066 -0.000520623 -0.000487084 -0.000443885 -0.000394039 -0.000339387 -0.000280958 -0.000219253 -0.000154422 -8.63621e-05 -1.47509e-05 -2.53796e-05 -3.25336e-05 -3.66642e-05 -3.80976e-05 -3.70776e-05 -3.37892e-05 -2.83715e-05 -2.09222e-05 -1.14957e-05 -9.00235e-08 1.88995e-06 5.73113e-06 1.13089e-05 1.85501e-05 2.74171e-05 3.79009e-05 5.00193e-05 6.38182e-05 7.9376e-05 9.68183e-05 0.000195694 0.000297334 0.000402535 0.000512164 0.000627219 0.000748615 0.000877886 0.00101467 0.00115771 -0.00059814 -0.000571416 -0.000528708 -0.000476931 -0.000419784 -0.000359081 -0.000295611 -0.000229616 -0.000161018 -8.95307e-05 -1.46705e-05 -2.51975e-05 -3.22687e-05 -3.63282e-05 -3.76917e-05 -3.65986e-05 -3.32358e-05 -2.7751e-05 -2.02595e-05 -1.08456e-05 4.44486e-07 2.79156e-06 6.90168e-06 1.27026e-05 2.01559e-05 2.92464e-05 3.99786e-05 5.23774e-05 6.64904e-05 8.23894e-05 0.000100189 0.000202427 0.000307632 0.000416825 0.000531127 0.000651937 0.000780443 0.000919706 0.00106681 0.00124157 -0.000658303 -0.000618992 -0.00056398 -0.000502649 -0.000438433 -0.000372462 -0.000304952 -0.000235739 -0.000164478 -9.07196e-05 -1.39336e-05 -2.41355e-05 -3.10812e-05 -3.51009e-05 -3.64574e-05 -3.53684e-05 -3.20161e-05 -2.65553e-05 -1.91221e-05 -9.84308e-06 1.15201e-06 3.88904e-06 8.2316e-06 1.41935e-05 2.1782e-05 3.10062e-05 4.18834e-05 5.4443e-05 6.87294e-05 8.4799e-05 0.000102732 0.000207404 0.000315149 0.000427193 0.000544866 0.000669949 0.000803805 0.000951466 0.00110613 0.00131137 -0.000711278 -0.00065218 -0.000584475 -0.000515617 -0.000446776 -0.000377789 -0.000308182 -0.000237414 -0.000164938 -9.02291e-05 -1.28316e-05 -2.27208e-05 -2.96154e-05 -3.36705e-05 -3.50875e-05 -3.40631e-05 -3.07753e-05 -2.53842e-05 -1.8042e-05 -8.912e-06 1.79097e-06 4.80319e-06 9.27764e-06 1.53139e-05 2.29564e-05 3.22312e-05 4.31635e-05 5.57848e-05 7.01351e-05 8.62566e-05 0.000104188 0.000210161 0.000319235 0.000432765 0.00055222 0.000679569 0.000816487 0.000968719 0.00112976 0.00135395 0 0 0 0 0 0 0 0 0 0 0 0 0 0 0 0 0 0 0 0 0 0 0 0 0 0 0 0 0 0 0 0 0 0 0 0 0 0 0 0 -2.57408e-06 -2.55221e-06 -2.50881e-06 -2.44452e-06 -2.36019e-06 -2.25688e-06 -2.13577e-06 -1.99815e-06 -1.84529e-06 -1.67847e-06 -1.49886e-06 -1.30886e-06 -1.10804e-06 -8.97123e-07 -6.76677e-07 -4.47105e-07 -2.08672e-07 3.84545e-08 2.94167e-07 5.58362e-07 8.30883e-07 1.11186e-06 1.40045e-06 1.69598e-06 1.99744e-06 2.30351e-06 2.61241e-06 2.92196e-06 3.2295e-06 3.53194e-06 3.82578e-06 4.11038e-06 4.37842e-06 4.62568e-06 4.84796e-06 5.04122e-06 5.20179e-06 5.32649e-06 5.41279e-06 5.45894e-06 -