# vtk DataFile Version 2.0
Velocidades
ASCII

DATASET STRUCTURED_GRID
DIMENSIONS   40   40   20

POINTS   32000   double
0.0125   0.0125   0.025
0.0125   0.0375   0.025
0.0125   0.0625   0.025
0.0125   0.0875   0.025
0.0125   0.1125   0.025
0.0125   0.1375   0.025
0.0125   0.1625   0.025
0.0125   0.1875   0.025
0.0125   0.2125   0.025
0.0125   0.2375   0.025
0.0125   0.2625   0.025
0.0125   0.2875   0.025
0.0125   0.3125   0.025
0.0125   0.3375   0.025
0.0125   0.3625   0.025
0.0125   0.3875   0.025
0.0125   0.4125   0.025
0.0125   0.4375   0.025
0.0125   0.4625   0.025
0.0125   0.4875   0.025
0.0125   0.5125   0.025
0.0125   0.5375   0.025
0.0125   0.5625   0.025
0.0125   0.5875   0.025
0.0125   0.6125   0.025
0.0125   0.6375   0.025
0.0125   0.6625   0.025
0.0125   0.6875   0.025
0.0125   0.7125   0.025
0.0125   0.7375   0.025
0.0125   0.7625   0.025
0.0125   0.7875   0.025
0.0125   0.8125   0.025
0.0125   0.8375   0.025
0.0125   0.8625   0.025
0.0125   0.8875   0.025
0.0125   0.9125   0.025
0.0125   0.9375   0.025
0.0125   0.9625   0.025
0.0125   0.9875   0.025
0.0375   0.0125   0.025
0.0375   0.0375   0.025
0.0375   0.0625   0.025
0.0375   0.0875   0.025
0.0375   0.1125   0.025
0.0375   0.1375   0.025
0.0375   0.1625   0.025
0.0375   0.1875   0.025
0.0375   0.2125   0.025
0.0375   0.2375   0.025
0.0375   0.2625   0.025
0.0375   0.2875   0.025
0.0375   0.3125   0.025
0.0375   0.3375   0.025
0.0375   0.3625   0.025
0.0375   0.3875   0.025
0.0375   0.4125   0.025
0.0375   0.4375   0.025
0.0375   0.4625   0.025
0.0375   0.4875   0.025
0.0375   0.5125   0.025
0.0375   0.5375   0.025
0.0375   0.5625   0.025
0.0375   0.5875   0.025
0.0375   0.6125   0.025
0.0375   0.6375   0.025
0.0375   0.6625   0.025
0.0375   0.6875   0.025
0.0375   0.7125   0.025
0.0375   0.7375   0.025
0.0375   0.7625   0.025
0.0375   0.7875   0.025
0.0375   0.8125   0.025
0.0375   0.8375   0.025
0.0375   0.8625   0.025
0.0375   0.8875   0.025
0.0375   0.9125   0.025
0.0375   0.9375   0.025
0.0375   0.9625   0.025
0.0375   0.9875   0.025
0.0625   0.0125   0.025
0.0625   0.0375   0.025
0.0625   0.0625   0.025
0.0625   0.0875   0.025
0.0625   0.1125   0.025
0.0625   0.1375   0.025
0.0625   0.1625   0.025
0.0625   0.1875   0.025
0.0625   0.2125   0.025
0.0625   0.2375   0.025
0.0625   0.2625   0.025
0.0625   0.2875   0.025
0.0625   0.3125   0.025
0.0625   0.3375   0.025
0.0625   0.3625   0.025
0.0625   0.3875   0.025
0.0625   0.4125   0.025
0.0625   0.4375   0.025
0.0625   0.4625   0.025
0.0625   0.4875   0.025
0.0625   0.5125   0.025
0.0625   0.5375   0.025
0.0625   0.5625   0.025
0.0625   0.5875   0.025
0.0625   0.6125   0.025
0.0625   0.6375   0.025
0.0625   0.6625   0.025
0.0625   0.6875   0.025
0.0625   0.7125   0.025
0.0625   0.7375   0.025
0.0625   0.7625   0.025
0.0625   0.7875   0.025
0.0625   0.8125   0.025
0.0625   0.8375   0.025
0.0625   0.8625   0.025
0.0625   0.8875   0.025
0.0625   0.9125   0.025
0.0625   0.9375   0.025
0.0625   0.9625   0.025
0.0625   0.9875   0.025
0.0875   0.0125   0.025
0.0875   0.0375   0.025
0.0875   0.0625   0.025
0.0875   0.0875   0.025
0.0875   0.1125   0.025
0.0875   0.1375   0.025
0.0875   0.1625   0.025
0.0875   0.1875   0.025
0.0875   0.2125   0.025
0.0875   0.2375   0.025
0.0875   0.2625   0.025
0.0875   0.2875   0.025
0.0875   0.3125   0.025
0.0875   0.3375   0.025
0.0875   0.3625   0.025
0.0875   0.3875   0.025
0.0875   0.4125   0.025
0.0875   0.4375   0.025
0.0875   0.4625   0.025
0.0875   0.4875   0.025
0.0875   0.5125   0.025
0.0875   0.5375   0.025
0.0875   0.5625   0.025
0.0875   0.5875   0.025
0.0875   0.6125   0.025
0.0875   0.6375   0.025
0.0875   0.6625   0.025
0.0875   0.6875   0.025
0.0875   0.7125   0.025
0.0875   0.7375   0.025
0.0875   0.7625   0.025
0.0875   0.7875   0.025
0.0875   0.8125   0.025
0.0875   0.8375   0.025
0.0875   0.8625   0.025
0.0875   0.8875   0.025
0.0875   0.9125   0.025
0.0875   0.9375   0.025
0.0875   0.9625   0.025
0.0875   0.9875   0.025
0.1125   0.0125   0.025
0.1125   0.0375   0.025
0.1125   0.0625   0.025
0.1125   0.0875   0.025
0.1125   0.1125   0.025
0.1125   0.1375   0.025
0.1125   0.1625   0.025
0.1125   0.1875   0.025
0.1125   0.2125   0.025
0.1125   0.2375   0.025
0.1125   0.2625   0.025
0.1125   0.2875   0.025
0.1125   0.3125   0.025
0.1125   0.3375   0.025
0.1125   0.3625   0.025
0.1125   0.3875   0.025
0.1125   0.4125   0.025
0.1125   0.4375   0.025
0.1125   0.4625   0.025
0.1125   0.4875   0.025
0.1125   0.5125   0.025
0.1125   0.5375   0.025
0.1125   0.5625   0.025
0.1125   0.5875   0.025
0.1125   0.6125   0.025
0.1125   0.6375   0.025
0.1125   0.6625   0.025
0.1125   0.6875   0.025
0.1125   0.7125   0.025
0.1125   0.7375   0.025
0.1125   0.7625   0.025
0.1125   0.7875   0.025
0.1125   0.8125   0.025
0.1125   0.8375   0.025
0.1125   0.8625   0.025
0.1125   0.8875   0.025
0.1125   0.9125   0.025
0.1125   0.9375   0.025
0.1125   0.9625   0.025
0.1125   0.9875   0.025
0.1375   0.0125   0.025
0.1375   0.0375   0.025
0.1375   0.0625   0.025
0.1375   0.0875   0.025
0.1375   0.1125   0.025
0.1375   0.1375   0.025
0.1375   0.1625   0.025
0.1375   0.1875   0.025
0.1375   0.2125   0.025
0.1375   0.2375   0.025
0.1375   0.2625   0.025
0.1375   0.2875   0.025
0.1375   0.3125   0.025
0.1375   0.3375   0.025
0.1375   0.3625   0.025
0.1375   0.3875   0.025
0.1375   0.4125   0.025
0.1375   0.4375   0.025
0.1375   0.4625   0.025
0.1375   0.4875   0.025
0.1375   0.5125   0.025
0.1375   0.5375   0.025
0.1375   0.5625   0.025
0.1375   0.5875   0.025
0.1375   0.6125   0.025
0.1375   0.6375   0.025
0.1375   0.6625   0.025
0.1375   0.6875   0.025
0.1375   0.7125   0.025
0.1375   0.7375   0.025
0.1375   0.7625   0.025
0.1375   0.7875   0.025
0.1375   0.8125   0.025
0.1375   0.8375   0.025
0.1375   0.8625   0.025
0.1375   0.8875   0.025
0.1375   0.9125   0.025
0.1375   0.9375   0.025
0.1375   0.9625   0.025
0.1375   0.9875   0.025
0.1625   0.0125   0.025
0.1625   0.0375   0.025
0.1625   0.0625   0.025
0.1625   0.0875   0.025
0.1625   0.1125   0.025
0.1625   0.1375   0.025
0.1625   0.1625   0.025
0.1625   0.1875   0.025
0.1625   0.2125   0.025
0.1625   0.2375   0.025
0.1625   0.2625   0.025
0.1625   0.2875   0.025
0.1625   0.3125   0.025
0.1625   0.3375   0.025
0.1625   0.3625   0.025
0.1625   0.3875   0.025
0.1625   0.4125   0.025
0.1625   0.4375   0.025
0.1625   0.4625   0.025
0.1625   0.4875   0.025
0.1625   0.5125   0.025
0.1625   0.5375   0.025
0.1625   0.5625   0.025
0.1625   0.5875   0.025
0.1625   0.6125   0.025
0.1625   0.6375   0.025
0.1625   0.6625   0.025
0.1625   0.6875   0.025
0.1625   0.7125   0.025
0.1625   0.7375   0.025
0.1625   0.7625   0.025
0.1625   0.7875   0.025
0.1625   0.8125   0.025
0.1625   0.8375   0.025
0.1625   0.8625   0.025
0.1625   0.8875   0.025
0.1625   0.9125   0.025
0.1625   0.9375   0.025
0.1625   0.9625   0.025
0.1625   0.9875   0.025
0.1875   0.0125   0.025
0.1875   0.0375   0.025
0.1875   0.0625   0.025
0.1875   0.0875   0.025
0.1875   0.1125   0.025
0.1875   0.1375   0.025
0.1875   0.1625   0.025
0.1875   0.1875   0.025
0.1875   0.2125   0.025
0.1875   0.2375   0.025
0.1875   0.2625   0.025
0.1875   0.2875   0.025
0.1875   0.3125   0.025
0.1875   0.3375   0.025
0.1875   0.3625   0.025
0.1875   0.3875   0.025
0.1875   0.4125   0.025
0.1875   0.4375   0.025
0.1875   0.4625   0.025
0.1875   0.4875   0.025
0.1875   0.5125   0.025
0.1875   0.5375   0.025
0.1875   0.5625   0.025
0.1875   0.5875   0.025
0.1875   0.6125   0.025
0.1875   0.6375   0.025
0.1875   0.6625   0.025
0.1875   0.6875   0.025
0.1875   0.7125   0.025
0.1875   0.7375   0.025
0.1875   0.7625   0.025
0.1875   0.7875   0.025
0.1875   0.8125   0.025
0.1875   0.8375   0.025
0.1875   0.8625   0.025
0.1875   0.8875   0.025
0.1875   0.9125   0.025
0.1875   0.9375   0.025
0.1875   0.9625   0.025
0.1875   0.9875   0.025
0.2125   0.0125   0.025
0.2125   0.0375   0.025
0.2125   0.0625   0.025
0.2125   0.0875   0.025
0.2125   0.1125   0.025
0.2125   0.1375   0.025
0.2125   0.1625   0.025
0.2125   0.1875   0.025
0.2125   0.2125   0.025
0.2125   0.2375   0.025
0.2125   0.2625   0.025
0.2125   0.2875   0.025
0.2125   0.3125   0.025
0.2125   0.3375   0.025
0.2125   0.3625   0.025
0.2125   0.3875   0.025
0.2125   0.4125   0.025
0.2125   0.4375   0.025
0.2125   0.4625   0.025
0.2125   0.4875   0.025
0.2125   0.5125   0.025
0.2125   0.5375   0.025
0.2125   0.5625   0.025
0.2125   0.5875   0.025
0.2125   0.6125   0.025
0.2125   0.6375   0.025
0.2125   0.6625   0.025
0.2125   0.6875   0.025
0.2125   0.7125   0.025
0.2125   0.7375   0.025
0.2125   0.7625   0.025
0.2125   0.7875   0.025
0.2125   0.8125   0.025
0.2125   0.8375   0.025
0.2125   0.8625   0.025
0.2125   0.8875   0.025
0.2125   0.9125   0.025
0.2125   0.9375   0.025
0.2125   0.9625   0.025
0.2125   0.9875   0.025
0.2375   0.0125   0.025
0.2375   0.0375   0.025
0.2375   0.0625   0.025
0.2375   0.0875   0.025
0.2375   0.1125   0.025
0.2375   0.1375   0.025
0.2375   0.1625   0.025
0.2375   0.1875   0.025
0.2375   0.2125   0.025
0.2375   0.2375   0.025
0.2375   0.2625   0.025
0.2375   0.2875   0.025
0.2375   0.3125   0.025
0.2375   0.3375   0.025
0.2375   0.3625   0.025
0.2375   0.3875   0.025
0.2375   0.4125   0.025
0.2375   0.4375   0.025
0.2375   0.4625   0.025
0.2375   0.4875   0.025
0.2375   0.5125   0.025
0.2375   0.5375   0.025
0.2375   0.5625   0.025
0.2375   0.5875   0.025
0.2375   0.6125   0.025
0.2375   0.6375   0.025
0.2375   0.6625   0.025
0.2375   0.6875   0.025
0.2375   0.7125   0.025
0.2375   0.7375   0.025
0.2375   0.7625   0.025
0.2375   0.7875   0.025
0.2375   0.8125   0.025
0.2375   0.8375   0.025
0.2375   0.8625   0.025
0.2375   0.8875   0.025
0.2375   0.9125   0.025
0.2375   0.9375   0.025
0.2375   0.9625   0.025
0.2375   0.9875   0.025
0.2625   0.0125   0.025
0.2625   0.0375   0.025
0.2625   0.0625   0.025
0.2625   0.0875   0.025
0.2625   0.1125   0.025
0.2625   0.1375   0.025
0.2625   0.1625   0.025
0.2625   0.1875   0.025
0.2625   0.2125   0.025
0.2625   0.2375   0.025
0.2625   0.2625   0.025
[...]
POINT_DATA   32000
VECTORS Velocidades double

6.48748e-05 0.00120992 0
0.000254174 0.0021651 0
0.000151934 0.00175578 0
-7.947e-07 0.00159551 0
-0.000150761 0.00172889 0
-0.000288224 0.0021382 0
-0.000412889 0.0027963 0
-0.000526036 0.00367759 0
-0.000628818 0.00475936 0
-0.000721969 0.00602114 0
-0.000805821 0.00744386 0
-0.00088037 0.00900904 0
-0.000945357 0.0106982 0
-0.00100035 0.0124925 0
-0.00104484 0.0143724 0
-0.00107834 0.0163175 0
-0.0011005 0.018307 0
-0.00111122 0.0203198 0
-0.00111081 0.0223353 0
-0.00110014 0.0243345 0
-0.00108078 0.0263008 0
-0.0010552 0.028222 0
-0.00102706 0.0300919 0
-0.00100148 0.0319135 0
-0.000985558 0.0337018 0
-0.000989102 0.0354886 0
-0.0010258 0.0373289 0
-0.00111508 0.0393109 0
-0.00128509 0.0415697 0
-0.00157743 0.0443098 0
-0.00205498 0.0478402 0
-0.00281444 0.0526293 0
-0.00400732 0.0593944 0
-0.00587402 0.0692471 0
-0.00879352 0.0839225 0
-0.0133169 0.106094 0
-0.0199258 0.139481 0
-0.0268849 0.186567 0
-0.0163082 0.230241 0
0.124138 0.123426 0
0.000137163 0.00264581 0
0.000574342 0.00522531 0
0.000251151 0.00520945 0
-0.000288919 0.00554175 0
-0.000866845 0.00637896 0
-0.00142513 0.0077676 0
-0.00194664 0.00970004 0
-0.00242738 0.012146 0
-0.00286724 0.0150666 0
-0.00326678 0.0184201 0
-0.00362611 0.0221635 0
-0.00394463 0.026253 0
-0.00422103 0.0306437 0
-0.00445352 0.035289 0
-0.00464008 0.0401411 0
-0.00477891 0.0451502 0
-0.00486887 0.0502659 0
-0.00490997 0.0554374 0
-0.00490395 0.0606158 0
-0.00485491 0.0657558 0
-0.00477003 0.070819 0
-0.00466033 0.0757771 0
-0.00454174 0.0806166 0
-0.00443635 0.0853448 0
-0.00437427 0.0899966 0
-0.00439635 0.0946445 0
-0.00455818 0.0994098 0
-0.00493614 0.10448 0
-0.00563636 0.11013 0
-0.00680781 0.116749 0
-0.00866086 0.124878 0
-0.0114922 0.135246 0
-0.0157139 0.148794 0
-0.0218731 0.166641 0
-0.0305991 0.189845 0
-0.042221 0.218565 0
-0.0549949 0.249483 0
-0.0574454 0.268577 0
0.00402154 0.23605 0
0.348639 0.0998421 0
7.32513e-05 0.00386058 0
0.000440378 0.00792258 0
-0.000205396 0.00852759 0
-0.00127153 0.00962347 0
-0.00247034 0.0113472 0
-0.00367259 0.0137659 0
-0.00482294 0.0168918 0
-0.00589867 0.0207034 0
-0.00689077 0.0251609 0
-0.00779532 0.0302149 0
-0.00860969 0.0358103 0
-0.00933097 0.0418887 0
-0.00995552 0.0483883 0
-0.010479 0.0552447 0
-0.0108972 0.0623908 0
-0.011206 0.0697572 0
-0.0114035 0.0772727 0
-0.0114899 0.0848664 0
-0.0114696 0.0924689 0
-0.011352 0.100016 0
-0.0111535 0.107451 0
-0.0108987 0.114731 0
-0.0106226 0.121831 0
-0.0103736 0.128751 0
-0.0102161 0.135525 0
-0.010236 0.142228 0
-0.0105467 0.148988 0
-0.011298 0.156 0
-0.0126881 0.163536 0
-0.0149775 0.171958 0
-0.0185022 0.181712 0
-0.0236775 0.193302 0
-0.0309659 0.207188 0
-0.0407394 0.223529 0
-0.0528384 0.241584 0
-0.0652542 0.258386 0
-0.0702113 0.266083 0
-0.0425926 0.247883 0
0.0914551 0.178969 0
0.51364 0.0642161 0
-0.000145147 0.00499943 0
-0.000204748 0.0104483 0
-0.00136654 0.0116581 0
-0.0030784 0.0135306 0
-0.00500861 0.0161405 0
-0.00697541 0.0195358 0
-0.00888458 0.0237286 0
-0.0106889 0.0287015 0
-0.0123646 0.0344172 0
-0.0138991 0.0408249 0
-0.0152838 0.0478652 0
-0.0165114 0.0554727 0
-0.0175742 0.0635769 0
-0.0184643 0.0721031 0
-0.0191738 0.0809723 0
-0.019696 0.0901024 0
-0.0200271 0.0994088 0
-0.0201675 0.108806 0
-0.0201238 0.118209 0
-0.0199113 0.127537 0
-0.0195559 0.136717 0
-0.0190971 0.145689 0
-0.0185904 0.15441 0
-0.0181114 0.162858 0
-0.0177597 0.171044 0
-0.0176644 0.179012 0
-0.0179907 0.186852 0
-0.0189482 0.194696 0
-0.0207978 0.202723 0
-0.0238558 0.21114 0
-0.0284828 0.220149 0
-0.0350355 0.229861 0
-0.0437273 0.240122 0
-0.0542728 0.250169 0
-0.0650256 0.258 0
-0.0709116 0.259285 0
-0.0585485 0.24592 0
0.00462461 0.205739 0
0.189878 0.129821 0
0.619857 0.0412217 0
-0.000503911 0.00606373 0
-0.001302 0.0127874 0
-0.00318983 0.0145201 0
-0.00567267 0.0170808 0
-0.00841795 0.0204804 0
-0.0112194 0.0247314 0
-0.013956 0.0298312 0
-0.0165589 0.0357584 0
-0.0189891 0.0424754 0
-0.021223 0.049932 0
-0.0232442 0.0580684 0
-0.0250391 0.0668171 0
-0.0265946 0.0761044 0
-0.0278976 0.0858506 0
-0.0289353 0.0959708 0
-0.0296973 0.106375 0
-0.0301765 0.11697 0
-0.0303721 0.127658 0
-0.0302918 0.138342 0
-0.0299551 0.148927 0
-0.0293959 0.159323 0
-0.028666 0.169447 0
-0.0278386 0.179233 0
-0.0270119 0.188628 0
-0.0263136 0.197605 0
-0.0259051 0.206157 0
-0.025986 0.214306 0
-0.0267975 0.22209 0
-0.0286197 0.229557 0
-0.031758 0.236731 0
-0.0364983 0.243554 0
-0.0429974 0.249788 0
-0.0510345 0.254819 0
-0.0594709 0.257356 0
-0.0651038 0.25494 0
-0.0602999 0.243329 0
-0.0283449 0.216184 0
0.0645315 0.166736 0
0.277972 0.0954385 0
0.689358 0.0276053 0
-0.000979033 0.00702425 0
-0.00277212 0.0148781 0
-0.00557254 0.0170356 0
-0.00894334 0.0201616 0
-0.0125731 0.0242136 0
-0.0162533 0.0291668 0
-0.0198505 0.0349975 0
-0.0232821 0.0416744 0
-0.0264967 0.0491569 0
-0.0294606 0.0573949 0
-0.0321493 0.0663297 0
-0.0345417 0.0758949 0
-0.0366178 0.0860167 0
-0.0383582 0.0966146 0
-0.039744 0.107601 0
-0.0407588 0.118881 0
-0.0413908 0.130356 0
-0.0416356 0.141919 0
-0.0414999 0.153462 0
-0.0410042 0.164876 0
-0.040187 0.176051 0
-0.0391083 0.186883 0
-0.0378532 0.197277 0
-0.0365353 0.207144 0
-0.0353 0.216411 0
-0.0343266 0.225016 0
-0.0338292 0.232902 0
-0.0340524 0.240012 0
-0.035258 0.246268 0
-0.0376902 0.251532 0
-0.0414985 0.255548 0
-0.0465739 0.257844 0
-0.0522161 0.257568 0
-0.0564744 0.253261 0
-0.0548844 0.242561 0
-0.0381593 0.221983 0
0.0116302 0.187295 0
0.126007 0.135765 0
0.352031 0.0722904 0
0.737027 0.0194629 0
-0.00154523 0.00785084 0
-0.00453472 0.0166616 0
-0.00839805 0.0191459 0
-0.0127542 0.0227081 0
-0.0173235 0.0272638 0
-0.0219095 0.0327556 0
-0.0263793 0.039138 0
-0.0306452 0.0463682 0
-0.0346484 0.0544007 0
-0.0383478 0.0631849 0
-0.0417111 0.0726639 0
-0.04471 0.0827738 0
-0.0473169 0.0934432 0
-0.0495045 0.104593 0
-0.051246 0.116134 0
-0.0525172 0.127972 0
-0.0532992 0.140001 0
-0.0535816 0.152107 0
-0.0533663 0.164174 0
-0.0526718 0.176075 0
-0.0515366 0.187684 0
-0.0500237 0.198874 0
-0.0482238 0.209519 0
-0.0462578 0.219496 0
-0.0442784 0.228686 0
-0.0424701 0.236969 0
-0.0410444 0.244223 0
-0.0402293 0.250305 0
-0.0402434 0.255039 0
-0.0412442 0.25817 0
-0.0432232 0.259321 0
-0.045802 0.257903 0
-0.0478456 0.252999 0
-0.046748 0.243215 0
-0.0371742 0.226539 0
-0.00900866 0.200398 0
0.0554958 0.162338 0
0.184276 0.112199 0
0.413578 0.0565908 0
0.771457 0.0144245 0
-0.00217886 0.00851981 0
-0.00651436 0.0180936 0
-0.0115525 0.0208132 0
-0.0169663 0.0246879 0
-0.0225134 0.0296018 0
-0.0280187 0.0354711 0
-0.0333593 0.0422319 0
-0.03845 0.0498303 0
-0.0432305 0.0582161 0
-0.0476552 0.0673385 0
-0.0516862 0.0771428 0
-0.0552879 0.0875688 0
-0.0584246 0.0985486 0
-0.0610601 0.110006 0
-0.0631578 0.121853 0
-0.0646837 0.133994 0
-0.0656088 0.146319 0
-0.0659137 0.158711 0
-0.0655922 0.17104 0
-0.0646564 0.183167 0
-0.0631409 0.194949 0
-0.0611064 0.206235 0
-0.058643 0.216871 0
-0.0558719 0.226702 0
-0.0529452 0.235567 0
-0.0500425 0.2433 0
-0.0473623 0.249723 0
-0.0451042 0.254632 0
-0.0434336 0.257781 0
-0.0424156 0.25885 0
-0.0418901 0.2574 0
-0.0412413 0.252817 0
-0.0389826 0.244223 0
-0.0320338 0.2304 0
-0.0145427 0.209758 0
0.0238323 0.180546 0
0.0998903 0.141627 0
0.237755 0.0943478 0
0.465072 0.045683 0
0.797548 0.0111727 0
-0.00285889 0.00901465 0
-0.00864283 0.0191449 0
-0.0149305 0.0220168 0
-0.0214482 0.0260899 0
-0.0279932 0.0312253 0
-0.0344181 0.0373197 0
-0.0406169 0.0442951 0
-0.0465135 0.0520892 0
-0.0520508 0.0606489 0
-0.0571824 0.0699238 0
-0.0618663 0.0798626 0
-0.0660606 0.0904096 0
-0.0697212 0.101502 0
-0.0728014 0.113066 0
-0.0752534 0.125018 0
-0.0770305 0.13726 0
-0.0780913 0.149682 0
-0.0784036 0.162159 0
-0.0779499 0.174553 0
-0.0767321 0.186713 0
-0.0747763 0.198477 0
-0.0721365 0.209674 0
-0.0688976 0.220127 0
-0.0651759 0.229649 0
-0.0611172 0.238048 0
-0.0568909 0.24512 0
-0.0526772 0.250648 0
-0.0486439 0.254386 0
-0.0449033 0.25605 0
-0.0414355 0.255289 0
-0.0379497 0.251654 0
-0.0336381 0.244554 0
-0.0267512 0.233205 0
-0.0138972 0.216598 0
0.0110189 0.193543 0
0.0581727 0.162954 0
0.143061 0.124606 0
0.286244 0.0806642 0
0.508706 0.0378658 0
0.818151 0.00897784 0
-0.00356688 0.00932475 0
-0.0108595 0.0197979 0
-0.018437 0.0227476 0
-0.0260782 0.0269151 0
-0.0336226 0.0321456 0
-0.0409544 0.0383228 0
-0.0479898 0.0453597 0
-0.0546666 0.0531894 0
-0.0609351 0.0617579 0
-0.0667512 0.0710175 0
-0.0720707 0.0809216 0
-0.0768458 0.09142 0
-0.0810235 0.102455 0
-0.0845458 0.113959 0
-0.0873512 0.125851 0
-0.0893785 0.138035 0
-0.0905702 0.150397 0
-0.0908787 0.162808 0
-0.0902713 0.175121 0
-0.0887362 0.187174 0
-0.0862872 0.19879 0
-0.0829683 0.20978 0
-0.0788555 0.219943 0
-0.0740571 0.229071 0
-0.0687098 0.236945 0
-0.0629709 0.243335 0
-0.0570019 0.247997 0
-0.0509406 0.250665 0
-0.044853 0.251035 0
-0.0386476 0.248754 0
-0.0319287 0.24339 0
-0.0237423 0.234404 0
-0.0121551 0.221122 0
0.00640584 0.20274 0
0.0380811 0.178409 0
0.0926438 0.147549 0
0.184171 0.110546 0
0.33007 0.0699671 0
0.546192 0.0320719 0
0.834969 0.00742786 0
-0.00428669 0.00944393 0
-0.0131105 0.020043 0
-0.0219859 0.0230033 0
-0.030745 0.02717 0
-0.0392716 0.0323787 0
-0.0474847 0.0385062 0
-0.0553264 0.0454615 0
-0.0627525 0.0531771 0
-0.069724 0.0616015 0
-0.0762012 0.0706918 0
-0.0821391 0.0804078 0
-0.0874846 0.0907065 0
-0.0921754 0.101538 0
-0.0961406 0.112839 0
-0.0993035 0.124533 0
-0.101585 0.136527 0
-0.102909 0.148705 0
-0.10321 0.160934 0
-0.102435 0.173061 0
-0.100557 0.184912 0
-0.0975734 0.196296 0
-0.0935158 0.207009 0
-0.0884493 0.216834 0
-0.0824726 0.225541 0
-0.075713 0.232894 0
-0.0683163 0.238645 0
-0.0604278 0.242536 0
-0.0521612 0.244289 0
-0.0435447 0.243604 0
-0.0344313 0.240135 0
-0.024345 0.233484 0
-0.0122263 0.223174 0
0.00397759 0.208642 0
0.027921 0.189262 0
0.0656546 0.164464 0
0.126417 0.134044 0
0.222876 0.0987825 0
0.36971 0.0614066 0
0.578798 0.0276282 0
0.849057 0.00628407 0
-0.00500384 0.00936923 0
-0.0153469 0.0198765 0
-0.0254987 0.0227852 0
-0.035346 0.0268628 0
-0.0448193 0.0319406 0
-0.0538752 0.037894 0
-0.062485 0.044633 0
-0.0706249 0.0520938 0
-0.0782692 0.0602305 0
-0.0853845 0.0690078 0
-0.091926 0.0783941 0
-0.0978353 0.0883551 0
-0.10304 0.0988489 0
-0.107455 0.109821 0
-0.110986 0.121198 0
-0.113534 0.132891 0
-0.115002 0.144785 0
-0.1153 0.156743 0
-0.114356 0.168605 0
-0.112122 0.180189 0
-0.108577 0.191294 0
-0.103739 0.2017 0
-0.0976614 0.211177 0
-0.0904321 0.21948 0
-0.0821706 0.22636 0
-0.0730138 0.231559 0
-0.0630953 0.234811 0
-0.0525111 0.23584 0
-0.0412621 0.234351 0
-0.0291597 0.230021 0
-0.0156702 0.222488 0
0.000338646 0.211337 0
0.0209878 0.196106 0
0.0499396 0.17632 0
0.0930644 0.151629 0
0.159001 0.122104 0
0.259075 0.0887722 0
0.405633 0.0543816 0
0.607454 0.0241034 0
0.861086 0.00540389 0
-0.00570489 0.00910018 0
-0.0175236 0.0192989 0
-0.028902 0.0220973 0
-0.0397849 0.0260021 0
-0.0501518 0.0308458 0
-0.0599998 0.0365072 0
-0.0693314 0.0429022 0
-0.0781456 0.0499744 0
-0.0864315 0.0576872 0
-0.0941631 0.0660156 0
-0.101296 0.0749384 0
-0.107767 0.0844324 0
-0.113493 0.0944652 0
-0.118372 0.104991 0
-0.122291 0.115944 0
-0.125127 0.127238 0
-0.12676 0.138761 0
-0.127074 0.150374 0
-0.125973 0.161912 0
-0.123385 0.173187 0
-0.119272 0.183987 0
-0.113633 0.194083 0
-0.106509 0.203231 0
-0.0979819 0.211177 0
-0.0881629 0.217663 0
-0.0771839 0.222423 0
-0.0651721 0.225193 0
-0.0522125 0.225698 0
-0.0382878 0.223658 0
-0.0231813 0.218774 0
-0.00631903 0.210719 0
0.0134771 0.199138 0
0.0383568 0.183651 0
0.0719366 0.163912 0
0.119848 0.139741 0
0.190104 0.111406 0
0.292788 0.0800848 0
0.43825 0.048465 0
0.632836 0.0212146 0
0.871494 0.00469927 0
-0.00637692 0.00863857 0
-0.0195974 0.0183141 0
-0.0321262 0.0209455 0
-0.0439703 0.0245973 0
-0.0551613 0.029108 0
-0.0657388 0.0343648 0
-0.0757383 0.0402936 0
-0.0851832 0.0468495 0
-0.0940783 0.0540083 0
-0.102406 0.0617574 0
-0.110122 0.0700888 0
-0.117157 0.0789914 0
-0.123417 0.0884447 0
-0.128782 0.0984128 0
-0.133117 0.108839 0
-0.136275 0.119643 0
-0.138107 0.130714 0
-0.13847 0.141916 0
-0.13724 0.153081 0
-0.134319 0.164016 0
-0.129649 0.1745 0
-0.123211 0.184298 0
-0.115035 0.193155 0
-0.105193 0.20081 0
-0.0937933 0.206997 0
-0.080967 0.211449 0
-0.066839 0.213902 0
-0.0514903 0.21409 0
-0.0348936 0.211745 0
-0.0168141 0.20659 0
0.00334739 0.198334 0
0.0267936 0.18667 0
0.0556729 0.171291 0
0.0935164 0.151953 0
0.145679 0.128608 0
0.219551 0.101665 0
0.324073 0.0723832 0
0.467894 0.0433489 0
0.655434 0.0187708 0
0.880576 0.00411379 0
-0.00700702 0.00798853 0
-0.0215258 0.0169308 0
-0.0351037 0.0193393 0
-0.0478143 0.0226602 0
-0.0597444 0.0267427 0
-0.0709777 0.0314868 0
-0.0815842 0.0368327 0
-0.0916122 0.0427502 0
-0.101083 0.0492298 0
-0.109986 0.0562741 0
-0.118279 0.0638895 0
-0.125886 0.0720794 0
-0.132698 0.0808364 0
-0.138579 0.0901366 0
-0.143369 0.0999337 0
-0.146892 0.110155 0
-0.148971 0.120696 0
-0.14943 0.131422 0
-0.148117 0.142167 0
-0.144905 0.152733 0
-0.139712 0.162898 0
-0.132502 0.172415 0
-0.123292 0.181027 0
-0.112148 0.188466 0
-0.0991779 0.19446 0
-0.0845127 0.198741 0
-0.0682813 0.201047 0
-0.0505658 0.20112 0
-0.0313359 0.198704 0
-0.0103474 0.193542 0
0.0130126 0.185372 0
0.0399544 0.173927 0
0.0726015 0.158962 0
0.114371 0.140312 0
0.17032 0.118032 0
0.247228 0.092629 0
0.352998 0.0654012 0
0.494824 0.0388065 0
0.675601 0.0166388 0
0.888532 0.00360989 0
-0.00758207 0.00715696 0
-0.0232666 0.0151627 0
-0.0377684 0.0172933 0
-0.0512322 0.0202075 0
-0.0638022 0.0237703 0
-0.0756077 0.0278989 0
-0.0867535 0.0325509 0
-0.0973127 0.0377134 0
-0.107323 0.0433941 0
-0.116781 0.0496121 0
-0.125647 0.0563901 0
-0.133835 0.0637469 0
-0.141223 0.07169 0
-0.147655 0.0802095 0
-0.152946 0.0892713 0
-0.15689 0.0988128 0
-0.159276 0.108739 0
-0.159897 0.118921 0
-0.158564 0.129193 0
-0.155124 0.13936 0
-0.149466 0.149196 0
-0.141538 0.158453 0
-0.131342 0.166867 0
-0.118939 0.174165 0
-0.104437 0.180073 0
-0.0879736 0.184322 0
-0.0696829 0.18665 0
-0.0496532 0.186805 0
-0.0278564 0.184541 0
-0.00404613 0.179617 0
0.0223946 0.171793 0
0.0526703 0.160837 0
0.0888603 0.14655 0
0.134247 0.128835 0
0.193578 0.10782 0
0.273045 0.084082 0
0.379614 0.0589243 0
0.519234 0.0346658 0
0.693589 0.0147226 0
0.895499 0.00316149 0
-0.00808859 0.00615408 0
-0.0247779 0.0130305 0
-0.0400561 0.0148293 0
-0.0541427 0.0172642 0
-0.067241 0.0202207 0
-0.0795261 0.023637 0
-0.0911369 0.0274909 0
-0.102171 0.0317888 0
-0.112682 0.0365566 0
-0.122674 0.0418313 0
-0.132105 0.0476527 0
-0.140885 0.0540561 0
-0.148875 0.0610657 0
-0.155899 0.0686867 0
-0.161743 0.0769002 0
-0.166173 0.0856568 0
-0.16894 0.094873 0
-0.169801 0.104429 0
-0.168533 0.114166 0
-0.164949 0.123893 0
-0.158912 0.133384 0
-0.150346 0.142392 0
-0.139241 0.150648 0
-0.125653 0.157877 0
-0.109692 0.163803 0
-0.0914999 0.168153 0
-0.0712229 0.170666 0
-0.0489579 0.171093 0
-0.0246834 0.169194 0
0.00184372 0.164738 0
0.0312365 0.157503 0
0.064682 0.147282 0
0.104201 0.133916 0
0.152924 0.117355 0
0.215287 0.0977879 0
0.296924 0.0758322 0
0.403949 0.0527762 0
0.541255 0.0307926 0
0.709571 0.0129502 0
0.901565 0.00274975 0
-0.00851288 0.00499406 0
-0.0260187 0.0105631 0
-0.0419054 0.0119787 0
-0.0564697 0.0138661 0
-0.069974 0.0161365 0
-0.0826379 0.0187519 0
-0.0946333 0.0217121 0
-0.106081 0.0250441 0
-0.117049 0.0287926 0
-0.127549 0.0330123 0
-0.137538 0.0377606 0
-0.146916 0.0430904 0
-0.155534 0.049043 0
-0.16319 0.0556414 0
-0.169646 0.0628837 0
-0.174632 0.0707373 0
-0.177865 0.079134 0
-0.179063 0.087967 0
-0.177963 0.0970901 0
-0.174343 0.106319 0
-0.168037 0.115434 0
-0.158943 0.124188 0
-0.147038 0.132316 0
-0.132371 0.139538 0
-0.115053 0.145575 0
-0.0952349 0.150151 0
-0.073073 0.153005 0
-0.0486763 0.153884 0
-0.0220335 0.152552 0
0.00709058 0.148784 0
0.0392982 0.142368 0
0.0757493 0.133117 0
0.118393 0.120898 0
0.1702 0.105701 0
0.235291 0.087758 0
0.318774 0.0677088 0
0.426001 0.0468081 0
0.560964 0.0270787 0
0.723659 0.0112659 0
0.906788 0.00236044 0
-0.00884135 0.00369554 0
-0.0269496 0.00779917 0
-0.0432593 0.00878408 0
-0.0581439 0.010063 0
-0.071923 0.0115764 0
-0.0848582 0.0133129 0
-0.0971519 0.0152953 0
-0.108946 0.0175708 0
-0.120322 0.0202025 0
-0.131297 0.0232625 0
-0.141828 0.0268253 0
-0.151809 0.0309614 0
-0.161074 0.0357303 0
-0.169402 0.0411742 0
-0.176527 0.0473112 0
-0.182147 0.0541287 0
-0.185939 0.0615783 0
-0.187581 0.069572 0
-0.186772 0.0779796 0
-0.183249 0.0866302 0
-0.17681 0.095315 0
-0.167331 0.103793 0
-0.154768 0.111801 0
-0.139162 0.11906 0
-0.120623 0.125287 0
-0.0993119 0.130203 0
-0.0753951 0.13354 0
-0.0489952 0.135043 0
-0.0201135 0.134472 0
0.0114732 0.131602 0
0.0463503 0.126227 0
0.0856418 0.118171 0
0.131216 0.107322 0
0.185874 0.0936997 0
0.253428 0.0775612 0
0.338491 0.059556 0
0.445736 0.0408905 0
0.578394 0.023434 0
0.735914 0.00962466 0
0.911201 0.00198242 0
-0.00906101 0.00228203 0
-0.0275352 0.00478793 0
-0.0440677 0.00530118 0
-0.0591059 0.00591997 0
-0.0730219 0.00661804 0
-0.086115 0.00741144 0
-0.0986145 0.00834588 0
-0.110681 0.00948769 0
-0.122406 0.010917 0
-0.133815 0.0127217 0
-0.144864 0.0149924 0
-0.15544 0.0178165 0
-0.165364 0.0212722 0
-0.174397 0.0254225 0
-0.182246 0.0303078 0
-0.188575 0.0359395 0
-0.193026 0.042294 0
-0.195234 0.0493073 0
-0.194854 0.0568719 0
-0.191581 0.0648369 0
-0.185178 0.0730094 0
-0.175487 0.0811603 0
-0.162442 0.0890321 0
-0.146073 0.0963484 0
-0.126487 0.102824 0
-0.103849 0.108174 0
-0.0783385 0.112123 0
-0.0500904 0.114408 0
-0.0191208 0.114781 0
0.014778 0.113013 0
0.0521689 0.108896 0
0.0941327 0.10226 0
0.142447 0.093006 0
0.199741 0.0811723 0
0.269525 0.0670323 0
0.35595 0.0512289 0
0.463086 0.0349082 0
0.593532 0.019781 0
0.746356 0.00798913 0
0.914814 0.00160664 0
-0.00916016 0.000782102 0
-0.0277451 0.00158987 0
-0.0442901 0.00159927 0
-0.059309 0.0015192 0
-0.0732194 0.00135891 0
-0.0863522 0.00116209 0
-0.0989585 0.000995876 0
-0.111214 0.000943626 0
-0.123222 0.00109982 0
-0.135011 0.00156593 0
-0.146539 0.0024465 0
-0.157688 0.00384474 0
-0.168271 0.00585746 0
-0.178029 0.00856912 0
-0.186647 0.0120451 0
-0.193759 0.0163246 0
-0.198969 0.0214135 0
-0.20187 0.0272785 0
-0.202073 0.0338419 0
-0.199227 0.04098 0
-0.193053 0.0485233 0
-0.183356 0.0562607 0
-0.170044 0.0639465 0
-0.153127 0.0713095 0
-0.132705 0.0780637 0
-0.108946 0.0839186 0
-0.0820363 0.0885884 0
-0.0521252 0.0917978 0
-0.0192437 0.0932873 0
0.0167972 0.0928166 0
0.0565327 0.0901718 0
0.100993 0.0851823 0
0.15186 0.0777555 0
0.211585 0.0679381 0
0.283389 0.0560081 0
0.370997 0.0425894 0
0.477948 0.0287549 0
0.606326 0.0160509 0
0.754967 0.00632699 0
0.917621 0.00122546 0
-0.00912925 -0.000770778 0
-0.0275571 -0.00172357 0
-0.0438984 -0.00223867 0
-0.0587224 -0.00304046 0
-0.0724824 -0.00408322 0
-0.0855328 -0.00529686 0
-0.0981411 -0.00659544 0
-0.110494 -0.00788186 0
-0.122704 -0.00905075 0
-0.134805 -0.00999046 0
-0.146756 -0.0105853 0
-0.158439 -0.0107182 0
-0.169659 -0.010275 0
-0.180146 -0.00914923 0
-0.189564 -0.00724891 0
-0.197521 -0.00450369 0
-0.203585 -0.000872762 0
-0.20731 0.00364754 0
-0.208259 0.0090173 0
-0.206035 0.0151486 0
-0.200309 0.0219041 0
-0.190847 0.0290989 0
-0.177519 0.036506 0
-0.16031 0.0438645 0
-0.139308 0.0508906 0
-0.114674 0.0572884 0
-0.0866004 0.0627606 0
-0.0552466 0.0670166 0
-0.0206596 0.0697801 0
0.0173284 0.070795 0
0.0592201 0.0698354 0
0.105989 0.0667237 0
0.159215 0.0613659 0
0.221173 0.0538091 0
0.294806 0.0443241 0
0.38345 0.0335021 0
0.490183 0.0223301 0
0.616686 0.0121804 0
0.761699 0.00460932 0
0.919604 0.000832177 0
-0.00896176 -0.00233871 0
-0.0269587 -0.00507096 0
-0.04288 -0.0061171 0
-0.0573349 -0.00764455 0
-0.0707997 -0.00957178 0
-0.083643 -0.011805 0
-0.0961417 -0.0142431 0
-0.108491 -0.0167795 0
-0.120807 -0.0193024 0
-0.133133 -0.0216941 0
-0.145431 -0.0238315 0
-0.157584 -0.0255868 0
-0.169397 -0.0268304 0
-0.180593 -0.0274347 0
-0.19082 -0.0272802 0
-0.199666 -0.0262628 0
-0.206668 -0.0243022 0
-0.211341 -0.021351 0
-0.213203 -0.0174034 0
-0.211808 -0.0125017 0