# vtk DataFile Version 2.0
Presion
ASCII

DATASET STRUCTURED_GRID
DIMENSIONS   40   40   20

POINTS   32000   double
0.0125   0.0125   0.025
0.0375   0.0125   0.025
0.0625   0.0125   0.025
0.0875   0.0125   0.025
0.1125   0.0125   0.025
0.1375   0.0125   0.025
0.1625   0.0125   0.025
0.1875   0.0125   0.025
0.2125   0.0125   0.025
0.2375   0.0125   0.025
0.2625   0.0125   0.025
0.2875   0.0125   0.025
0.3125   0.0125   0.025
0.3375   0.0125   0.025
0.3625   0.0125   0.025
0.3875   0.0125   0.025
0.4125   0.0125   0.025
0.4375   0.0125   0.025
0.4625   0.0125   0.025
0.4875   0.0125   0.025
0.5125   0.0125   0.025
0.5375   0.0125   0.025
0.5625   0.0125   0.025
0.5875   0.0125   0.025
0.6125   0.0125   0.025
0.6375   0.0125   0.025
0.6625   0.0125   0.025
0.6875   0.0125   0.025
0.7125   0.0125   0.025
0.7375   0.0125   0.025
0.7625   0.0125   0.025
0.7875   0.0125   0.025
0.8125   0.0125   0.025
0.8375   0.0125   0.025
0.8625   0.0125   0.025
0.8875   0.0125   0.025
0.9125   0.0125   0.025
0.9375   0.0125   0.025
0.9625   0.0125   0.025
0.9875   0.0125   0.025
0.0125   0.0375   0.025
0.0375   0.0375   0.025
0.0625   0.0375   0.025
0.0875   0.0375   0.025
0.1125   0.0375   0.025
0.1375   0.0375   0.025
0.1625   0.0375   0.025
0.1875   0.0375   0.025
0.2125   0.0375   0.025
0.2375   0.0375   0.025
0.2625   0.0375   0.025
0.2875   0.0375   0.025
0.3125   0.0375   0.025
0.3375   0.0375   0.025
0.3625   0.0375   0.025
0.3875   0.0375   0.025
0.4125   0.0375   0.025
0.4375   0.0375   0.025
0.4625   0.0375   0.025
0.4875   0.0375   0.025
0.5125   0.0375   0.025
0.5375   0.0375   0.025
0.5625   0.0375   0.025
0.5875   0.0375   0.025
0.6125   0.0375   0.025
0.6375   0.0375   0.025
0.6625   0.0375   0.025
0.6875   0.0375   0.025
0.7125   0.0375   0.025
0.7375   0.0375   0.025
0.7625   0.0375   0.025
0.7875   0.0375   0.025
0.8125   0.0375   0.025
0.8375   0.0375   0.025
0.8625   0.0375   0.025
0.8875   0.0375   0.025
0.9125   0.0375   0.025
0.9375   0.0375   0.025
0.9625   0.0375   0.025
0.9875   0.0375   0.025
0.0125   0.0625   0.025
0.0375   0.0625   0.025
0.0625   0.0625   0.025
0.0875   0.0625   0.025
0.1125   0.0625   0.025
0.1375   0.0625   0.025
0.1625   0.0625   0.025
0.1875   0.0625   0.025
0.2125   0.0625   0.025
0.2375   0.0625   0.025
0.2625   0.0625   0.025
0.2875   0.0625   0.025
0.3125   0.0625   0.025
0.3375   0.0625   0.025
0.3625   0.0625   0.025
0.3875   0.0625   0.025
0.4125   0.0625   0.025
0.4375   0.0625   0.025
0.4625   0.0625   0.025
0.4875   0.0625   0.025
0.5125   0.0625   0.025
0.5375   0.0625   0.025
0.5625   0.0625   0.025
0.5875   0.0625   0.025
0.6125   0.0625   0.025
0.6375   0.0625   0.025
0.6625   0.0625   0.025
0.6875   0.0625   0.025
0.7125   0.0625   0.025
0.7375   0.0625   0.025
0.7625   0.0625   0.025
0.7875   0.0625   0.025
0.8125   0.0625   0.025
0.8375   0.0625   0.025
0.8625   0.0625   0.025
0.8875   0.0625   0.025
0.9125   0.0625   0.025
0.9375   0.0625   0.025
0.9625   0.0625   0.025
0.9875   0.0625   0.025
0.0125   0.0875   0.025
0.0375   0.0875   0.025
0.0625   0.0875   0.025
0.0875   0.0875   0.025
0.1125   0.0875   0.025
0.1375   0.0875   0.025
0.1625   0.0875   0.025
0.1875   0.0875   0.025
0.2125   0.0875   0.025
0.2375   0.0875   0.025
0.2625   0.0875   0.025
0.2875   0.0875   0.025
0.3125   0.0875   0.025
0.3375   0.0875   0.025
0.3625   0.0875   0.025
0.3875   0.0875   0.025
0.4125   0.0875   0.025
0.4375   0.0875   0.025
0.4625   0.0875   0.025
0.4875   0.0875   0.025
0.5125   0.0875   0.025
0.5375   0.0875   0.025
0.5625   0.0875   0.025
0.5875   0.0875   0.025
0.6125   0.0875   0.025
0.6375   0.0875   0.025
0.6625   0.0875   0.025
0.6875   0.0875   0.025
0.7125   0.0875   0.025
0.7375   0.0875   0.025
0.7625   0.0875   0.025
0.7875   0.0875   0.025
0.8125   0.0875   0.025
0.8375   0.0875   0.025
0.8625   0.0875   0.025
0.8875   0.0875   0.025
0.9125   0.0875   0.025
0.9375   0.0875   0.025
0.9625   0.0875   0.025
0.9875   0.0875   0.025
0.0125   0.1125   0.025
0.0375   0.1125   0.025
0.0625   0.1125   0.025
0.0875   0.1125   0.025
0.1125   0.1125   0.025
0.1375   0.1125   0.025
0.1625   0.1125   0.025
0.1875   0.1125   0.025
0.2125   0.1125   0.025
0.2375   0.1125   0.025
0.2625   0.1125   0.025
0.2875   0.1125   0.025
0.3125   0.1125   0.025
0.3375   0.1125   0.025
0.3625   0.1125   0.025
0.3875   0.1125   0.025
0.4125   0.1125   0.025
0.4375   0.1125   0.025
0.4625   0.1125   0.025
0.4875   0.1125   0.025
0.5125   0.1125   0.025
0.5375   0.1125   0.025
0.5625   0.1125   0.025
0.5875   0.1125   0.025
0.6125   0.1125   0.025
0.6375   0.1125   0.025
0.6625   0.1125   0.025
0.6875   0.1125   0.025
0.7125   0.1125   0.025
0.7375   0.1125   0.025
0.7625   0.1125   0.025
0.7875   0.1125   0.025
0.8125   0.1125   0.025
0.8375   0.1125   0.025
0.8625   0.1125   0.025
0.8875   0.1125   0.025
0.9125   0.1125   0.025
0.9375   0.1125   0.025
0.9625   0.1125   0.025
0.9875   0.1125   0.025
0.0125   0.1375   0.025
0.0375   0.1375   0.025
0.0625   0.1375   0.025
0.0875   0.1375   0.025
0.1125   0.1375   0.025
0.1375   0.1375   0.025
0.1625   0.1375   0.025
0.1875   0.1375   0.025
0.2125   0.1375   0.025
0.2375   0.1375   0.025
0.2625   0.1375   0.025
0.2875   0.1375   0.025
0.3125   0.1375   0.025
0.3375   0.1375   0.025
0.3625   0.1375   0.025
0.3875   0.1375   0.025
0.4125   0.1375   0.025
0.4375   0.1375   0.025
0.4625   0.1375   0.025
0.4875   0.1375   0.025
0.5125   0.1375   0.025
0.5375   0.1375   0.025
0.5625   0.1375   0.025
0.5875   0.1375   0.025
0.6125   0.1375   0.025
0.6375   0.1375   0.025
0.6625   0.1375   0.025
0.6875   0.1375   0.025
0.7125   0.1375   0.025
0.7375   0.1375   0.025
0.7625   0.1375   0.025
0.7875   0.1375   0.025
0.8125   0.1375   0.025
0.8375   0.1375   0.025
0.8625   0.1375   0.025
0.8875   0.1375   0.025
0.9125   0.1375   0.025
0.9375   0.1375   0.025
0.9625   0.1375   0.025
0.9875   0.1375   0.025
0.0125   0.1625   0.025
0.0375   0.1625   0.025
0.0625   0.1625   0.025
0.0875   0.1625   0.025
0.1125   0.1625   0.025
0.1375   0.1625   0.025
0.1625   0.1625   0.025
0.1875   0.1625   0.025
0.2125   0.1625   0.025
0.2375   0.1625   0.025
0.2625   0.1625   0.025
0.2875   0.1625   0.025
0.3125   0.1625   0.025
0.3375   0.1625   0.025
0.3625   0.1625   0.025
0.3875   0.1625   0.025
0.4125   0.1625   0.025
0.4375   0.1625   0.025
0.4625   0.1625   0.025
0.4875   0.1625   0.025
0.5125   0.1625   0.025
0.5375   0.1625   0.025
0.5625   0.1625   0.025
0.5875   0.1625   0.025
0.6125   0.1625   0.025
0.6375   0.1625   0.025
0.6625   0.1625   0.025
0.6875   0.1625   0.025
0.7125   0.1625   0.025
0.7375   0.1625   0.025
0.7625   0.1625   0.025
0.7875   0.1625   0.025
0.8125   0.1625   0.025
0.8375   0.1625   0.025
0.8625   0.1625   0.025
0.8875   0.1625   0.025
0.9125   0.1625   0.025
0.9375   0.1625   0.025
0.9625   0.1625   0.025
0.9875   0.1625   0.025
0.0125   0.1875   0.025
0.0375   0.1875   0.025
0.0625   0.1875   0.025
0.0875   0.1875   0.025
0.1125   0.1875   0.025
0.1375   0.1875   0.025
0.1625   0.1875   0.025
0.1875   0.1875   0.025
0.2125   0.1875   0.025
0.2375   0.1875   0.025
0.2625   0.1875   0.025
0.2875   0.1875   0.025
0.3125   0.1875   0.025
0.3375   0.1875   0.025
0.3625   0.1875   0.025
0.3875   0.1875   0.025
0.4125   0.1875   0.025
0.4375   0.1875   0.025
0.4625   0.1875   0.025
0.4875   0.1875   0.025
0.5125   0.1875   0.025
0.5375   0.1875   0.025
0.5625   0.1875   0.025
0.5875   0.1875   0.025
0.6125   0.1875   0.025
0.6375   0.1875   0.025
0.6625   0.1875   0.025
0.6875   0.1875   0.025
0.7125   0.1875   0.025
0.7375   0.1875   0.025
0.7625   0.1875   0.025
0.7875   0.1875   0.025
0.8125   0.1875   0.025
0.8375   0.1875   0.025
0.8625   0.1875   0.025
0.8875   0.1875   0.025
0.9125   0.1875   0.025
0.9375   0.1875   0.025
0.9625   0.1875   0.025
0.9875   0.1875   0.025
0.0125   0.2125   0.025
0.0375   0.2125   0.025
0.0625   0.2125   0.025
0.0875   0.2125   0.025
0.1125   0.2125   0.025
0.1375   0.2125   0.025
0.1625   0.2125   0.025
0.1875   0.2125   0.025
0.2125   0.2125   0.025
0.2375   0.2125   0.025
0.2625   0.2125   0.025
0.2875   0.2125   0.025
0.3125   0.2125   0.025
0.3375   0.2125   0.025
0.3625   0.2125   0.025
0.3875   0.2125   0.025
0.4125   0.2125   0.025
0.4375   0.2125   0.025
0.4625   0.2125   0.025
0.4875   0.2125   0.025
0.5125   0.2125   0.025
0.5375   0.2125   0.025
0.5625   0.2125   0.025
0.5875   0.2125   0.025
0.6125   0.2125   0.025
0.6375   0.2125   0.025
0.6625   0.2125   0.025
0.6875   0.2125   0.025
0.7125   0.2125   0.025
0.7375   0.2125   0.025
0.7625   0.2125   0.025
0.7875   0.2125   0.025
0.8125   0.2125   0.025
0.8375   0.2125   0.025
0.8625   0.2125   0.025
0.8875   0.2125   0.025
0.9125   0.2125   0.025
0.9375   0.2125   0.025
0.9625   0.2125   0.025
0.9875   0.2125   0.025
0.0125   0.2375   0.025
0.0375   0.2375   0.025
0.0625   0.2375   0.025
0.0875   0.2375   0.025
0.1125   0.2375   0.025
0.1375   0.2375   0.025
0.1625   0.2375   0.025
0.1875   0.2375   0.025
0.2125   0.2375   0.025
0.2375   0.2375   0.025
0.2625   0.2375   0.025
0.2875   0.2375   0.025
0.3125   0.2375   0.025
0.3375   0.2375   0.025
0.3625   0.2375   0.025
0.3875   0.2375   0.025
0.4125   0.2375   0.025
0.4375   0.2375   0.025
0.4625   0.2375   0.025
0.4875   0.2375   0.025
0.5125   0.2375   0.025
0.5375   0.2375   0.025
0.5625   0.2375   0.025
0.5875   0.2375   0.025
0.6125   0.2375   0.025
0.6375   0.2375   0.025
0.6625   0.2375   0.025
0.6875   0.2375   0.025
0.7125   0.2375   0.025
0.7375   0.2375   0.025
0.7625   0.2375   0.025
0.7875   0.2375   0.025
0.8125   0.2375   0.025
0.8375   0.2375   0.025
0.8625   0.2375   0.025
0.8875   0.2375   0.025
0.9125   0.2375   0.025
0.9375   0.2375   0.025
0.9625   0.2375   0.025
0.9875   0.2375   0.025
0.0125   0.2625   0.025
0.0375   0.2625   0.025
0.0625   0.2625   0.025
0.0875   0.2625   0.025
0.1125   0.2625   0.025
0.1375   0.2625   0.025
0.1625   0.2625   0.025
0.1875   0.2625   0.025
0.2125   0.2625   0.025
0.2375   0.2625   0.025
0.2625   0.2625   0.025
[...]
POINT_DATA   32000
SCALARS Presion double
LOOKUP_TABLE   Presion

0 0 0 0 0 0 0 0 0 0 0 0 0 0 0 0 0 0 0 0 0 0 0 0 0 0 0 0 0 0 0 0 0 0 0 0 0 0 0 0 -0.00242629 -0.00280258 -0.00341282 -0.00408226 -0.00474148 -0.00535014 -0.00588006 -0.0063108 -0.0066279 -0.00682166 -0.00688593 -0.00681815 -0.00661766 -0.00628618 -0.00582751 -0.00524759 -0.00455466 -0.00375945 -0.00287531 -0.00191825 -0.000906623 0.00013805 0.00119307 0.00223409 0.00323608 0.00417411 0.00502425 0.00576447 0.00637552 0.00684181 0.00715216 0.00730037 0.00728571 0.00711313 0.00679298 0.00634046 0.00577495 0.00512222 0.00443402 0.00390289 -0.00279422 -0.00296549 -0.00340302 -0.00395999 -0.00454942 -0.00511693 -0.00562627 -0.00605249 -0.00637831 -0.00659209 -0.00668601 -0.00665639 -0.00650125 -0.00622115 -0.00581868 -0.00529852 -0.0046675 -0.00393477 -0.00311193 -0.00221312 -0.00125447 -0.000255785 0.000762377 0.00177745 0.00276588 0.00370381 0.00456786 0.00533602 0.00598854 0.00650886 0.00688453 0.00710776 0.00717657 0.0070952 0.00687479 0.00653435 0.00610324 0.0056284 0.00519624 0.00499337 -0.00267534 -0.0028825 -0.003287 -0.00380161 -0.00435707 -0.0049029 -0.00540316 -0.00583235 -0.00617257 -0.0064114 -0.0065401 -0.00655415 -0.00645035 -0.00622792 -0.00588792 -0.00543333 -0.00486908 -0.00420225 -0.00344224 -0.0026009 -0.00169199 -0.000733415 0.000256227 0.00125585 0.00224287 0.00319383 0.00408513 0.00489394 0.00559917 0.00618249 0.00662956 0.0069305 0.00708167 0.00708614 0.0069548 0.00670774 0.00637677 0.00601088 0.00568783 0.00553374 -0.00229546 -0.00262009 -0.00307246 -0.00360231 -0.00416128 -0.00470956 -0.0052166 -0.00565973 -0.00602245 -0.00629292 -0.00646219 -0.00652537 -0.00647817 -0.00631844 -0.00604558 -0.00566055 -0.00516608 -0.00456684 -0.00386973 -0.00308408 -0.00222114 -0.00129691 -0.000328142 0.000665309 0.00166145 0.00263671 0.00356669 0.00442707 0.00519473 0.00584889 0.00637262 0.00675328 0.00698482 0.00706826 0.00701284 0.00683726 0.00657137 0.006259 0.0059624 0.00576557 -0.00179097 -0.00225533 -0.00279512 -0.00337796 -0.0039706 -0.00454391 -0.00507435 -0.00554377 -0.00593846 -0.0062481 -0.00646427 -0.00658207 -0.00659637 -0.00650372 -0.00630175 -0.00598934 -0.00556679 -0.00503618 -0.00440172 -0.00367008 -0.00284989 -0.00195523 -0.00100102 -6.0809e-06 0.00100797 0.00201713 0.00299577 0.0039176 0.00475684 0.00548963 0.00609571 0.00655888 0.00686988 0.00702666 0.00703571 0.00691297 0.00668479 0.00638904 0.00607607 0.00580719 -0.00124944 -0.00185431 -0.0024978 -0.00315506 -0.00380224 -0.0044186 -0.00498724 -0.00549488 -0.00593113 -0.00628779 -0.0065574 -0.00673536 -0.00681593 -0.00679447 -0.0066669 -0.00642993 -0.00608142 -0.00562071 -0.0050492 -0.00437079 -0.00359139 -0.00272304 -0.00177885 -0.000776533 0.000262543 0.00131379 0.0023501 0.00334279 0.00426297 0.00508302 0.00577862 0.00632912 0.00672113 0.00694864 0.00701454 0.00693137 0.00672193 0.00641946 0.00606728 0.00571643 -0.000731963 -0.00147072 -0.0022221 -0.00296412 -0.00367854 -0.00435073 -0.0049693 -0.00552543 -0.00601208 -0.00642326 -0.00675272 -0.00699636 -0.007148 -0.00720193 -0.00715246 -0.00699418 -0.00672242 -0.0063338 -0.00582677 -0.00520232 -0.00446353 -0.0036202 -0.00268343 -0.00166975 -0.000600151 0.0005002 0.00160256 0.00267563 0.00368692 0.00460443 0.00539895 0.00604448 0.00652249 0.00682208 0.00694178 0.00689042 0.00668759 0.00636357 0.00595856 0.00552057 -0.000284756 -0.00114859 -0.00200599 -0.00283611 -0.00362428 -0.0043603 -0.00503718 -0.00564989 -0.00619439 -0.00666684 -0.00706219 -0.00737694 -0.0076046 -0.0077385 -0.00777143 -0.00769591 -0.00750481 -0.0071919 -0.00675263 -0.0061849 -0.00548874 -0.00467139 -0.00374167 -0.00271461 -0.00161058 -0.000455161 0.000721299 0.00188469 0.00299854 0.00402581 0.00493155 0.00568333 0.0062564 0.00663389 0.00680915 0.0067869 0.00658385 0.00622866 0.00576116 0.00523059 5.46844e-05 -0.000925055 -0.00188363 -0.00280095 -0.00366498 -0.00446899 -0.00520948 -0.00588457 -0.00649282 -0.0070323 -0.00749908 -0.00789027 -0.00819912 -0.00841814 -0.00853866 -0.00855123 -0.00844624 -0.00821458 -0.00784854 -0.00734272 -0.00669375 -0.00590593 -0.00498534 -0.00394505 -0.00280436 -0.00158895 -0.000330596 0.000933717 0.00216317 0.00331504 0.00434769 0.00522107 0.00590286 0.00636896 0.00660647 0.00661539 0.00640959 0.00601694 0.00547874 0.00484816 0.000254192 -0.000832451 -0.00188587 -0.00288694 -0.00382599 -0.0046992 -0.00550603 -0.00624726 -0.00692363 -0.00753487 -0.00807811 -0.00855096 -0.00894652 -0.00925654 -0.00947098 -0.00957849 -0.00956695 -0.00942433 -0.00913956 -0.0087036 -0.00810933 -0.00735751 -0.0064509 -0.00539995 -0.00422227 -0.00294314 -0.00159541 -0.000218887 0.001141 0.00243518 0.00361427 0.00462923 0.0054386 0.00600943 0.00632115 0.00636807 0.00616083 0.00572693 0.00511024 0.00436959 0.000285017 -0.000899725 -0.00204088 -0.00312069 -0.00413191 -0.00507345 -0.00594736 -0.00675674 -0.00750425 -0.00819108 -0.00881529 -0.009375 -0.00986318 -0.0102709 -0.0105869 -0.0107979 -0.0108893 -0.010846 -0.0106534 -0.0102984 -0.00976957 -0.00906352 -0.0081789 -0.00712269 -0.00591001 -0.00456496 -0.00312095 -0.00162037 -0.000113419 0.00134384 0.00269314 0.00387488 0.00483655 0.00553431 0.00593808 0.00603495 0.00583152 0.00535481 0.00465187 0.00378834 0.000120761 -0.00115332 -0.00237461 -0.00352721 -0.00460646 -0.00561393 -0.00655413 -0.0074323 -0.00825284 -0.00901825 -0.00972754 -0.0103793 -0.0109664 -0.0114795 -0.011906 -0.0122308 -0.0124369 -0.0125059 -0.0124194 -0.0121597 -0.0117108 -0.0110639 -0.0102129 -0.00916022 -0.00791735 -0.00650628 -0.00496017 -0.00332351 -0.00165129 -7.10541e-06 0.00154069 0.00292015 0.00406546 0.00491933 0.00543969 0.00560434 0.0054144 0.00489578 0.0040989 0.00309698 -0.000263134 -0.00161767 -0.00291116 -0.00412997 -0.0052722 -0.00634213 -0.00734671 -0.0082932 -0.00918767 -0.0100339 -0.010832 -0.0115809 -0.0122737 -0.0129005 -0.0134477 -0.0138985 -0.0142332 -0.0144302 -0.0144667 -0.0143205 -0.0139695 -0.0133994 -0.0125977 -0.0115612 -0.0102965 -0.00882218 -0.00716999 -0.00538577 -0.00352901 -0.00167125 0.000107906 0.00172221 0.00308985 0.00413699 0.00480633 0.0050635 0.00490199 0.00434543 0.00344735 0.00228896 -0.000889533 -0.00231537 -0.00367284 -0.00495084 -0.0061504 -0.00727854 -0.00834463 -0.00935799 -0.0103264 -0.011255 -0.012145 -0.012996 -0.0138013 -0.0145508 -0.01523 -0.0158203 -0.0162996 -0.0166427 -0.0168225 -0.016811 -0.0165801 -0.0161084 -0.0153763 -0.0143732 -0.0130993 -0.0115683 -0.00980893 -0.00786725 -0.00580658 -0.00370649 -0.00165884 0.000233748 0.0018704 0.00315697 0.00401678 0.00439947 0.00428782 0.00370125 0.00269571 0.00136051 -0.00177948 -0.00326716 -0.00468015 -0.00601006 -0.00726081 -0.00844221 -0.00956607 -0.0106438 -0.0116851 -0.0126967 -0.013681 -0.0146385 -0.015563 -0.0164444 -0.0172673 -0.0180118 -0.0186531 -0.0191625 -0.019508 -0.0196558 -0.0195708 -0.0192236 -0.0185858 -0.0176383 -0.0163731 -0.0147966 -0.0129332 -0.0108272 -0.00854457 -0.0061725 -0.00381588 -0.00159563 0.000364984 0.00194699 0.00304923 0.00360024 0.00356782 0.00296438 0.00184694 0.00031271 -0.00295189 -0.00449171 -0.00595169 -0.00732601 -0.00862139 -0.00985036 -0.0110272 -0.0121657 -0.0132776 -0.0143713 -0.015451 -0.0165183 -0.0175679 -0.0185898 -0.0195682 -0.0204817 -0.0213032 -0.0220002 -0.0225358 -0.0228699 -0.0229596 -0.0227665 -0.0222524 -0.0213879 -0.0201547 -0.0185501 -0.0165912 -0.0143187 -0.0117993 -0.00912669 -0.00641887 -0.00381672 -0.00146933 0.000474443 0.00188269 0.00265626 0.00274219 0.00214173 0.000910845 -0.000845969 -0.00442311 -0.0060054 -0.00750393 -0.00891504 -0.010248 -0.0115179 -0.0127417 -0.0139356 -0.0151137 -0.0162869 -0.0174612 -0.0186399 -0.0198187 -0.0209883 -0.0221327 -0.0232294 -0.0242487 -0.0251548 -0.0259055 -0.026454 -0.0267492 -0.0267428 -0.0263856 -0.0256361 -0.0244639 -0.0228547 -0.0208159 -0.0183813 -0.0156159 -0.0126179 -0.00951745 -0.00647642 -0.00367284 -0.00129094 0.00049927 0.00156263 0.00181766 0.00124855 -9.30472e-05 -0.00209659 -0.0062065 -0.00782203 -0.00935101 -0.0107913 -0.0121541 -0.013457 -0.0147197 -0.0159613 -0.0171988 -0.0184459 -0.0197112 -0.0209999 -0.0223095 -0.0236316 -0.0249502 -0.0262419 -0.0274751 -0.0286101 -0.0295998 -0.0303903 -0.030922 -0.0311362 -0.0309712 -0.0303725 -0.0292954 -0.0277117 -0.025616 -0.023032 -0.0200194 -0.0166778 -0.0131477 -0.00961129 -0.00627807 -0.00337299 -0.00111252 0.00032206 0.000810488 0.000311674 -0.001132 -0.00340603 -0.008312 -0.00995259 -0.0115048 -0.0129666 -0.0143506 -0.0156767 -0.0169675 -0.0182458 -0.0195321 -0.0208436 -0.0221923 -0.0235859 -0.0250239 -0.0264993 -0.0279967 -0.0294918 -0.0309512 -0.0323318 -0.0335812 -0.0346388 -0.0354362 -0.0359034 -0.0359663 -0.0355557 -0.0346113 -0.0330885 -0.0309663 -0.0282548 -0.0250041 -0.0213108 -0.0173221 -0.0132387 -0.0093023 -0.0057832 -0.002953 -0.00105113 -0.000249722 -0.000626506 -0.00215577 -0.00472245 -0.0107459 -0.0124053 -0.0139747 -0.0154506 -0.0168459 -0.0181826 -0.019487 -0.0207864 -0.0221059 -0.0234672 -0.0248864 -0.0263744 -0.0279333 -0.0295579 -0.0312334 -0.0329353 -0.0346281 -0.0362656 -0.0377904 -0.0391351 -0.0402225 -0.0409714 -0.0412947 -0.0411081 -0.0403345 -0.0389114 -0.0367991 -0.0339907 -0.030522 -0.0264817 -0.0220179 -0.0173459 -0.0127379 -0.00851261 -0.00500487 -0.00252563 -0.00131513 -0.00150315 -0.00309147 -0.00596985 -0.0135108 -0.015186 -0.0167685 -0.0182509 -0.0196455 -0.0209765 -0.0222749 -0.0235738 -0.0249045 -0.0262944 -0.0277646 -0.0293302 -0.0309962 -0.0327595 -0.0346063 -0.0365116 -0.0384383 -0.040337 -0.0421456 -0.0437899 -0.0451841 -0.0462362 -0.0468461 -0.0469143 -0.0463464 -0.0450607 -0.0429974 -0.0401292 -0.0364733 -0.0321041 -0.0271644 -0.0218771 -0.0165405 -0.0115215 -0.00722463 -0.00404609 -0.00231353 -0.00222897 -0.00383733 -0.00704159 -0.0166061 -0.0182986 -0.0198928 -0.0213742 -0.022753 -0.0240567 -0.0253226 -0.0265916 -0.0279033 -0.0292926 -0.0307869 -0.0324057 -0.0341579 -0.0360424 -0.0380463 -0.0401442 -0.0422974 -0.0444533 -0.0465449 -0.0484916 -0.0501995 -0.0515659 -0.0524782 -0.0528224 -0.0524869 -0.0513708 -0.0493932 -0.0465042 -0.0426986 -0.038031 -0.032631 -0.0267203 -0.0206155 -0.0147269 -0.00953196 -0.00552435 -0.00314071 -0.002681 -0.0042553 -0.00779272 -0.0200289 -0.0217468 -0.0233547 -0.0248269 -0.0261708 -0.0274182 -0.0286159 -0.0298159 -0.0310688 -0.0324189 -0.0339015 -0.0355413 -0.0373511 -0.0393319 -0.0414713 -0.0437434 -0.0461073 -0.0485071 -0.0508709 -0.0531118 -0.0551281 -0.0568068 -0.0580239 -0.0586513 -0.0585617 -0.0576355 -0.055771 -0.0528951 -0.0489779 -0.0440495 -0.0382189 -0.0316962 -0.0248048 -0.0179893 -0.0117972 -0.00682867 -0.00365122 -0.00269396 -0.00416232 -0.00803104 -0.0237756 -0.0255362 -0.0271641 -0.0286174 -0.0299004 -0.0310527 -0.0321348 -0.0332148 -0.0343577 -0.03562 -0.0370462 -0.0386668 -0.0404984 -0.0425435 -0.04479 -0.0472105 -0.0497613 -0.0523827 -0.0549978 -0.057513 -0.0598192 -0.0617936 -0.0633015 -0.0642022 -0.0643536 -0.0636196 -0.0618787 -0.0590359 -0.0550362 -0.0498828 -0.0436579 -0.0365499 -0.0288752 -0.0210986 -0.0138276 -0.00777117 -0.00364731 -0.00204991 -0.00331988 -0.00750655 -0.0278451 -0.0296778 -0.0313369 -0.0327583 -0.0339446 -0.0349492 -0.0358537 -0.0367483 -0.0377175 -0.0388328 -0.0401491 -0.0417031 -0.0435146 -0.0455868 -0.0479065 -0.0504436 -0.053151 -0.0559639 -0.0587998 -0.0615585 -0.0641231 -0.0663614 -0.0681288 -0.0692729 -0.0696387 -0.0690753 -0.0674444 -0.0646313 -0.060558 -0.0552007 -0.048612 -0.0409508 -0.0325124 -0.0237632 -0.0153536 -0.00809392 -0.00286609 -0.000466112 -0.00142166 -0.00589893 -0.0322435 -0.0341939 -0.0358998 -0.0372696 -0.038309 -0.0390948 -0.0397408 -0.0403681 -0.0410866 -0.0419855 -0.0431312 -0.0445661 -0.0463117 -0.0483705 -0.0507262 -0.0533447 -0.0561736 -0.0591423 -0.0621614 -0.0651232 -0.067903 -0.0703592 -0.0723373 -0.0736746 -0.0742044 -0.0737629 -0.072198 -0.0693786 -0.0652079 -0.0596386 -0.0526945 -0.0445008 -0.0353209 -0.0256029 -0.0160163 -0.00745438 -0.000964782 0.00241947 0.00192153 -0.00280228 -0.0369921 -0.0391267 -0.0408984 -0.042184 -0.0430035 -0.0434745 -0.0437582 -0.044018 -0.0443953 -0.0449999 -0.0459096 -0.0471704 -0.0488036 -0.0508084 -0.053163 -0.0558269 -0.0587407 -0.0618262 -0.0649858 -0.0681036 -0.0710461 -0.0736619 -0.0757868 -0.0772477 -0.0778671 -0.0774702 -0.0758933 -0.0729931 -0.0686584 -0.0628243 -0.0554916 -0.0467532 -0.036835 -0.0261504 -0.0153603 -0.00541143 0.00249576 0.0070657 0.00720085 0.00229455 -0.0421396 -0.0445517 -0.0464067 -0.0475523 -0.0480455 -0.0480716 -0.0478613 -0.0476337 -0.0475677 -0.0477947 -0.0484016 -0.0494352 -0.0509129 -0.0528265 -0.0551461 -0.057822 -0.0607853 -0.0639482 -0.0672038 -0.0704262 -0.0734723 -0.0761801 -0.0783751 -0.0798735 -0.0804871 -0.0800306 -0.07833 -0.0752326 -0.0706178 -0.06441 -0.0565952 -0.0472421 -0.0365412 -0.0248621 -0.0128318 -0.00141378 0.0080693 0.0140501 0.0150346 0.0100349 -0.0477846 -0.0506002 -0.0525438 -0.0534519 -0.0534615 -0.0528677 -0.0519989 -0.0511442 -0.0505242 -0.0502892 -0.0505307 -0.0512906 -0.0525769 -0.0543698 -0.0566271 -0.0592866 -0.0622677 -0.065471 -0.0687782 -0.0720523 -0.0751394 -0.0778656 -0.0800452 -0.0814827 -0.0819782 -0.0813352 -0.0793694 -0.0759194 -0.0708584 -0.0641056 -0.0556413 -0.0455222 -0.033914 -0.0211441 -0.00778983 0.00520631 0.0164438 0.0240972 0.0262041 0.0212341 -0.054113 -0.0574942 -0.0594968 -0.059997 -0.0592899 -0.0578416 -0.0561129 -0.054474 -0.0531856 -0.0524097 -0.0522332 -0.0526843 -0.0537549 -0.055408 -0.0575845 -0.0602067 -0.0631794 -0.0663897 -0.0697063 -0.0729799 -0.0760442 -0.0787124 -0.0807862 -0.082057 -0.0823115 -0.0813399 -0.0789457 -0.0749573 -0.0692406 -0.061712 -0.0523525 -0.0412185 -0.028467 -0.0143965 0.000466848 0.0152286 0.0284609 0.0381166 0.0417071 0.0369446 -0.061466 -0.0656064 -0.0675547 -0.0673509 -0.0655815 -0.0629686 -0.0601386 -0.0575459 -0.0554789 -0.0540957 -0.0534642 -0.0535878 -0.0544331 -0.0559395 -0.0580267 -0.0605984 -0.0635424 -0.0667305 -0.0700174 -0.0732399 -0.0762185 -0.0787526 -0.0806298 -0.0816267 -0.0815145 -0.0800674 -0.0770727 -0.0723438 -0.0657345 -0.0571545 -0.0465846 -0.0340866 -0.0198229 -0.00408305 0.0126437 0.0295196 0.0451299 0.057255 0.062843 0.0585666 -0.0704665 -0.0755578 -0.0771569 -0.0757378 -0.0723974 -0.0682155 -0.0640041 -0.0602832 -0.0573405 -0.055304 -0.0542019 -0.0539982 -0.0546245 -0.0559899 -0.0579891 -0.0605039 -0.063404 -0.0665445 -0.0697653 -0.072889 -0.0757222 -0.0780495 -0.079644 -0.0802659 -0.0796688 -0.0776073 -0.0738478 -0.0681817 -0.0604413 -0.0505175 -0.0383796 -0.0240868 -0.00780813 0.0101621 0.0293504 0.0489647 0.0676207 0.0829638 0.0913509 0.0880511 -0.0822624 -0.0883828 -0.0889524 -0.0854441 -0.0797925 -0.0735268 -0.0676208 -0.0626044 -0.0587127 -0.0560044 -0.0544413 -0.0539313 -0.0543604 -0.0556021 -0.0575222 -0.0599796 -0.0628244 -0.0658954 -0.0690174 -0.0719988 -0.0746328 -0.0766896 -0.0779269 -0.0780883 -0.0769081 -0.0741188 -0.0694605 -0.0626941 -0.0536175 -0.0420843 -0.0280272 -0.011475 0.00742164 0.0283766 0.0509286 0.0743206 0.0971969 0.117068 0.129633 0.128276 -0.0990217 -0.105795 -0.103852 -0.0967813 -0.0877647 -0.0787806 -0.0708479 -0.0643932 -0.0595166 -0.0561541 -0.0541695 -0.0533965 -0.0536667 -0.0548127 -0.0566702 -0.0590746 -0.0618576 -0.0648419 -0.0678387 -0.0706435 -0.0730368 -0.0747755 -0.0756035 -0.0752479 -0.0734238 -0.0698396 -0.0642058 -0.0562449 -0.0457061 -0.0323828 -0.0161348 0.00308959 0.025221 0.0500467 0.0771727 0.10592 0.135 0.161777 0.1811 0.183747 -0.124998 -0.130581 -0.12299 -0.109933 -0.0961027 -0.0836594 -0.0733867 -0.0654116 -0.0595791 -0.0556355 -0.0533111 -0.0523491 -0.0525195 -0.0536128 -0.0554354 -0.0578012 -0.0605252 -0.0634171 -0.0662764 -0.0688883 -0.0710227 -0.0724262 -0.0728303 -0.0719485 -0.069478 -0.0651045 -0.0585071 -0.0493656 -0.0373696 -0.0222296 -0.00369351 0.0184374 0.0442765 0.0738221 0.106914 0.143141 0.181511 0.219431 0.250611 0.261891 -0.168973 -0.167002 -0.147339 -0.124473 -0.103965 -0.0873207 -0.0745351 -0.0651191 -0.0584982 -0.0541512 -0.0516436 -0.0506189 -0.0507859 -0.0518977 -0.0537361 -0.0560989 -0.0587894 -0.0616081 -0.064347 -0.0667842 -0.0686832 -0.0697835 -0.0698084 -0.0684613 -0.0654256 -0.0603679 -0.0529392 -0.0427774 -0.0295092 -0.0127506 0.00789243 0.0328268 0.0624653 0.0972203 0.137478 0.183545 0.235401 0.291481 0.344726 0.375405 -0.25012 -0.220424 -0.17616 -0.137914 -0.108814 -0.0877133 -0.072776 -0.0624234 -0.0554806 -0.0511087 -0.0487083 -0.0478387 -0.0481652 -0.0494186 -0.051369 -0.0538076 -0.0565338 -0.0593457 -0.0620331 -0.0643723 -0.0661247 -0.0670278 -0.0668017 -0.0651446 -0.0617325 -0.0562191 -0.0482352 -0.0373855 -0.0232427 -0.00533572 0.0168709 0.0440135 0.076878 0.116479 0.164155 0.22169 0.29142 0.375573 0.470433 0.546918 -0.411144 -0.292528 -0.200952 -0.141649 -0.104413 -0.0807598 -0.0654793 -0.0555715 -0.0492921 -0.0455861 -0.0437808 -0.0434184 -0.0441675 -0.045768 -0.048 -0.0506637 -0.0535661 -0.0565114 -0.0592945 -0.0616962 -0.0634812 -0.0643906 -0.0641464 -0.0624478 -0.0589701 -0.0533633 -0.0452491 -0.0342152 -0.0198034 -0.00148781 0.0213627 0.0495543 0.0841853 0.126861 0.180072 0.247861 0.336997 0.458762 0.627 0.820017 -0.750669 -0.343131 -0.184316 -0.115013 -0.0803243 -0.061005 -0.0495226 -0.0425657 -0.0385151 -0.0364948 -0.0359815 -0.0366284 -0.0381822 -0.0404385 -0.0432171 -0.0463474 -0.0496581 -0.0529704 -0.056093 -0.0588179 -0.0609188 -0.0621464 -0.0622292 -0.0608735 -0.0577602 -0.0525446 -0.0448527 -0.0342752 -0.0203555 -0.00256674 0.0197285 0.0473543 0.0814616 0.123811 0.177381 0.24781 0.347044 0.502211 0.771503 1.27111 0 0 0 0 0 0 0 0 0 0 0 0 0 0 0 0 0 0 0 0 0 0 0 0 0 0 0 0 0 0 0 0 0 0 0 0 0 0 0 0 -0.00243734 -0.00280927 -0.00332735 -0.00384478 -0.00431649 -0.00472104 -0.00504444 -0.00527672 -0.00541102 -0.00544315 -0.00537115 -0.00519509 -0.00491677 -0.00453971 -0.00406919 -0.00351232 -0.00287818 -0.00217788 -0.00142464 -0.00063363 0.000178114 0.00099215 0.00178908 0.00254912 0.00325284 0.00388185 0.00441967 0.0048524 0.00516941 0.00536395 0.00543348 0.00538006 0.00521027 0.00493508 0.00456932 0.00413111 0.00364138 0.00312617 0.00263194 0.0023029 -0.00290335 -0.00306396 -0.00340149 -0.0037912 -0.00417 -0.00450401 -0.00477322 -0.00496494 -0.00507104 -0.00508656 -0.00500896 -0.0048377 -0.00457394 -0.00422056 -0.00378212 -0.00326497 -0.00267733 -0.00202935 -0.00133316 -0.000602776 0.000146086 0.000896372 0.00163015 0.00232911 0.00297528 0.00355171 0.00404328 0.00443738 0.00472463 0.00489942 0.00496032 0.00491037 0.00475719 0.00451291 0.00419416 0.0038224 0.00342557 0.00304335 0.00274153 0.00264384 -0.00297565 -0.00314158 -0.00342212 -0.00374663 -0.00406638 -0.00435041 -0.00457915 -0.00474013 -0.00482537 -0.00482995 -0.00475122 -0.00458822 -0.00434155 -0.00401328 -0.00360705 -0.00312813 -0.00258354 -0.00198219 -0.00133489 -0.000654317 4.5046e-05 0.000747322 0.00143563 0.00209251 0.00270063 0.00324357 0.00370652 0.00407717 0.0043464 0.00450897 0.00456395 0.00451506 0.00437086 0.00414461 0.0038544 0.0035235 0.00318157 0.00286761 0.00263508 0.0025554 -0.00286262 -0.00310515 -0.00339791 -0.00370609 -0.00399931 -0.00425539 -0.00445927 -0.004601 -0.00467414 -0.00467461 -0.00460006 -0.0044494 -0.00422267 -0.00392113 -0.00354731 -0.00310518 -0.00260038 -0.00204033 -0.00143437 -0.000793826 -0.000131979 0.000536243 0.00119463 0.00182607 0.00241322 0.00293936 0.00338923 0.00374993 0.00401183 0.00416931 0.00422138 0.004172 0.00403029 0.00381033 0.00353096 0.00321564 0.00289255 0.00259483 0.00236026 0.00222695 -0.00268219 -0.00302147 -0.00336009 -0.00368326 -0.00397508 -0.00422262 -0.00441664 -0.0045509 -0.00462132 -0.00462522 -0.00456088 -0.00442723 -0.00422383 -0.00395107 -0.00361026 -0.00320397 -0.00273623 -0.00221286 -0.00164164 -0.0010325 -0.000397579 0.000248964 0.000891314 0.00151225 0.00209391 0.00261865 0.00307 0.00343376 0.00369902 0.00385911 0.00391233 0.00386234 0.00371841 0.00349493 0.00321098 0.00288949 0.00255632 0.00223896 0.00196433 0.00175417 -0.00250672 -0.00294512 -0.00334419 -0.00370042 -0.00400817 -0.00426241 -0.00445959 -0.00459742 -0.00467445 -0.00468962 -0.00464201 -0.00453062 -0.00435458 -0.00411331 -0.00380686 -0.00343624 -0.00300