# vtk DataFile Version 2.0
Velocidades
ASCII

DATASET STRUCTURED_GRID
DIMENSIONS   40   40   10

POINTS   16000   double
0.0125   0.0125   0.05
0.0125   0.0375   0.05
0.0125   0.0625   0.05
0.0125   0.0875   0.05
0.0125   0.1125   0.05
0.0125   0.1375   0.05
0.0125   0.1625   0.05
0.0125   0.1875   0.05
0.0125   0.2125   0.05
0.0125   0.2375   0.05
0.0125   0.2625   0.05
0.0125   0.2875   0.05
0.0125   0.3125   0.05
0.0125   0.3375   0.05
0.0125   0.3625   0.05
0.0125   0.3875   0.05
0.0125   0.4125   0.05
0.0125   0.4375   0.05
0.0125   0.4625   0.05
0.0125   0.4875   0.05
0.0125   0.5125   0.05
0.0125   0.5375   0.05
0.0125   0.5625   0.05
0.0125   0.5875   0.05
0.0125   0.6125   0.05
0.0125   0.6375   0.05
0.0125   0.6625   0.05
0.0125   0.6875   0.05
0.0125   0.7125   0.05
0.0125   0.7375   0.05
0.0125   0.7625   0.05
0.0125   0.7875   0.05
0.0125   0.8125   0.05
0.0125   0.8375   0.05
0.0125   0.8625   0.05
0.0125   0.8875   0.05
0.0125   0.9125   0.05
0.0125   0.9375   0.05
0.0125   0.9625   0.05
0.0125   0.9875   0.05
0.0375   0.0125   0.05
0.0375   0.0375   0.05
0.0375   0.0625   0.05
0.0375   0.0875   0.05
0.0375   0.1125   0.05
0.0375   0.1375   0.05
0.0375   0.1625   0.05
0.0375   0.1875   0.05
0.0375   0.2125   0.05
0.0375   0.2375   0.05
0.0375   0.2625   0.05
0.0375   0.2875   0.05
0.0375   0.3125   0.05
0.0375   0.3375   0.05
0.0375   0.3625   0.05
0.0375   0.3875   0.05
0.0375   0.4125   0.05
0.0375   0.4375   0.05
0.0375   0.4625   0.05
0.0375   0.4875   0.05
0.0375   0.5125   0.05
0.0375   0.5375   0.05
0.0375   0.5625   0.05
0.0375   0.5875   0.05
0.0375   0.6125   0.05
0.0375   0.6375   0.05
0.0375   0.6625   0.05
0.0375   0.6875   0.05
0.0375   0.7125   0.05
0.0375   0.7375   0.05
0.0375   0.7625   0.05
0.0375   0.7875   0.05
0.0375   0.8125   0.05
0.0375   0.8375   0.05
0.0375   0.8625   0.05
0.0375   0.8875   0.05
0.0375   0.9125   0.05
0.0375   0.9375   0.05
0.0375   0.9625   0.05
0.0375   0.9875   0.05
0.0625   0.0125   0.05
0.0625   0.0375   0.05
0.0625   0.0625   0.05
0.0625   0.0875   0.05
0.0625   0.1125   0.05
0.0625   0.1375   0.05
0.0625   0.1625   0.05
0.0625   0.1875   0.05
0.0625   0.2125   0.05
0.0625   0.2375   0.05
0.0625   0.2625   0.05
0.0625   0.2875   0.05
0.0625   0.3125   0.05
0.0625   0.3375   0.05
0.0625   0.3625   0.05
0.0625   0.3875   0.05
0.0625   0.4125   0.05
0.0625   0.4375   0.05
0.0625   0.4625   0.05
0.0625   0.4875   0.05
0.0625   0.5125   0.05
0.0625   0.5375   0.05
0.0625   0.5625   0.05
0.0625   0.5875   0.05
0.0625   0.6125   0.05
0.0625   0.6375   0.05
0.0625   0.6625   0.05
0.0625   0.6875   0.05
0.0625   0.7125   0.05
0.0625   0.7375   0.05
0.0625   0.7625   0.05
0.0625   0.7875   0.05
0.0625   0.8125   0.05
0.0625   0.8375   0.05
0.0625   0.8625   0.05
0.0625   0.8875   0.05
0.0625   0.9125   0.05
0.0625   0.9375   0.05
0.0625   0.9625   0.05
0.0625   0.9875   0.05
0.0875   0.0125   0.05
0.0875   0.0375   0.05
0.0875   0.0625   0.05
0.0875   0.0875   0.05
0.0875   0.1125   0.05
0.0875   0.1375   0.05
0.0875   0.1625   0.05
0.0875   0.1875   0.05
0.0875   0.2125   0.05
0.0875   0.2375   0.05
0.0875   0.2625   0.05
0.0875   0.2875   0.05
0.0875   0.3125   0.05
0.0875   0.3375   0.05
0.0875   0.3625   0.05
0.0875   0.3875   0.05
0.0875   0.4125   0.05
0.0875   0.4375   0.05
0.0875   0.4625   0.05
0.0875   0.4875   0.05
0.0875   0.5125   0.05
0.0875   0.5375   0.05
0.0875   0.5625   0.05
0.0875   0.5875   0.05
0.0875   0.6125   0.05
0.0875   0.6375   0.05
0.0875   0.6625   0.05
0.0875   0.6875   0.05
0.0875   0.7125   0.05
0.0875   0.7375   0.05
0.0875   0.7625   0.05
0.0875   0.7875   0.05
0.0875   0.8125   0.05
0.0875   0.8375   0.05
0.0875   0.8625   0.05
0.0875   0.8875   0.05
0.0875   0.9125   0.05
0.0875   0.9375   0.05
0.0875   0.9625   0.05
0.0875   0.9875   0.05
0.1125   0.0125   0.05
0.1125   0.0375   0.05
0.1125   0.0625   0.05
0.1125   0.0875   0.05
0.1125   0.1125   0.05
0.1125   0.1375   0.05
0.1125   0.1625   0.05
0.1125   0.1875   0.05
0.1125   0.2125   0.05
0.1125   0.2375   0.05
0.1125   0.2625   0.05
0.1125   0.2875   0.05
0.1125   0.3125   0.05
0.1125   0.3375   0.05
0.1125   0.3625   0.05
0.1125   0.3875   0.05
0.1125   0.4125   0.05
0.1125   0.4375   0.05
0.1125   0.4625   0.05
0.1125   0.4875   0.05
0.1125   0.5125   0.05
0.1125   0.5375   0.05
0.1125   0.5625   0.05
0.1125   0.5875   0.05
0.1125   0.6125   0.05
0.1125   0.6375   0.05
0.1125   0.6625   0.05
0.1125   0.6875   0.05
0.1125   0.7125   0.05
0.1125   0.7375   0.05
0.1125   0.7625   0.05
0.1125   0.7875   0.05
0.1125   0.8125   0.05
0.1125   0.8375   0.05
0.1125   0.8625   0.05
0.1125   0.8875   0.05
0.1125   0.9125   0.05
0.1125   0.9375   0.05
0.1125   0.9625   0.05
0.1125   0.9875   0.05
0.1375   0.0125   0.05
0.1375   0.0375   0.05
0.1375   0.0625   0.05
0.1375   0.0875   0.05
0.1375   0.1125   0.05
0.1375   0.1375   0.05
0.1375   0.1625   0.05
0.1375   0.1875   0.05
0.1375   0.2125   0.05
0.1375   0.2375   0.05
0.1375   0.2625   0.05
0.1375   0.2875   0.05
0.1375   0.3125   0.05
0.1375   0.3375   0.05
0.1375   0.3625   0.05
0.1375   0.3875   0.05
0.1375   0.4125   0.05
0.1375   0.4375   0.05
0.1375   0.4625   0.05
0.1375   0.4875   0.05
0.1375   0.5125   0.05
0.1375   0.5375   0.05
0.1375   0.5625   0.05
0.1375   0.5875   0.05
0.1375   0.6125   0.05
0.1375   0.6375   0.05
0.1375   0.6625   0.05
0.1375   0.6875   0.05
0.1375   0.7125   0.05
0.1375   0.7375   0.05
0.1375   0.7625   0.05
0.1375   0.7875   0.05
0.1375   0.8125   0.05
0.1375   0.8375   0.05
0.1375   0.8625   0.05
0.1375   0.8875   0.05
0.1375   0.9125   0.05
0.1375   0.9375   0.05
0.1375   0.9625   0.05
0.1375   0.9875   0.05
0.1625   0.0125   0.05
0.1625   0.0375   0.05
0.1625   0.0625   0.05
0.1625   0.0875   0.05
0.1625   0.1125   0.05
0.1625   0.1375   0.05
0.1625   0.1625   0.05
0.1625   0.1875   0.05
0.1625   0.2125   0.05
0.1625   0.2375   0.05
0.1625   0.2625   0.05
0.1625   0.2875   0.05
0.1625   0.3125   0.05
0.1625   0.3375   0.05
0.1625   0.3625   0.05
0.1625   0.3875   0.05
0.1625   0.4125   0.05
0.1625   0.4375   0.05
0.1625   0.4625   0.05
0.1625   0.4875   0.05
0.1625   0.5125   0.05
0.1625   0.5375   0.05
0.1625   0.5625   0.05
0.1625   0.5875   0.05
0.1625   0.6125   0.05
0.1625   0.6375   0.05
0.1625   0.6625   0.05
0.1625   0.6875   0.05
0.1625   0.7125   0.05
0.1625   0.7375   0.05
0.1625   0.7625   0.05
0.1625   0.7875   0.05
0.1625   0.8125   0.05
0.1625   0.8375   0.05
0.1625   0.8625   0.05
0.1625   0.8875   0.05
0.1625   0.9125   0.05
0.1625   0.9375   0.05
0.1625   0.9625   0.05
0.1625   0.9875   0.05
0.1875   0.0125   0.05
0.1875   0.0375   0.05
0.1875   0.0625   0.05
0.1875   0.0875   0.05
0.1875   0.1125   0.05
0.1875   0.1375   0.05
0.1875   0.1625   0.05
0.1875   0.1875   0.05
0.1875   0.2125   0.05
0.1875   0.2375   0.05
0.1875   0.2625   0.05
0.1875   0.2875   0.05
0.1875   0.3125   0.05
0.1875   0.3375   0.05
0.1875   0.3625   0.05
0.1875   0.3875   0.05
0.1875   0.4125   0.05
0.1875   0.4375   0.05
0.1875   0.4625   0.05
0.1875   0.4875   0.05
0.1875   0.5125   0.05
0.1875   0.5375   0.05
0.1875   0.5625   0.05
0.1875   0.5875   0.05
0.1875   0.6125   0.05
0.1875   0.6375   0.05
0.1875   0.6625   0.05
0.1875   0.6875   0.05
0.1875   0.7125   0.05
0.1875   0.7375   0.05
0.1875   0.7625   0.05
0.1875   0.7875   0.05
0.1875   0.8125   0.05
0.1875   0.8375   0.05
0.1875   0.8625   0.05
0.1875   0.8875   0.05
0.1875   0.9125   0.05
0.1875   0.9375   0.05
0.1875   0.9625   0.05
0.1875   0.9875   0.05
0.2125   0.0125   0.05
0.2125   0.0375   0.05
0.2125   0.0625   0.05
0.2125   0.0875   0.05
0.2125   0.1125   0.05
0.2125   0.1375   0.05
0.2125   0.1625   0.05
0.2125   0.1875   0.05
0.2125   0.2125   0.05
0.2125   0.2375   0.05
0.2125   0.2625   0.05
0.2125   0.2875   0.05
0.2125   0.3125   0.05
0.2125   0.3375   0.05
0.2125   0.3625   0.05
0.2125   0.3875   0.05
0.2125   0.4125   0.05
0.2125   0.4375   0.05
0.2125   0.4625   0.05
0.2125   0.4875   0.05
0.2125   0.5125   0.05
0.2125   0.5375   0.05
0.2125   0.5625   0.05
0.2125   0.5875   0.05
0.2125   0.6125   0.05
0.2125   0.6375   0.05
0.2125   0.6625   0.05
0.2125   0.6875   0.05
0.2125   0.7125   0.05
0.2125   0.7375   0.05
0.2125   0.7625   0.05
0.2125   0.7875   0.05
0.2125   0.8125   0.05
0.2125   0.8375   0.05
0.2125   0.8625   0.05
0.2125   0.8875   0.05
0.2125   0.9125   0.05
0.2125   0.9375   0.05
0.2125   0.9625   0.05
0.2125   0.9875   0.05
0.2375   0.0125   0.05
0.2375   0.0375   0.05
0.2375   0.0625   0.05
0.2375   0.0875   0.05
0.2375   0.1125   0.05
0.2375   0.1375   0.05
0.2375   0.1625   0.05
0.2375   0.1875   0.05
0.2375   0.2125   0.05
0.2375   0.2375   0.05
0.2375   0.2625   0.05
0.2375   0.2875   0.05
0.2375   0.3125   0.05
0.2375   0.3375   0.05
0.2375   0.3625   0.05
0.2375   0.3875   0.05
0.2375   0.4125   0.05
0.2375   0.4375   0.05
0.2375   0.4625   0.05
0.2375   0.4875   0.05
0.2375   0.5125   0.05
0.2375   0.5375   0.05
0.2375   0.5625   0.05
0.2375   0.5875   0.05
0.2375   0.6125   0.05
0.2375   0.6375   0.05
0.2375   0.6625   0.05
0.2375   0.6875   0.05
0.2375   0.7125   0.05
0.2375   0.7375   0.05
0.2375   0.7625   0.05
0.2375   0.7875   0.05
0.2375   0.8125   0.05
0.2375   0.8375   0.05
0.2375   0.8625   0.05
0.2375   0.8875   0.05
0.2375   0.9125   0.05
0.2375   0.9375   0.05
0.2375   0.9625   0.05
0.2375   0.9875   0.05
0.2625   0.0125   0.05
0.2625   0.0375   0.05
0.2625   0.0625   0.05
0.2625   0.0875   0.05
0.2625   0.1125   0.05
0.2625   0.1375   0.05
0.2625   0.1625   0.05
0.2625   0.1875   0.05
0.2625   0.2125   0.05
0.2625   0.2375   0.05
0.2625   0.2625   0.05
0.2625   0.2875   0.05
0.2625   0.3125   0.05
0.2625   0.3375   0.05
0.2625   0.3625   0.05
0.2625   0.3875   0.05
0.2625   0.4125   0.05
0.2625   0.4375   0.05
0.2625   0.4625   0.05
0.2625   0.4875   0.05
0.2625   0.5125   0.05
0.2625   0.5375   0.05
0.2625   0.5625   0.05
0.2625   0.5875   0.05
0.2625   0.6125   0.05
0.2625   0.6375   0.05
0.2625   0.6625   0.05
0.2625   0.6875   0.05
0.2625   0.7125   0.05
[...]
POINT_DATA   16000
VECTORS Velocidades double

0 0.321017 0
0 0.733462 0
0 0.857746 0
0 0.905599 0
0 0.928872 0
0 0.94233 0
0 0.951033 0
0 0.957072 0
0 0.961459 0
0 0.964744 0
0 0.967254 0
0 0.969194 0
0 0.970699 0
0 0.971861 0
0 0.972744 0
0 0.973393 0
0 0.973841 0
0 0.974108 0
0 0.97421 0
0 0.974155 0
0 0.973945 0
0 0.973579 0
0 0.973049 0
0 0.972342 0
0 0.971438 0
0 0.970311 0
0 0.968923 0
0 0.96722 0
0 0.965132 0
0 0.962554 0
0 0.959339 0
0 0.955266 0
0 0.949985 0
0 0.942916 0
0 0.932994 0
0 0.918038 0
0 0.89281 0
0 0.842285 0
0 0.715258 0
0 0.311318 0
0 0.187089 0
0 0.481103 0
0 0.64697 0
0 0.740168 0
0 0.795793 0
0 0.831369 0
0 0.855525 0
0 0.87271 0
0 0.88537 0
0 0.894932 0
0 0.902278 0
0 0.907978 0
0 0.912412 0
0 0.915842 0
0 0.918453 0
0 0.920375 0
0 0.921701 0
0 0.922493 0
0 0.922794 0
0 0.922629 0
0 0.922006 0
0 0.920918 0
0 0.919344 0
0 0.917247 0
0 0.914571 0
0 0.911236 0
0 0.907133 0
0 0.902111 0
0 0.895964 0
0 0.888404 0
0 0.879018 0
0 0.8672 0
0 0.852026 0
0 0.832023 0
0 0.80471 0
0 0.765659 0
0 0.706492 0
0 0.610765 0
0 0.447222 0
0 0.171707 0
0 0.12697 0
0 0.347239 0
0 0.503776 0
0 0.6095 0
0 0.681112 0
0 0.730804 0
0 0.766321 0
0 0.792426 0
0 0.812067 0
0 0.827116 0
0 0.838792 0
0 0.847916 0
0 0.855049 0
0 0.860589 0
0 0.864818 0
0 0.867935 0
0 0.870087 0
0 0.871374 0
0 0.871862 0
0 0.871589 0
0 0.870568 0
0 0.868792 0
0 0.866225 0
0 0.86281 0
0 0.858459 0
0 0.853048 0
0 0.846409 0
0 0.838312 0
0 0.828447 0
0 0.816387 0
0 0.801535 0
0 0.783044 0
0 0.759678 0
0 0.729586 0
0 0.689931 0
0 0.636282 0
0 0.561744 0
0 0.456156 0
0 0.30725 0
0 0.110197 0
0 0.0950791 0
0 0.268215 0
0 0.405797 0
0 0.50943 0
0 0.586105 0
0 0.64294 0
0 0.685537 0
0 0.71792 0
0 0.742876 0
0 0.762328 0
0 0.777612 0
0 0.789665 0
0 0.799155 0
0 0.806562 0
0 0.812236 0
0 0.816431 0
0 0.819331 0
0 0.821064 0
0 0.821717 0
0 0.82134 0
0 0.81995 0
0 0.817536 0
0 0.814056 0
0 0.809435 0
0 0.803561 0
0 0.796279 0
0 0.787378 0
0 0.776577 0
0 0.7635 0
0 0.747642 0
0 0.728321 0
0 0.704606 0
0 0.675208 0
0 0.638337 0
0 0.5915 0
0 0.531296 0
0 0.453344 0
0 0.352807 0
0 0.226546 0
0 0.0784018 0
0 0.0757293 0
0 0.217097 0
0 0.336433 0
0 0.432669 0
0 0.508445 0
0 0.56759 0
0 0.613766 0
0 0.649986 0
0 0.678575 0
0 0.701265 0
0 0.71934 0
0 0.733745 0
0 0.745176 0
0 0.754153 0
0 0.76106 0
0 0.766183 0
0 0.76973 0
0 0.771849 0
0 0.772641 0
0 0.772165 0
0 0.770441 0
0 0.767458 0
0 0.763166 0
0 0.757482 0
0 0.75028 0
0 0.741384 0
0 0.730562 0
0 0.717508 0
0 0.70182 0
0 0.682976 0
0 0.660295 0
0 0.632886 0
0 0.59959 0
0 0.558915 0
0 0.508986 0
0 0.447579 0
0 0.372371 0
0 0.281656 0
0 0.17584 0
0 0.0597009 0
0 0.0627522 0
0 0.181503 0
0 0.285343 0
0 0.372864 0
0 0.444893 0
0 0.503396 0
0 0.550636 0
0 0.58873 0
0 0.619471 0
0 0.644304 0
0 0.664361 0
0 0.68052 0
0 0.693454 0
0 0.703677 0
0 0.711581 0
0 0.717464 0
0 0.721544 0
0 0.723981 0
0 0.724883 0
0 0.724313 0
0 0.722298 0
0 0.718823 0
0 0.713838 0
0 0.707256 0
0 0.698945 0
0 0.688724 0
0 0.676355 0
0 0.661533 0
0 0.643866 0
0 0.62286 0
0 0.597895 0
0 0.568198 0
0 0.532829 0
0 0.490668 0
0 0.440458 0
0 0.380932 0
0 0.311109 0
0 0.230844 0
0 0.141657 0
0 0.0475782 0
0 0.0533923 0
0 0.155248 0
0 0.246281 0
0 0.325307 0
0 0.392444 0
0 0.448658 0
0 0.495309 0
0 0.533825 0
0 0.565528 0
0 0.591559 0
0 0.612866 0
0 0.630216 0
0 0.644222 0
0 0.655367 0
0 0.664028 0
0 0.670495 0
0 0.67499 0
0 0.677673 0
0 0.678653 0
0 0.677999 0
0 0.675737 0
0 0.671855 0
0 0.666305 0
0 0.658999 0
0 0.64981 0
0 0.638561 0
0 0.625026 0
0 0.608917 0
0 0.589879 0
0 0.567474 0
0 0.541178 0
0 0.510371 0
0 0.474347 0
0 0.432339 0
0 0.383593 0
0 0.327509 0
0 0.263877 0
0 0.193237 0
0 0.117281 0
0 0.0391358 0
0 0.0462722 0
0 0.134995 0
0 0.21543 0
0 0.286692 0
0 0.348647 0
0 0.401748 0
0 0.446795 0
0 0.484728 0
0 0.516492 0
0 0.542959 0
0 0.56489 0
0 0.582932 0
0 0.597616 0
0 0.609377 0
0 0.618563 0
0 0.625447 0
0 0.630239 0
0 0.633096 0
0 0.634126 0
0 0.633396 0
0 0.630935 0
0 0.626733 0
0 0.620746 0
0 0.612892 0
0 0.603052 0
0 0.591065 0
0 0.576725 0
0 0.559778 0
0 0.539916 0
0 0.516776 0
0 0.48994 0
0 0.458942 0
0 0.42329 0
0 0.382508 0
0 0.336208 0
0 0.28421 0
0 0.226712 0
0 0.164495 0
0 0.0991079 0
0 0.0329343 0
0 0.0406362 0
0 0.118817 0
0 0.190389 0
0 0.25472 0
0 0.311614 0
0 0.361261 0
0 0.404125 0
0 0.440815 0
0 0.471995 0
0 0.498313 0
0 0.520364 0
0 0.538674 0
0 0.553692 0
0 0.565797 0
0 0.575296 0
0 0.582438 0
0 0.587418 0
0 0.590382 0
0 0.591433 0
0 0.590638 0
0 0.588025 0
0 0.583588 0
0 0.577288 0
0 0.569054 0
0 0.55878 0
0 0.546324 0
0 0.531508 0
0 0.514118 0
0 0.493902 0
0 0.470572 0
0 0.443816 0
0 0.413304 0
0 0.378725 0
0 0.339817 0
0 0.296443 0
0 0.248671 0
0 0.196887 0
0 0.141911 0
0 0.0850682 0
0 0.02819 0
0 0.0360374 0
0 0.105534 0
0 0.169597 0
0 0.227787 0
0 0.279914 0
0 0.326041 0
0 0.36643 0
0 0.401472 0
0 0.431625 0
0 0.457363 0
0 0.479141 0
0 0.497378 0
0 0.512443 0
0 0.524655 0
0 0.534282 0
0 0.541542 0
0 0.54661 0
0 0.549621 0
0 0.55067 0
0 0.549821 0
0 0.547101 0
0 0.542509 0
0 0.536013 0
0 0.527553 0
0 0.51704 0
0 0.504354 0
0 0.489349 0
0 0.471852 0
0 0.451667 0
0 0.428578 0
0 0.402365 0
0 0.372816 0
0 0.339753 0
0 0.303073 0
0 0.262795 0
0 0.219123 0
0 0.172515 0
0 0.123739 0
0 0.0739068 0
0 0.0244434 0
0 0.0321952 0
0 0.0943884 0
0 0.152008 0
0 0.204756 0
0 0.252474 0
0 0.295163 0
0 0.332966 0
0 0.36613 0
0 0.394969 0
0 0.419824 0
0 0.441036 0
0 0.458934 0
0 0.473813 0
0 0.485938 0
0 0.495534 0
0 0.502791 0
0 0.507863 0
0 0.510869 0
0 0.511896 0
0 0.511003 0
0 0.508219 0
0 0.503545 0
0 0.496958 0
0 0.48841 0
0 0.477829 0
0 0.465119 0
0 0.450166 0
0 0.432836 0
0 0.412986 0
0 0.390463 0
0 0.365125 0
0 0.33685 0
0 0.305564 0
0 0.271267 0
0 0.234074 0
0 0.194254 0
0 0.152273 0
0 0.108822 0
0 0.0648239 0
0 0.021409 0
0 0.0289243 0
0 0.0848696 0
0 0.136897 0
0 0.184809 0
0 0.228481 0
0 0.267889 0
0 0.303106 0
0 0.334286 0
0 0.361638 0
0 0.385406 0
0 0.405843 0
0 0.423201 0
0 0.437713 0
0 0.449595 0
0 0.459032 0
0 0.466187 0
0 0.471191 0
0 0.474148 0
0 0.475138 0
0 0.474212 0
0 0.471401 0
0 0.466711 0
0 0.460125 0
0 0.451607 0
0 0.441103 0
0 0.428541 0
0 0.413835 0
0 0.396889 0
0 0.377604 0
0 0.355883 0
0 0.331644 0
0 0.304835 0
0 0.275454 0
0 0.243568 0
0 0.209347 0
0 0.173083 0
0 0.13522 0
0 0.0963651 0
0 0.0572884 0
0 0.0189003 0
0 0.0260975 0
0 0.0766239 0
0 0.123747 0
0 0.167343 0
0 0.207317 0
0 0.243636 0
0 0.276333 0
0 0.3055 0
0 0.331276 0
0 0.353831 0
0 0.373351 0
0 0.390024 0
0 0.404034 0
0 0.415551 0
0 0.42473 0
0 0.431701 0
0 0.436579 0
0 0.439453 0
0 0.440393 0
0 0.439447 0
0 0.436643 0
0 0.431992 0
0 0.425484 0
0 0.417096 0
0 0.406789 0
0 0.394512 0
0 0.380207 0
0 0.363809 0
0 0.345257 0
0 0.324498 0
0 0.3015 0
0 0.276259 0
0 0.248822 0
0 0.2193 0
0 0.187886 0
0 0.154873 0
0 0.120672 0
0 0.085811 0
0 0.0509354 0
0 0.0167908 0
0 0.0236246 0
0 0.0693973 0
0 0.112183 0
0 0.151907 0
0 0.188504 0
0 0.221938 0
0 0.252218 0
0 0.279398 0
0 0.303566 0
0 0.324838 0
0 0.34335 0
0 0.359241 0
0 0.372651 0
0 0.383716 0
0 0.392557 0
0 0.399285 0
0 0.403992 0
0 0.406757 0
0 0.407639 0
0 0.406682 0
0 0.403915 0
0 0.399349 0
0 0.392984 0
0 0.384806 0
0 0.374791 0
0 0.362907 0
0 0.349118 0
0 0.333388 0
0 0.315685 0
0 0.295992 0
0 0.274311 0
0 0.250676 0
0 0.225165 0
0 0.197911 0
0 0.169117 0
0 0.139065 0
0 0.108125 0
0 0.0767574 0
0 0.0455065 0
0 0.0149918 0
0 0.0214395 0
0 0.0630028 0
0 0.101922 0
0 0.13816 0
0 0.17167 0
0 0.202421 0
0 0.230408 0
0 0.255657 0
0 0.278225 0
0 0.298189 0
0 0.315643 0
0 0.33069 0
0 0.343435 0
0 0.353984 0
0 0.362433 0
0 0.368871 0
0 0.373376 0
0 0.376011 0
0 0.37683 0
0 0.375873 0
0 0.373166 0
0 0.368724 0
0 0.362553 0
0 0.354649 0
0 0.344999 0
0 0.333588 0
0 0.320399 0
0 0.305419 0
0 0.28864 0
0 0.27007 0
0 0.249738 0
0 0.227703 0
0 0.204061 0
0 0.178957 0
0 0.152591 0
0 0.125229 0
0 0.097201 0
0 0.068908 0
0 0.0408139 0
0 0.0134392 0
0 0.0194927 0
0 0.0572992 0
0 0.0927503 0
0 0.125834 0
0 0.156521 0
0 0.184782 0
0 0.210607 0
0 0.234005 0
0 0.255008 0
0 0.273666 0
0 0.290043 0
0 0.304213 0
0 0.316254 0
0 0.326246 0
0 0.334266 0
0 0.340383 0
0 0.344661 0
0 0.347154 0
0 0.347908 0
0 0.346959 0
0 0.344332 0
0 0.340045 0
0 0.334108 0
0 0.326524 0
0 0.317293 0
0 0.306413 0
0 0.293882 0
0 0.279702 0
0 0.263888 0
0 0.246465 0
0 0.22748 0
0 0.207008 0
0 0.185157 0
0 0.162072 0
0 0.137948 0
0 0.113029 0
0 0.0876097 0
0 0.0620402 0
0 0.036718 0
0 0.0120857 0
0 0.0177461 0
0 0.0521778 0
0 0.0845009 0
0 0.114721 0
0 0.142821 0
0 0.168776 0
0 0.192572 0
0 0.214208 0
0 0.233699 0
0 0.251074 0
0 0.266377 0
0 0.279659 0
0 0.290976 0
0 0.300389 0
0 0.307955 0
0 0.313731 0
0 0.317769 0
0 0.320112 0
0 0.320801 0
0 0.319868 0
0 0.317336 0
0 0.313227 0
0 0.307553 0
0 0.300325 0
0 0.291551 0
0 0.281239 0
0 0.269399 0
0 0.256049 0
0 0.241215 0
0 0.224937 0
0 0.207275 0
0 0.188311 0
0 0.168158 0
0 0.14696 0
0 0.124901 0
0 0.102202 0
0 0.0791277 0
0 0.0559834 0
0 0.0331128 0
0 0.0108956 0
0 0.0161701 0
0 0.0475534 0
0 0.0770417 0
0 0.104653 0
0 0.130378 0
0 0.154197 0
0 0.176095 0
0 0.196063 0
0 0.214105 0
0 0.230238 0
0 0.244486 0
0 0.256884 0
0 0.267473 0
0 0.276297 0
0 0.2834 0
0 0.288825 0
0 0.292614 0
0 0.294804 0
0 0.295429 0
0 0.294518 0
0 0.292095 0
0 0.28818 0
0 0.28279 0
0 0.275941 0
0 0.267647 0
0 0.257925 0
0 0.246794 0
0 0.234282 0
0 0.220425 0
0 0.205273 0
0 0.188892 0
0 0.171369 0
0 0.152818 0
0 0.133377 0
0 0.113216 0
0 0.0925381 0
0 0.0715786 0
0 0.0506051 0
0 0.0299164 0
0 0.0098413 0
0 0.014741 0
0 0.0433577 0
0 0.0702665 0
0 0.0954932 0
0 0.119035 0
0 0.140877 0
0 0.161002 0
0 0.179398 0
0 0.196062 0
0 0.210998 0
0 0.224222 0
0 0.235754 0
0 0.245623 0
0 0.253859 0
0 0.260496 0
0 0.265567 0
0 0.269106 0
0 0.271143 0
0 0.271707 0
0 0.270824 0
0 0.268517 0
0 0.264808 0
0 0.259715 0
0 0.253258 0
0 0.245457 0
0 0.236334 0
0 0.225916 0
0 0.214237 0
0 0.201341 0
0 0.187281 0
0 0.17213 0
0 0.155976 0
0 0.138928 0
0 0.121118 0
0 0.102703 0
0 0.0838683 0
0 0.064822 0
0 0.0458004 0
0 0.0270647 0
0 0.00890129 0
0 0.0134396 0
0 0.0395352 0
0 0.0640883 0
0 0.0871297 0
0 0.108661 0
0 0.128671 0
0 0.147142 0
0 0.164061 0
0 0.179419 0
0 0.193214 0
0 0.205451 0
0 0.216143 0
0 0.225307 0
0 0.232965 0
0 0.239141 0
0 0.243861 0
0 0.247152 0
0 0.249038 0
0 0.249544 0
0 0.248694 0
0 0.246509 0
0 0.243012 0
0 0.238224 0
0 0.232166 0
0 0.224861 0
0 0.216337 0
0 0.206625 0
0 0.195763 0
0 0.1838 0
0 0.170793 0
0 0.156815 0
0 0.141953 0
0 0.126311 0
0 0.110014 0
0 0.0932066 0
0 0.0760544 0
0 0.0587444 0
0 0.0414852 0
0 0.0245062 0
0 0.00805841 0
0 0.0122502 0
0 0.0360402 0
0 0.0584352 0
0 0.0794688 0
0 0.0991461 0
0 0.117458 0
0 0.134388 0
0 0.149921 0
0 0.164045 0
0 0.176755 0
0 0.188048 0
0 0.19793 0
0 0.206412 0
0 0.213507 0
0 0.219234 0
0 0.22361 0
0 0.226657 0
0 0.228396 0
0 0.228848 0
0 0.228035 0
0 0.225977 0
0 0.222696 0
0 0.218214 0
0 0.212554 0
0 0.205742 0
0 0.197808 0
0 0.188788 0
0 0.178721 0
0 0.167658 0
0 0.155658 0
0 0.142792 0
0 0.129145 0
0 0.114817 0
0 0.0999229 0
0 0.0845948 0
0 0.0689824 0
0 0.053253 0
0 0.0375913 0
0 0.0221996 0
0 0.00729884 0
0 0.0111595 0
0 0.0328342 0
0 0.0532465 0
0 0.072431 0
0 0.0903951 0
0 0.107131 0
0 0.122625 0
0 0.13686 0
0 0.149823 0
0 0.161504 0
0 0.171899 0
0 0.181006 0
0 0.188832 0
0 0.195384 0
0 0.200674 0
0 0.204717 0
0 0.207529 0
0 0.209126 0
0 0.209529 0
0 0.208755 0
0 0.206825 0
0 0.20376 0
0 0.199582 0
0 0.194316 0
0 0.187988 0
0 0.180632 0
0 0.172282 0
0 0.162982 0
0 0.152781 0
0 0.141739 0
0 0.129925 0
0 0.11742 0
0 0.104317 0
0 0.0907229 0
0 0.0767581 0
0 0.0625577 0
0 0.0482712 0
0 0.0340625 0
0 0.0201108 0
0 0.00661125 0
0 0.0101563 0
0 0.0298849 0
0 0.0484707 0
0 0.0659485 0
0 0.082327 0
0 0.0976004 0
0 0.111755 0
0 0.124775 0
0 0.136646 0
0 0.147357 0
0 0.156898 0
0 0.165268 0
0 0.172465 0
0 0.178496 0
0 0.183367 0
0 0.187089 0
0 0.189674 0
0 0.191137 0
0 0.191494 0
0 0.190762 0
0 0.18896 0
0 0.186108 0
0 0.18223 0
0 0.177349 0
0 0.171494 0
0 0.164697 0
0 0.156994 0
0 0.148429 0
0 0.139051 0
0 0.128918 0
0 0.118095 0
0 0.10666 0
0 0.0946988 0
0 0.0823101 0
0 0.0696034 0
0 0.0567003 0
0 0.0437345 0
0 0.0308519 0
0 0.0182115 0
0 0.00598626 0
0 0.0092311 0
0 0.0271641 0
0 0.0440632 0
0 0.0599622 0
0 0.0748709 0
0 0.0887845 0
0 0.10169 0
0 0.113574 0
0 0.124419 0
0 0.134214 0
0 0.142949 0
0 0.150617 0
0 0.157217 0
0 0.162749 0
0 0.167219 0
0 0.170633 0
0 0.173002 0
0 0.174337 0
0 0.174652 0
0 0.173964 0
0 0.172289 0
0 0.169648 0
0 0.166062 0
0 0.161556 0
0 0.156158 0
0 0.1499 0
0 0.142818 0
0 0.134955 0
0 0.126359 0
0 0.117084 0
0 0.107195 0
0 0.0967616 0
0 0.085865 0
0 0.0745949 0
0 0.0630508 0
0 0.0513422 0
0 0.0395886 0
0 0.0279202 0
0 0.0164781 0
0 0.00541601 0
0 0.00837549 0
0 0.0246476 0
0 0.0399851 0
0 0.0544207 0
0 0.0679643 0
0 0.0806121 0
0 0.0923528 0
0 0.103172 0
0 0.113054 0
0 0.121987 0
0 0.12996 0
0 0.136964 0
0 0.142996 0
0 0.148054 0
0 0.152141 0
0 0.155263 0
0 0.157425 0
0 0.15864 0
0 0.158917 0
0 0.158273 0
0 0.156724 0
0 0.154287 0
0 0.150985 0
0 0.146841 0
0 0.141883 0
0 0.136143 0
0 0.129655 0
0 0.122461 0
0 0.114606 0
0 0.106142 0
0 0.0971297 0
0 0.0876345 0
0 0.0777303 0
0 0.0674993 0
0 0.0570313 0
0 0.046425 0
0 0.0357871 0
0 0.0252338 0
0 0.0148904 0
0 0.00489381 0
0 0.00758216 0
0 0.0223139 0
0 0.0362023 0
0 0.0492782 0
0 0.0615515 0
0 0.0730193 0
0 0.0836712 0
0 0.0934937 0
0 0.102472 0
0 0.110594 0
0 0.117847 0
0 0.124223 0
0 0.129716 0
0 0.134324 0
0 0.138049 0
0 0.140891 0
0 0.142859 0
0 0.143959 0
0 0.144203 0
0 0.143604 0
0 0.142177 0
0 0.139939 0
0 0.136911 0
0 0.133116 0
0 0.128581 0
0 0.123336 0
0 0.117414 0
0 0.110854 0
0 0.103701 0
0 0.0960025 0
0 0.0878143 0
0 0.0791973 0
0 0.0702193 0
0 0.0609548 0
0 0.0514849 0
0 0.041898 0
0 0.0322898 0
0 0.0227636 0
0 0.0134312 0
0 0.00441393 0
0 0.0068446 0
0 0.020144 0
0 0.0326841 0
0 0.0444938 0
0 0.0555827 0
0 0.0659485 0
0 0.0755818 0
0 0.0844699 0
0 0.0925992 0
0 0.0999567 0
0 0.106531 0
0 0.112313 0
0 0.117297 0
0 0.121479 0
0 0.124858 0
0 0.127437 0
0 0.12922 0
0 0.130213 0
0 0.130427 0
0 0.129873 0
0 0.128564 0
0 0.126519 0
0 0.123755 0
0 0.120296 0
0 0.116165 0
0 0.111392 0
0 0.106009 0
0 0.100052 0
0 0.0935619 0
0 0.0865848 0
0 0.0791714 0
0 0.0713775 0
0 0.0632648 0
0 0.0549008 0
0 0.0463584 0
0 0.037717 0
0 0.0290617 0
0 0.0204847 0
0 0.0120853 0
0 0.00397141 0
0 0.00615695 0
0 0.0181208 0
0 0.0294031 0
0 0.0400306 0
0 0.0500126 0
0 0.0593471 0
0 0.0680257 0
0 0.0760368 0
0 0.0833674 0
0 0.0900053 0
0 0.0959393 0
0 0.10116 0
0 0.105662 0
0 0.10944 0
0 0.112493 0
0 0.114821 0
0 0.116429 0
0 0.117322 0
0 0.117509 0
0 0.116999 0
0 0.115807 0
0 0.113947 0
0 0.111437 0
0 0.108298 0
0 0.104554 0
0 0.100231 0
0 0.0953602 0
0 0.0899747 0
0 0.0841125 0
0 0.0778158 0
0 0.0711311 0
0 0.0641094 0
0 0.0568066 0
0 0.0492832 0
0 0.041605 0
0 0.0338426 0
0 0.026072 0
0 0.0183749 0
0 0.0108396 0
0 0.00356189 0
0 0.00551394 0
0 0.0162287 0
0 0.0263342 0
0 0.035855 0
0 0.0447998 0
0 0.0531669 0
0 0.060949 0
0 0.0681352 0
0 0.0747138 0
0 0.0806729 0
0 0.0860021 0
0 0.0906926 0
0 0.0947377 0
0 0.0981329 0
0 0.100876 0
0 0.102968 0
0 0.104411 0
0 0.10521 0
0 0.105372 0
0 0.104907 0
0 0.103826 0
0 0.102145 0
0 0.0998785 0
0 0.097047 0
0 0.0936719 0
0 0.0897784 0
0 0.0853941 0
0 0.0805505 0
0 0.0752823 0
0 0.069628 0
0 0.0636297 0
0 0.0573337 0
0 0.0507902 0
0 0.0440536 0
0 0.0371826 0
0 0.0302399 0
0 0.0232931 0
0 0.0164146 0
0 0.0096824 0
0 0.00318153 0
0 0.0049107 0
0 0.0144535 0
0 0.0234546 0
0 0.0319362 0
0 0.0399063 0
0 0.0473636 0
0 0.0543016 0
0 0.0607104 0
0 0.0665791 0
0 0.071897 0
0 0.0766543 0
0 0.0808424 0
0 0.0844549 0
0 0.0874873 0
0 0.0899372 0
0 0.0918046 0
0 0.0930913 0
0 0.0938016 0
0 0.0939419 0
0 0.0935207 0
0 0.0925487 0
0 0.0910388 0
0 0.0890062 0
0 0.0864686 0
0 0.0834461 0
0 0.0799616 0
0 0.0760405 0
0 0.0717114 0
0 0.0670059 0
0 0.0619589 0
0 0.0566083 0
0 0.0509958 0
0 0.0451662 0
0 0.039168 0
0 0.0330532 0
0 0.0268775 0
0 0.0207005 0
0 0.0145862 0
0 0.00860335 0
0 0.00282687 0
0 0.00434279 0
0 0.0127822 0
0 0.0207432 0
0 0.0282456 0
0 0.0352968 0
0 0.0418958 0
0 0.0480367 0
0 0.0537107 0
0 0.058908 0
0 0.0636187 0
0 0.0678338 0
0 0.0715454 0
0 0.0747474 0
0 0.0774353 0
0 0.0796066 0
0 0.081261 0
0 0.0824 0
0 0.083027 0
0 0.0831478 0
0 0.0827697 0
0 0.0819025 0
0 0.0805578 0
0 0.0787494 0
0 0.0764933 0
0 0.0738077 0
0 0.0707134 0
0 0.0672334 0
0 0.0633936 0
0 0.0592223 0
0 0.0547507 0
0 0.0500129 0
0 0.0450457 0
0 0.0398892 0
0 0.0345861 0
0 0.0291823 0
0 0.0237268 0
0 0.018272 0
0 0.0128739 0
0 0.00759299 0
0 0.00249482 0
0 0.00380605 0
0 0.0112026 0
0 0.0181802 0
0 0.0247566 0
0 0.0309384 0
0 0.0367248 0
0 0.0421105 0
0 0.0470878 0
0 0.051648 0
0 0.0557822 0
0 0.0594821 0
0 0.0627406 0
0 0.0655519 0
0 0.0679119 0
0 0.0698182 0
0 0.0712702 0
0 0.0722689 0
0 0.0728174 0
0 0.0729205 0
0 0.0725849 0
0 0.0718191 0
0 0.0706335 0
0 0.0690404 0
0 0.0670542 0
0 0.0646912 0
0 0.0619698 0
0 0.0589109 0
0 0.0555372 0
0 0.0518742 0
0 0.0479493 0
0 0.0437928 0
0 0.0394371 0
0 0.0349173 0
0 0.030271 0
0 0.0255381 0
0 0.0207617 0
0 0.0159871 0
0 0.0112633 0
0 0.00664274 0
0 0.00218255 0
0 0.00329659 0
0 0.00970317 0
0 0.0157472 0
0 0.0214443 0
0 0.0268001 0
0 0.031814 0
0 0.0364815 0
0 0.0407959 0
0 0.0447494 0
0 0.0483341 0
0 0.0515429 0
0 0.0543691 0
0 0.0568078 0
0 0.0588549 0
0 0.0605083 0
0 0.0617672 0
0 0.0626325 0
0 0.0631067 0
0 0.0631939 0
0 0.0629 0
0 0.0622324 0
0 0.0612002 0
0 0.0598143 0
0 0.0580874 0
0 0.0560338 0
0 0.0536699 0
0 0.0510138 0
0 0.0480857 0
0 0.0449078 0
0 0.0415041 0
0 0.037901 0
0 0.0341267 0
0 0.0302116 0
0 0.0261884 0
0 0.0220915 0
0 0.017958 0
0 0.0138272 0
0 0.00974104 0
0 0.00574474 0
0 0.00188746 0
0 0.00281076 0
0 0.00827325 0
0 0.0134269 0
0 0.0182849 0
0 0.0228524 0
0 0.0271289 0
0 0.0311104 0
0 0.0347912 0
0 0.0381646 0
0 0.0412238 0
0 0.0439625 0
0 0.0463749 0
0 0.0484566 0
0 0.0502041 0
0 0.0516153 0
0 0.0526895 0
0 0.0534274 0
0 0.053831 0
0 0.0539038 0
0 0.0536508 0
0 0.0530784 0
0 0.0521945 0
0 0.0510086 0
0 0.0495315 0
0 0.0477757 0
0 0.0457553 0
0 0.043486 0
0 0.0409852 0
0 0.038272 0
0 0.035367 0
0 0.0322929 0
0 0.0290738 0
0 0.0257357 0
0 0.0223063 0
0 0.0188151 0
0 0.0152935 0
0 0.0117748 0
0 0.00829479 0
0 0.00489166 0
0 0.00160715 0
0 0.00234507 0
0 0.00690257 0
0 0.0112025 0
0 0.0152561 0
0 0.0190675 0
0 0.0226364 0
0 0.0259595 0
0 0.029032 0
0 0.0318482 0
0 0.0344024 0
0 0.0366891 0
0 0.0387037 0
0 0.0404421 0
0 0.0419014 0
0 0.0430798 0
0 0.0439765 0
0 0.0445921 0
0 0.0449282 0
0 0.0449878 0
0 0.0447751 0
0 0.0442953 0
0 0.0435553 0
0 0.0425628 0
0 0.0413272 0
0 0.039859 0
0 0.03817 0
0 0.0362736 0
0 0.0341843 0
0 0.0319181 0
0 0.0294926 0
0 0.0269265 0
0 0.0242401 0
0 0.0214551 0
0 0.0185946 0
0 0.0156832 0
0 0.012747 0
0 0.00981372 0
0 0.006913 0
0 0.00407668 0
0 0.00133937 0
0 0.00189618 0
0 0.00558132 0
0 0.0090583 0
0 0.0123362 0
0 0.0154185 0
0 0.0183048 0
0 0.0209926 0
0 0.0234779 0
0 0.0257562 0
0 0.0278226 0
0 0.0296728 0
0 0.0313029 0
0 0.0327095 0
0 0.0338903 0
0 0.0348437 0
0 0.0355691 0
0 0.0360668 0
0 0.0363382 0
0 0.0363856 0
0 0.0362125 0
0 0.0358231 0
0 0.035223 0
0 0.0344186 0
0 0.0334174 0
0 0.032228 0
0 0.0308602 0
0 0.0293247 0
0 0.0276335 0
0 0.0257996 0
0 0.0238371 0
0 0.0217614 0
0 0.0195888 0
0 0.017337 0
0 0.0150246 0
0 0.0126714 0
0 0.0102986 0
0 0.0079284 0
0 0.00558477 0
0 0.00329333 0
0 0.00108199 0
0 0.00146088 0
0 0.00430007 0
0 0.00697893 0
0 0.0095045 0
0 0.0118795 0
0 0.0141036 0
0 0.0161748 0
0 0.0180901 0
0 0.019846 0
0 0.0214387 0
0 0.0228649 0
0 0.0241214 0
0 0.0252057 0
0 0.0261159 0
0 0.0268508 0
0 0.0274098 0
0 0.0277932 0
0 0.028002 0
0 0.0280381 0
0 0.027904 0
0 0.0276032 0
0 0.0271397 0
0 0.0265188 0
0 0.0257462 0
0 0.0248286 0
0 0.0237735 0
0 0.0225893 0
0 0.0212853 0
0 0.0198714 0
0 0.0183587 0
0 0.0167591 0
0 0.015085 0
0 0.0133502 0
0 0.011569 0
0 0.0097566 0
0 0.00792926 0
0 0.00610418 0
0 0.00429968 0
0 0.00253548 0
0 0.000833001 0
0 0.00103607 0
0 0.00304964 0
0 0.00494953 0
0 0.00674076 0
0 0.00842522 0
0 0.0100028 0
0 0.0114719 0
0 0.0128306 0
0 0.0140761 0
0 0.0152061 0
0 0.0162179 0
0 0.0171093 0
0 0.0178786 0
0 0.0185244 0
0 0.0190457 0
0 0.0194422 0