# vtk DataFile Version 2.0
Velocidades
ASCII

DATASET STRUCTURED_GRID
DIMENSIONS   40   40   10

POINTS   16000   double
0.0125   0.0125   0.05
0.0125   0.0375   0.05
0.0125   0.0625   0.05
0.0125   0.0875   0.05
0.0125   0.1125   0.05
0.0125   0.1375   0.05
0.0125   0.1625   0.05
0.0125   0.1875   0.05
0.0125   0.2125   0.05
0.0125   0.2375   0.05
0.0125   0.2625   0.05
0.0125   0.2875   0.05
0.0125   0.3125   0.05
0.0125   0.3375   0.05
0.0125   0.3625   0.05
0.0125   0.3875   0.05
0.0125   0.4125   0.05
0.0125   0.4375   0.05
0.0125   0.4625   0.05
0.0125   0.4875   0.05
0.0125   0.5125   0.05
0.0125   0.5375   0.05
0.0125   0.5625   0.05
0.0125   0.5875   0.05
0.0125   0.6125   0.05
0.0125   0.6375   0.05
0.0125   0.6625   0.05
0.0125   0.6875   0.05
0.0125   0.7125   0.05
0.0125   0.7375   0.05
0.0125   0.7625   0.05
0.0125   0.7875   0.05
0.0125   0.8125   0.05
0.0125   0.8375   0.05
0.0125   0.8625   0.05
0.0125   0.8875   0.05
0.0125   0.9125   0.05
0.0125   0.9375   0.05
0.0125   0.9625   0.05
0.0125   0.9875   0.05
0.0375   0.0125   0.05
0.0375   0.0375   0.05
0.0375   0.0625   0.05
0.0375   0.0875   0.05
0.0375   0.1125   0.05
0.0375   0.1375   0.05
0.0375   0.1625   0.05
0.0375   0.1875   0.05
0.0375   0.2125   0.05
0.0375   0.2375   0.05
0.0375   0.2625   0.05
0.0375   0.2875   0.05
0.0375   0.3125   0.05
0.0375   0.3375   0.05
0.0375   0.3625   0.05
0.0375   0.3875   0.05
0.0375   0.4125   0.05
0.0375   0.4375   0.05
0.0375   0.4625   0.05
0.0375   0.4875   0.05
0.0375   0.5125   0.05
0.0375   0.5375   0.05
0.0375   0.5625   0.05
0.0375   0.5875   0.05
0.0375   0.6125   0.05
0.0375   0.6375   0.05
0.0375   0.6625   0.05
0.0375   0.6875   0.05
0.0375   0.7125   0.05
0.0375   0.7375   0.05
0.0375   0.7625   0.05
0.0375   0.7875   0.05
0.0375   0.8125   0.05
0.0375   0.8375   0.05
0.0375   0.8625   0.05
0.0375   0.8875   0.05
0.0375   0.9125   0.05
0.0375   0.9375   0.05
0.0375   0.9625   0.05
0.0375   0.9875   0.05
0.0625   0.0125   0.05
0.0625   0.0375   0.05
0.0625   0.0625   0.05
0.0625   0.0875   0.05
0.0625   0.1125   0.05
0.0625   0.1375   0.05
0.0625   0.1625   0.05
0.0625   0.1875   0.05
0.0625   0.2125   0.05
0.0625   0.2375   0.05
0.0625   0.2625   0.05
0.0625   0.2875   0.05
0.0625   0.3125   0.05
0.0625   0.3375   0.05
0.0625   0.3625   0.05
0.0625   0.3875   0.05
0.0625   0.4125   0.05
0.0625   0.4375   0.05
0.0625   0.4625   0.05
0.0625   0.4875   0.05
0.0625   0.5125   0.05
0.0625   0.5375   0.05
0.0625   0.5625   0.05
0.0625   0.5875   0.05
0.0625   0.6125   0.05
0.0625   0.6375   0.05
0.0625   0.6625   0.05
0.0625   0.6875   0.05
0.0625   0.7125   0.05
0.0625   0.7375   0.05
0.0625   0.7625   0.05
0.0625   0.7875   0.05
0.0625   0.8125   0.05
0.0625   0.8375   0.05
0.0625   0.8625   0.05
0.0625   0.8875   0.05
0.0625   0.9125   0.05
0.0625   0.9375   0.05
0.0625   0.9625   0.05
0.0625   0.9875   0.05
0.0875   0.0125   0.05
0.0875   0.0375   0.05
0.0875   0.0625   0.05
0.0875   0.0875   0.05
0.0875   0.1125   0.05
0.0875   0.1375   0.05
0.0875   0.1625   0.05
0.0875   0.1875   0.05
0.0875   0.2125   0.05
0.0875   0.2375   0.05
0.0875   0.2625   0.05
0.0875   0.2875   0.05
0.0875   0.3125   0.05
0.0875   0.3375   0.05
0.0875   0.3625   0.05
0.0875   0.3875   0.05
0.0875   0.4125   0.05
0.0875   0.4375   0.05
0.0875   0.4625   0.05
0.0875   0.4875   0.05
0.0875   0.5125   0.05
0.0875   0.5375   0.05
0.0875   0.5625   0.05
0.0875   0.5875   0.05
0.0875   0.6125   0.05
0.0875   0.6375   0.05
0.0875   0.6625   0.05
0.0875   0.6875   0.05
0.0875   0.7125   0.05
0.0875   0.7375   0.05
0.0875   0.7625   0.05
0.0875   0.7875   0.05
0.0875   0.8125   0.05
0.0875   0.8375   0.05
0.0875   0.8625   0.05
0.0875   0.8875   0.05
0.0875   0.9125   0.05
0.0875   0.9375   0.05
0.0875   0.9625   0.05
0.0875   0.9875   0.05
0.1125   0.0125   0.05
0.1125   0.0375   0.05
0.1125   0.0625   0.05
0.1125   0.0875   0.05
0.1125   0.1125   0.05
0.1125   0.1375   0.05
0.1125   0.1625   0.05
0.1125   0.1875   0.05
0.1125   0.2125   0.05
0.1125   0.2375   0.05
0.1125   0.2625   0.05
0.1125   0.2875   0.05
0.1125   0.3125   0.05
0.1125   0.3375   0.05
0.1125   0.3625   0.05
0.1125   0.3875   0.05
0.1125   0.4125   0.05
0.1125   0.4375   0.05
0.1125   0.4625   0.05
0.1125   0.4875   0.05
0.1125   0.5125   0.05
0.1125   0.5375   0.05
0.1125   0.5625   0.05
0.1125   0.5875   0.05
0.1125   0.6125   0.05
0.1125   0.6375   0.05
0.1125   0.6625   0.05
0.1125   0.6875   0.05
0.1125   0.7125   0.05
0.1125   0.7375   0.05
0.1125   0.7625   0.05
0.1125   0.7875   0.05
0.1125   0.8125   0.05
0.1125   0.8375   0.05
0.1125   0.8625   0.05
0.1125   0.8875   0.05
0.1125   0.9125   0.05
0.1125   0.9375   0.05
0.1125   0.9625   0.05
0.1125   0.9875   0.05
0.1375   0.0125   0.05
0.1375   0.0375   0.05
0.1375   0.0625   0.05
0.1375   0.0875   0.05
0.1375   0.1125   0.05
0.1375   0.1375   0.05
0.1375   0.1625   0.05
0.1375   0.1875   0.05
0.1375   0.2125   0.05
0.1375   0.2375   0.05
0.1375   0.2625   0.05
0.1375   0.2875   0.05
0.1375   0.3125   0.05
0.1375   0.3375   0.05
0.1375   0.3625   0.05
0.1375   0.3875   0.05
0.1375   0.4125   0.05
0.1375   0.4375   0.05
0.1375   0.4625   0.05
0.1375   0.4875   0.05
0.1375   0.5125   0.05
0.1375   0.5375   0.05
0.1375   0.5625   0.05
0.1375   0.5875   0.05
0.1375   0.6125   0.05
0.1375   0.6375   0.05
0.1375   0.6625   0.05
0.1375   0.6875   0.05
0.1375   0.7125   0.05
0.1375   0.7375   0.05
0.1375   0.7625   0.05
0.1375   0.7875   0.05
0.1375   0.8125   0.05
0.1375   0.8375   0.05
0.1375   0.8625   0.05
0.1375   0.8875   0.05
0.1375   0.9125   0.05
0.1375   0.9375   0.05
0.1375   0.9625   0.05
0.1375   0.9875   0.05
0.1625   0.0125   0.05
0.1625   0.0375   0.05
0.1625   0.0625   0.05
0.1625   0.0875   0.05
0.1625   0.1125   0.05
0.1625   0.1375   0.05
0.1625   0.1625   0.05
0.1625   0.1875   0.05
0.1625   0.2125   0.05
0.1625   0.2375   0.05
0.1625   0.2625   0.05
0.1625   0.2875   0.05
0.1625   0.3125   0.05
0.1625   0.3375   0.05
0.1625   0.3625   0.05
0.1625   0.3875   0.05
0.1625   0.4125   0.05
0.1625   0.4375   0.05
0.1625   0.4625   0.05
0.1625   0.4875   0.05
0.1625   0.5125   0.05
0.1625   0.5375   0.05
0.1625   0.5625   0.05
0.1625   0.5875   0.05
0.1625   0.6125   0.05
0.1625   0.6375   0.05
0.1625   0.6625   0.05
0.1625   0.6875   0.05
0.1625   0.7125   0.05
0.1625   0.7375   0.05
0.1625   0.7625   0.05
0.1625   0.7875   0.05
0.1625   0.8125   0.05
0.1625   0.8375   0.05
0.1625   0.8625   0.05
0.1625   0.8875   0.05
0.1625   0.9125   0.05
0.1625   0.9375   0.05
0.1625   0.9625   0.05
0.1625   0.9875   0.05
0.1875   0.0125   0.05
0.1875   0.0375   0.05
0.1875   0.0625   0.05
0.1875   0.0875   0.05
0.1875   0.1125   0.05
0.1875   0.1375   0.05
0.1875   0.1625   0.05
0.1875   0.1875   0.05
0.1875   0.2125   0.05
0.1875   0.2375   0.05
0.1875   0.2625   0.05
0.1875   0.2875   0.05
0.1875   0.3125   0.05
0.1875   0.3375   0.05
0.1875   0.3625   0.05
0.1875   0.3875   0.05
0.1875   0.4125   0.05
0.1875   0.4375   0.05
0.1875   0.4625   0.05
0.1875   0.4875   0.05
0.1875   0.5125   0.05
0.1875   0.5375   0.05
0.1875   0.5625   0.05
0.1875   0.5875   0.05
0.1875   0.6125   0.05
0.1875   0.6375   0.05
0.1875   0.6625   0.05
0.1875   0.6875   0.05
0.1875   0.7125   0.05
0.1875   0.7375   0.05
0.1875   0.7625   0.05
0.1875   0.7875   0.05
0.1875   0.8125   0.05
0.1875   0.8375   0.05
0.1875   0.8625   0.05
0.1875   0.8875   0.05
0.1875   0.9125   0.05
0.1875   0.9375   0.05
0.1875   0.9625   0.05
0.1875   0.9875   0.05
0.2125   0.0125   0.05
0.2125   0.0375   0.05
0.2125   0.0625   0.05
0.2125   0.0875   0.05
0.2125   0.1125   0.05
0.2125   0.1375   0.05
0.2125   0.1625   0.05
0.2125   0.1875   0.05
0.2125   0.2125   0.05
0.2125   0.2375   0.05
0.2125   0.2625   0.05
0.2125   0.2875   0.05
0.2125   0.3125   0.05
0.2125   0.3375   0.05
0.2125   0.3625   0.05
0.2125   0.3875   0.05
0.2125   0.4125   0.05
0.2125   0.4375   0.05
0.2125   0.4625   0.05
0.2125   0.4875   0.05
0.2125   0.5125   0.05
0.2125   0.5375   0.05
0.2125   0.5625   0.05
0.2125   0.5875   0.05
0.2125   0.6125   0.05
0.2125   0.6375   0.05
0.2125   0.6625   0.05
0.2125   0.6875   0.05
0.2125   0.7125   0.05
0.2125   0.7375   0.05
0.2125   0.7625   0.05
0.2125   0.7875   0.05
0.2125   0.8125   0.05
0.2125   0.8375   0.05
0.2125   0.8625   0.05
0.2125   0.8875   0.05
0.2125   0.9125   0.05
0.2125   0.9375   0.05
0.2125   0.9625   0.05
0.2125   0.9875   0.05
0.2375   0.0125   0.05
0.2375   0.0375   0.05
0.2375   0.0625   0.05
0.2375   0.0875   0.05
0.2375   0.1125   0.05
0.2375   0.1375   0.05
0.2375   0.1625   0.05
0.2375   0.1875   0.05
0.2375   0.2125   0.05
0.2375   0.2375   0.05
0.2375   0.2625   0.05
0.2375   0.2875   0.05
0.2375   0.3125   0.05
0.2375   0.3375   0.05
0.2375   0.3625   0.05
0.2375   0.3875   0.05
0.2375   0.4125   0.05
0.2375   0.4375   0.05
0.2375   0.4625   0.05
0.2375   0.4875   0.05
0.2375   0.5125   0.05
0.2375   0.5375   0.05
0.2375   0.5625   0.05
0.2375   0.5875   0.05
0.2375   0.6125   0.05
0.2375   0.6375   0.05
0.2375   0.6625   0.05
0.2375   0.6875   0.05
0.2375   0.7125   0.05
0.2375   0.7375   0.05
0.2375   0.7625   0.05
0.2375   0.7875   0.05
0.2375   0.8125   0.05
0.2375   0.8375   0.05
0.2375   0.8625   0.05
0.2375   0.8875   0.05
0.2375   0.9125   0.05
0.2375   0.9375   0.05
0.2375   0.9625   0.05
0.2375   0.9875   0.05
0.2625   0.0125   0.05
0.2625   0.0375   0.05
0.2625   0.0625   0.05
0.2625   0.0875   0.05
0.2625   0.1125   0.05
0.2625   0.1375   0.05
0.2625   0.1625   0.05
0.2625   0.1875   0.05
0.2625   0.2125   0.05
0.2625   0.2375   0.05
0.2625   0.2625   0.05
0.2625   0.2875   0.05
0.2625   0.3125   0.05
0.2625   0.3375   0.05
0.2625   0.3625   0.05
0.2625   0.3875   0.05
0.2625   0.4125   0.05
0.2625   0.4375   0.05
0.2625   0.4625   0.05
0.2625   0.4875   0.05
0.2625   0.5125   0.05
0.2625   0.5375   0.05
0.2625   0.5625   0.05
0.2625   0.5875   0.05
0.2625   0.6125   0.05
0.2625   0.6375   0.05
0.2625   0.6625   0.05
0.2625   0.6875   0.05
0.2625   0.7125   0.05
[...]
POINT_DATA   16000
VECTORS Velocidades double

0 0.32101 0
0 0.733443 0
0 0.857714 0
0 0.905556 0
0 0.928818 0
0 0.942266 0
0 0.95096 0
0 0.95699 0
0 0.961369 0
0 0.964647 0
0 0.967151 0
0 0.969085 0
0 0.970585 0
0 0.971743 0
0 0.972623 0
0 0.97327 0
0 0.973716 0
0 0.973982 0
0 0.974084 0
0 0.97403 0
0 0.973822 0
0 0.973457 0
0 0.97293 0
0 0.972227 0
0 0.971327 0
0 0.970205 0
0 0.968822 0
0 0.967126 0
0 0.965043 0
0 0.962472 0
0 0.959265 0
0 0.955199 0
0 0.949927 0
0 0.942865 0
0 0.932951 0
0 0.918003 0
0 0.892783 0
0 0.842266 0
0 0.715247 0
0 0.311314 0
0 0.187069 0
0 0.481045 0
0 0.646875 0
0 0.74004 0
0 0.795632 0
0 0.831178 0
0 0.855306 0
0 0.872466 0
0 0.885102 0
0 0.894642 0
0 0.901969 0
0 0.907652 0
0 0.912071 0
0 0.91549 0
0 0.918091 0
0 0.920006 0
0 0.921326 0
0 0.922116 0
0 0.922417 0
0 0.922254 0
0 0.921635 0
0 0.920554 0
0 0.918989 0
0 0.916903 0
0 0.914239 0
0 0.910919 0
0 0.906832 0
0 0.901828 0
0 0.8957 0
0 0.88816 0
0 0.878796 0
0 0.867 0
0 0.851849 0
0 0.83187 0
0 0.804581 0
0 0.765554 0
0 0.706412 0
0 0.610709 0
0 0.447188 0
0 0.171696 0
0 0.126937 0
0 0.347142 0
0 0.50362 0
0 0.609287 0
0 0.680846 0
0 0.730488 0
0 0.765959 0
0 0.792021 0
0 0.811623 0
0 0.826635 0
0 0.83828 0
0 0.847375 0
0 0.854485 0
0 0.860004 0
0 0.864216 0
0 0.867322 0
0 0.869466 0
0 0.870748 0
0 0.871235 0
0 0.870966 0
0 0.869953 0
0 0.868187 0
0 0.865635 0
0 0.862238 0
0 0.857908 0
0 0.852521 0
0 0.845909 0
0 0.837842 0
0 0.828009 0
0 0.815983 0
0 0.801167 0
0 0.782713 0
0 0.759385 0
0 0.729333 0
0 0.689718 0
0 0.636109 0
0 0.561611 0
0 0.456062 0
0 0.307195 0
0 0.110178 0
0 0.0950336 0
0 0.268081 0
0 0.40558 0
0 0.509134 0
0 0.585735 0
0 0.6425 0
0 0.685033 0
0 0.717356 0
0 0.742257 0
0 0.76166 0
0 0.776899 0
0 0.788913 0
0 0.798369 0
0 0.805748 0
0 0.8114 0
0 0.815578 0
0 0.818466 0
0 0.820193 0
0 0.820846 0
0 0.820474 0
0 0.819094 0
0 0.816696 0
0 0.813236 0
0 0.808639 0
0 0.802795 0
0 0.795547 0
0 0.786683 0
0 0.775923 0
0 0.76289 0
0 0.747079 0
0 0.727808 0
0 0.704145 0
0 0.674801 0
0 0.637985 0
0 0.591203 0
0 0.531055 0
0 0.453159 0
0 0.352676 0
0 0.226469 0
0 0.0783765 0
0 0.0756712 0
0 0.216926 0
0 0.336156 0
0 0.432291 0
0 0.507973 0
0 0.567029 0
0 0.613123 0
0 0.649267 0
0 0.677786 0
0 0.700413 0
0 0.718432 0
0 0.732786 0
0 0.744175 0
0 0.753116 0
0 0.759994 0
0 0.765095 0
0 0.768627 0
0 0.770739 0
0 0.771531 0
0 0.771061 0
0 0.76935 0
0 0.766386 0
0 0.76212 0
0 0.756468 0
0 0.749303 0
0 0.74045 0
0 0.729676 0
0 0.716674 0
0 0.701043 0
0 0.682259 0
0 0.659641 0
0 0.632298 0
0 0.599071 0
0 0.558465 0
0 0.508607 0
0 0.447271 0
0 0.372135 0
0 0.281489 0
0 0.175742 0
0 0.0596687 0
0 0.062682 0
0 0.181297 0
0 0.285008 0
0 0.372407 0
0 0.444322 0
0 0.502718 0
0 0.549859 0
0 0.587861 0
0 0.618517 0
0 0.643274 0
0 0.663263 0
0 0.679361 0
0 0.692243 0
0 0.702423 0
0 0.710292 0
0 0.716148 0
0 0.720211 0
0 0.722639 0
0 0.72354 0
0 0.722979 0
0 0.720979 0
0 0.717527 0
0 0.712574 0
0 0.70603 0
0 0.697764 0
0 0.687595 0
0 0.675284 0
0 0.660525 0
0 0.642927 0
0 0.621993 0
0 0.597104 0
0 0.567488 0
0 0.532201 0
0 0.490124 0
0 0.44 0
0 0.38056 0
0 0.310823 0
0 0.230643 0
0 0.141538 0
0 0.0475392 0
0 0.0533104 0
0 0.155007 0
0 0.24589 0
0 0.324775 0
0 0.391778 0
0 0.447867 0
0 0.494402 0
0 0.532811 0
0 0.564415 0
0 0.590357 0
0 0.611584 0
0 0.628864 0
0 0.642809 0
0 0.653903 0
0 0.662524 0
0 0.668961 0
0 0.673435 0
0 0.676107 0
0 0.677087 0
0 0.676442 0
0 0.674198 0
0 0.670344 0
0 0.66483 0
0 0.657569 0
0 0.648432 0
0 0.637244 0
0 0.623776 0
0 0.607741 0
0 0.588783 0
0 0.566463 0
0 0.540256 0
0 0.509543 0
0 0.473614 0
0 0.431705 0
0 0.383059 0
0 0.327075 0
0 0.263543 0
0 0.193002 0
0 0.117143 0
0 0.0390903 0
0 0.0461791 0
0 0.134721 0
0 0.214986 0
0 0.286086 0
0 0.34789 0
0 0.40085 0
0 0.445764 0
0 0.483575 0
0 0.515227 0
0 0.541593 0
0 0.563434 0
0 0.581395 0
0 0.596011 0
0 0.607715 0
0 0.616854 0
0 0.623704 0
0 0.628472 0
0 0.631317 0
0 0.632346 0
0 0.631627 0
0 0.629186 0
0 0.625015 0
0 0.619069 0
0 0.611267 0
0 0.601487 0
0 0.589569 0
0 0.575305 0
0 0.558442 0
0 0.53867 0
0 0.515627 0
0 0.488892 0
0 0.458 0
0 0.422457 0
0 0.381787 0
0 0.3356 0
0 0.283717 0
0 0.226333 0
0 0.164228 0
0 0.0989504 0
0 0.0328826 0
0 0.0405325 0
0 0.118512 0
0 0.189894 0
0 0.254046 0
0 0.310771 0
0 0.360261 0
0 0.402977 0
0 0.439531 0
0 0.470587 0
0 0.496791 0
0 0.518741 0
0 0.536962 0
0 0.551905 0
0 0.563945 0
0 0.573393 0
0 0.580496 0
0 0.58545 0
0 0.5884 0
0 0.589451 0
0 0.588667 0
0 0.586077 0
0 0.581675 0
0 0.575422 0
0 0.567244 0
0 0.557037 0
0 0.544657 0
0 0.529927 0
0 0.51263 0
0 0.492515 0
0 0.469293 0
0 0.442649 0
0 0.412256 0
0 0.377797 0
0 0.339014 0
0 0.295766 0
0 0.248121 0
0 0.196465 0
0 0.141613 0
0 0.0848928 0
0 0.0281324 0
0 0.0359239 0
0 0.1052 0
0 0.169055 0
0 0.227048 0
0 0.278991 0
0 0.324945 0
0 0.365173 0
0 0.400066 0
0 0.430082 0
0 0.455696 0
0 0.477363 0
0 0.495503 0
0 0.510484 0
0 0.522626 0
0 0.532196 0
0 0.539414 0
0 0.544454 0
0 0.54745 0
0 0.548499 0
0 0.547661 0
0 0.544967 0
0 0.540413 0
0 0.533968 0
0 0.52557 0
0 0.51513 0
0 0.502528 0
0 0.487616 0
0 0.470222 0
0 0.450147 0
0 0.427176 0
0 0.401087 0
0 0.371666 0
0 0.338737 0
0 0.302193 0
0 0.262054 0
0 0.218522 0
0 0.172052 0
0 0.123413 0
0 0.0737147 0
0 0.0243803 0
0 0.0320724 0
0 0.0940271 0
0 0.151422 0
0 0.203958 0
0 0.251476 0
0 0.293978 0
0 0.331606 0
0 0.36461 0
0 0.393301 0
0 0.418022 0
0 0.439115 0
0 0.456907 0
0 0.471695 0
0 0.483744 0
0 0.49328 0
0 0.500491 0
0 0.505532 0
0 0.508522 0
0 0.509549 0
0 0.508669 0
0 0.505912 0
0 0.501279 0
0 0.494747 0
0 0.486266 0
0 0.475764 0
0 0.463145 0
0 0.448293 0
0 0.431074 0
0 0.411343 0
0 0.388947 0
0 0.363743 0
0 0.335608 0
0 0.304466 0
0 0.270316 0
0 0.233273 0
0 0.193604 0
0 0.151773 0
0 0.10847 0
0 0.0646162 0
0 0.0213407 0
0 0.0287931 0
0 0.0844836 0
0 0.13627 0
0 0.183956 0
0 0.227415 0
0 0.266623 0
0 0.301654 0
0 0.332661 0
0 0.359856 0
0 0.383481 0
0 0.40379 0
0 0.421035 0
0 0.435451 0
0 0.447251 0
0 0.456624 0
0 0.463729 0
0 0.4687 0
0 0.471641 0
0 0.472629 0
0 0.471718 0
0 0.468937 0
0 0.46429 0
0 0.457762 0
0 0.449316 0
0 0.438897 0
0 0.426431 0
0 0.411833 0
0 0.395006 0
0 0.375848 0
0 0.354263 0
0 0.330167 0
0 0.303507 0
0 0.27428 0
0 0.242552 0
0 0.208491 0
0 0.172388 0
0 0.134685 0
0 0.0959886 0
0 0.0570664 0
0 0.0188274 0
0 0.0259588 0
0 0.0762155 0
0 0.123085 0
0 0.16644 0
0 0.206189 0
0 0.242296 0
0 0.274796 0
0 0.303781 0
0 0.329391 0
0 0.351794 0
0 0.371178 0
0 0.387733 0
0 0.40164 0
0 0.413072 0
0 0.422181 0
0 0.429102 0
0 0.433945 0
0 0.436801 0
0 0.43774 0
0 0.436809 0
0 0.434036 0
0 0.429431 0
0 0.422985 0
0 0.414673 0
0 0.404455 0
0 0.39228 0
0 0.378089 0
0 0.361817 0
0 0.3434 0
0 0.322785 0
0 0.299937 0
0 0.274854 0
0 0.247581 0
0 0.218225 0
0 0.18698 0
0 0.154138 0
0 0.120106 0
0 0.0854127 0
0 0.0507006 0
0 0.0167137 0
0 0.0234792 0
0 0.0689692 0
0 0.111488 0
0 0.150961 0
0 0.187321 0
0 0.220533 0
0 0.250607 0
0 0.277596 0
0 0.301589 0
0 0.322703 0
0 0.341073 0
0 0.356839 0
0 0.370142 0
0 0.381117 0
0 0.389886 0
0 0.396559 0
0 0.40123 0
0 0.403976 0
0 0.404857 0
0 0.403916 0
0 0.401181 0
0 0.396664 0
0 0.390364 0
0 0.382265 0
0 0.372344 0
0 0.360567 0
0 0.346898 0
0 0.331299 0
0 0.313738 0
0 0.294196 0
0 0.272673 0
0 0.249204 0
0 0.223864 0
0 0.196785 0
0 0.168168 0
0 0.138294 0
0 0.107532 0
0 0.0763398 0
0 0.0452604 0
0 0.0149109 0
0 0.0212883 0
0 0.0625575 0
0 0.101199 0
0 0.137176 0
0 0.17044 0
0 0.20096 0
0 0.228732 0
0 0.253784 0
0 0.276169 0
0 0.295968 0
0 0.313275 0
0 0.328192 0
0 0.340826 0
0 0.351281 0
0 0.359655 0
0 0.366037 0
0 0.370503 0
0 0.373119 0
0 0.373937 0
0 0.372996 0
0 0.370323 0
0 0.365932 0
0 0.359829 0
0 0.352007 0
0 0.342454 0
0 0.331155 0
0 0.318091 0
0 0.303247 0
0 0.286615 0
0 0.268201 0
0 0.248035 0
0 0.226172 0
0 0.202707 0
0 0.177785 0
0 0.151604 0
0 0.124427 0
0 0.0965842 0
0 0.0684738 0
0 0.040558 0
0 0.0133551 0
0 0.0193366 0
0 0.0568396 0
0 0.0920045 0
0 0.124819 0
0 0.155251 0
0 0.183275 0
0 0.208878 0
0 0.232072 0
0 0.252887 0
0 0.271374 0
0 0.287599 0
0 0.301635 0
0 0.313561 0
0 0.323457 0
0 0.331398 0
0 0.337457 0
0 0.341696 0
0 0.34417 0
0 0.344922 0
0 0.34399 0
0 0.341398 0
0 0.337163 0
0 0.331296 0
0 0.323797 0
0 0.314668 0
0 0.303902 0
0 0.291499 0
0 0.27746 0
0 0.261798 0
0 0.244536 0
0 0.225722 0
0 0.205428 0
0 0.18376 0
0 0.160863 0
0 0.136929 0
0 0.112201 0
0 0.0869732 0
0 0.061592 0
0 0.0364538 0
0 0.011999 0
0 0.0175861 0
0 0.0517069 0
0 0.0837366 0
0 0.11368 0
0 0.141519 0
0 0.167231 0
0 0.1908 0
0 0.212226 0
0 0.231524 0
0 0.248725 0
0 0.263872 0
0 0.277017 0
0 0.288216 0
0 0.29753 0
0 0.305017 0
0 0.310733 0
0 0.314731 0
0 0.317054 0
0 0.317741 0
0 0.316825 0
0 0.31433 0
0 0.310274 0
0 0.304671 0
0 0.297531 0
0 0.28886 0
0 0.278666 0
0 0.266958 0
0 0.253752 0
0 0.239073 0
0 0.222961 0
0 0.205473 0
0 0.186692 0
0 0.166726 0
0 0.145721 0
0 0.123857 0
0 0.101354 0
0 0.0784753 0
0 0.0555241 0
0 0.032842 0
0 0.0108067 0
0 0.0160072 0
0 0.047074 0
0 0.0762636 0
0 0.103593 0
0 0.129053 0
0 0.152624 0
0 0.174291 0
0 0.194046 0
0 0.211892 0
0 0.227847 0
0 0.241936 0
0 0.254195 0
0 0.264664 0
0 0.273387 0
0 0.280408 0
0 0.285773 0
0 0.289521 0
0 0.291691 0
0 0.292314 0
0 0.291421 0
0 0.289034 0
0 0.285174 0
0 0.279856 0
0 0.273096 0
0 0.264907 0
0 0.255305 0
0 0.244309 0
0 0.231943 0
0 0.218245 0
0 0.203261 0
0 0.187058 0
0 0.169721 0
0 0.15136 0
0 0.132115 0
0 0.112153 0
0 0.0916749 0
0 0.0709145 0
0 0.0501375 0
0 0.0296408 0
0 0.00975077 0
0 0.0145763 0
0 0.0428728 0
0 0.0694795 0
0 0.0944213 0
0 0.117695 0
0 0.139286 0
0 0.159177 0
0 0.177357 0
0 0.193823 0
0 0.20858 0
0 0.221643 0
0 0.233034 0
0 0.242781 0
0 0.250915 0
0 0.257471 0
0 0.26248 0
0 0.265978 0
0 0.267993 0
0 0.268556 0
0 0.267691 0
0 0.265421 0
0 0.261767 0
0 0.256747 0
0 0.250381 0
0 0.242686 0
0 0.233685 0
0 0.223402 0
0 0.211872 0
0 0.199135 0
0 0.185247 0
0 0.170275 0
0 0.154308 0
0 0.137453 0
0 0.119842 0
0 0.101628 0
0 0.0829952 0
0 0.0641502 0
0 0.0453274 0
0 0.0267859 0
0 0.00880971 0
0 0.013274 0
0 0.0390478 0
0 0.0632972 0
0 0.0860523 0
0 0.107315 0
0 0.127072 0
0 0.145309 0
0 0.16201 0
0 0.177169 0
0 0.190783 0
0 0.202858 0
0 0.213408 0
0 0.22245 0
0 0.230006 0
0 0.2361 0
0 0.240759 0
0 0.244007 0
0 0.245872 0
0 0.246377 0
0 0.245545 0
0 0.243398 0
0 0.239956 0
0 0.235241 0
0 0.229273 0
0 0.222076 0
0 0.213673 0
0 0.204098 0
0 0.193386 0
0 0.181583 0
0 0.168748 0
0 0.154951 0
0 0.140276 0
0 0.124829 0
0 0.108731 0
0 0.0921259 0
0 0.0751767 0
0 0.0580692 0
0 0.0410098 0
0 0.024226 0
0 0.00796636 0
0 0.0120848 0
0 0.0355533 0
0 0.0576449 0
0 0.0783925 0
0 0.0978008 0
0 0.11586 0
0 0.132556 0
0 0.147872 0
0 0.161797 0
0 0.174326 0
0 0.185458 0
0 0.195199 0
0 0.203558 0
0 0.210552 0
0 0.216196 0
0 0.22051 0
0 0.223516 0
0 0.225234 0
0 0.225685 0
0 0.224889 0
0 0.222869 0
0 0.219643 0
0 0.215234 0
0 0.209665 0
0 0.20296 0
0 0.195148 0
0 0.186263 0
0 0.176345 0
0 0.165443 0
0 0.153615 0
0 0.140929 0
0 0.127471 0
0 0.113337 0
0 0.0986416 0
0 0.0835152 0
0 0.0681057 0
0 0.0525786 0
0 0.0371164 0
0 0.0219197 0
0 0.00720689 0
0 0.0109953 0
0 0.0323509 0
0 0.052462 0
0 0.0713625 0
0 0.0890595 0
0 0.105545 0
0 0.120806 0
0 0.134826 0
0 0.147591 0
0 0.159094 0
0 0.169328 0
0 0.178295 0
0 0.185999 0
0 0.192449 0
0 0.197658 0
0 0.20164 0
0 0.20441 0
0 0.205987 0
0 0.206388 0
0 0.205632 0
0 0.203739 0
0 0.200729 0
0 0.196624 0
0 0.191447 0
0 0.185226 0
0 0.177991 0
0 0.169776 0
0 0.160624 0
0 0.150583 0
0 0.139711 0
0 0.128076 0
0 0.115758 0
0 0.102848 0
0 0.0894508 0
0 0.0756863 0
0 0.0616873 0
0 0.0476015 0
0 0.033591 0
0 0.0198329 0
0 0.00651996 0
0 0.0099943 0
0 0.029408 0
0 0.0476967 0
0 0.0648943 0
0 0.0810093 0
0 0.0960358 0
0 0.109961 0
0 0.122768 0
0 0.134445 0
0 0.144978 0
0 0.154362 0
0 0.162592 0
0 0.16967 0
0 0.175601 0
0 0.180391 0
0 0.184053 0
0 0.186597 0
0 0.188039 0
0 0.188395 0
0 0.187681 0
0 0.185915 0
0 0.183118 0
0 0.179311 0
0 0.174519 0
0 0.168769 0
0 0.162091 0
0 0.154522 0
0 0.146103 0
0 0.136882 0
0 0.126916 0
0 0.116271 0
0 0.10502 0
0 0.093249 0
0 0.081055 0
0 0.0685459 0
0 0.0558416 0
0 0.0430738 0
0 0.0303868 0
0 0.0179373 0
0 0.0058962 0
0 0.00907227 0
0 0.0266966 0
0 0.0433044 0
0 0.0589288 0
0 0.0735792 0
0 0.0872508 0
0 0.0999314 0
0 0.111606 0
0 0.122261 0
0 0.131883 0
0 0.140462 0
0 0.147994 0
0 0.154477 0
0 0.159911 0
0 0.164302 0
0 0.167657 0
0 0.169986 0
0 0.171301 0
0 0.171615 0
0 0.170943 0
0 0.169304 0
0 0.166716 0
0 0.163201 0
0 0.158782 0
0 0.153486 0
0 0.147345 0
0 0.140394 0
0 0.132674 0
0 0.124233 0
0 0.115123 0
0 0.105406 0
0 0.0951538 0
0 0.0844438 0
0 0.0733646 0
0 0.0620142 0
0 0.0505004 0
0 0.038941 0
0 0.0274643 0
0 0.0162093 0
0 0.00532772 0
0 0.00822083 0
0 0.0241923 0
0 0.0392462 0
0 0.0534144 0
0 0.0667064 0
0 0.0791185 0
0 0.0906398 0
0 0.101256 0
0 0.110953 0
0 0.119717 0
0 0.127538 0
0 0.13441 0
0 0.140327 0
0 0.14529 0
0 0.149301 0
0 0.152364 0
0 0.154488 0
0 0.155683 0
0 0.155959 0
0 0.155332 0
0 0.153817 0
0 0.151432 0
0 0.148199 0
0 0.14414 0
0 0.139282 0
0 0.133655 0
0 0.127295 0
0 0.12024 0
0 0.112535 0
0 0.104232 0
0 0.0953882 0
0 0.0860688 0
0 0.0763463 0
0 0.0663012 0
0 0.0560219 0
0 0.0456052 0
0 0.0351565 0
0 0.0247898 0
0 0.0146287 0
0 0.00480783 0
0 0.0074326 0
0 0.0218737 0
0 0.0354878 0
0 0.048305 0
0 0.0603351 0
0 0.071575 0
0 0.0820148 0
0 0.091641 0
0 0.10044 0
0 0.108398 0
0 0.115505 0
0 0.121753 0
0 0.127136 0
0 0.131652 0
0 0.135302 0
0 0.138089 0
0 0.140019 0
0 0.1411 0
0 0.141343 0
0 0.14076 0
0 0.139366 0
0 0.137178 0
0 0.134217 0
0 0.130504 0
0 0.126065 0
0 0.12093 0
0 0.115131 0
0 0.108706 0
0 0.101699 0
0 0.0941551 0
0 0.0861301 0
0 0.0776833 0
0 0.068881 0
0 0.0597962 0
0 0.0505087 0
0 0.0411053 0
0 0.03168 0
0 0.0223343 0
0 0.013178 0
0 0.00433079 0
0 0.00670104 0
0 0.0197214 0
0 0.0319983 0
0 0.0435597 0
0 0.0544151 0
0 0.0645622 0
0 0.0739918 0
0 0.0826916 0
0 0.0906483 0
0 0.0978492 0
0 0.104283 0
0 0.109943 0
0 0.11482 0
0 0.118914 0
0 0.122222 0
0 0.124747 0
0 0.126494 0
0 0.127469 0
0 0.127681 0
0 0.127143 0
0 0.125867 0
0 0.123869 0
0 0.121169 0
0 0.117788 0
0 0.11375 0
0 0.109083 0
0 0.103818 0
0 0.0979902 0
0 0.09164 0
0 0.0848117 0
0 0.0775549 0
0 0.0699242 0
0 0.0619802 0
0 0.0537887 0
0 0.0454214 0
0 0.0369561 0
0 0.0284764 0
0 0.0200726 0
0 0.0118423 0
0 0.00389161 0
0 0.00602027 0
0 0.0177184 0
0 0.0287501 0
0 0.0391412 0
0 0.0489009 0
0 0.0580272 0
0 0.0665119 0
0 0.0743436 0
0 0.0815099 0
0 0.0879987 0
0 0.0937994 0
0 0.0989032 0
0 0.103304 0
0 0.106997 0
0 0.109982 0
0 0.11226 0
0 0.113834 0
0 0.114709 0
0 0.114895 0
0 0.1144 0
0 0.113238 0
0 0.111424 0
0 0.108975 0
0 0.105911 0
0 0.102255 0
0 0.0980329 0
0 0.0932743 0
0 0.0880119 0
0 0.0822827 0
0 0.0761276 0
0 0.069592 0
0 0.0627258 0
0 0.0555835 0
0 0.0482244 0
0 0.0407129 0
0 0.0331181 0
0 0.0255146 0
0 0.0179825 0
0 0.0106083 0
0 0.00348591 0
0 0.00538495 0
0 0.015849 0
0 0.025718 0
0 0.0350158 0
0 0.0437507 0
0 0.0519214 0
0 0.0595204 0
0 0.0665374 0
0 0.0729608 0
0 0.0787794 0
0 0.0839828 0
0 0.0885626 0
0 0.0925124 0
0 0.095828 0
0 0.0985074 0
0 0.100551 0
0 0.101962 0
0 0.102744 0
0 0.102905 0
0 0.102454 0
0 0.101402 0
0 0.0997641 0
0 0.0975551 0
0 0.0947941 0
0 0.0915023 0
0 0.0877038 0
0 0.0834257 0
0 0.0786983 0
0 0.0735556 0
0 0.0680348 0
0 0.0621773 0
0 0.056028 0
0 0.049636 0
0 0.0430545 0
0 0.0363407 0
0 0.0295563 0
0 0.0227671 0
0 0.0160443 0
0 0.00946412 0
0 0.00310983 0
0 0.00479019 0
0 0.0140988 0
0 0.0228789 0
0 0.0311521 0
0 0.0389261 0
0 0.0461999 0
0 0.0529669 0
0 0.0592175 0
0 0.0649414 0
0 0.0701279 0
0 0.0747676 0
0 0.0788523 0
0 0.0823758 0
0 0.0853338 0
0 0.087724 0
0 0.0895464 0
0 0.0908029 0
0 0.0914977 0
0 0.091637 0
0 0.0912289 0
0 0.0902839 0
0 0.0888145 0
0 0.0868355 0
0 0.0843638 0
0 0.081419 0
0 0.0780233 0
0 0.0742013 0
0 0.0699808 0
0 0.0653926 0
0 0.0604704 0
0 0.0552513 0
0 0.0497759 0
0 0.0440878 0
0 0.0382345 0
0 0.0322666 0
0 0.0262387 0
0 0.0202091 0
0 0.0142402 0
0 0.00839941 0
0 0.00275988 0
0 0.00423148 0
0 0.0124546 0
0 0.0202114 0
0 0.0275213 0
0 0.0343915 0
0 0.0408209 0
0 0.0468038 0
0 0.0523318 0
0 0.0573952 0
0 0.0619846 0
0 0.0660911 0
0 0.0697072 0
0 0.0728269 0
0 0.0754461 0
0 0.0775623 0
0 0.0791752 0
0 0.0802862 0
0 0.0808989 0
0 0.0810187 0
0 0.0806528 0
0 0.0798106 0
0 0.0785033 0
0 0.0767443 0
0 0.0745491 0
0 0.0719353 0
0 0.068923 0
0 0.0655346 0
0 0.0617951 0
0 0.057732 0
0 0.0533758 0
0 0.0487594 0
0 0.0439189 0
0 0.0388931 0
0 0.0337238 0
0 0.0284557 0
0 0.0231368 0
0 0.0178181 0
0 0.0125544 0
0 0.00740461 0
0 0.00243294 0
0 0.0037046 0
0 0.0109039 0
0 0.0176955 0
0 0.0240965 0
0 0.0301133 0
0 0.0357451 0
0 0.0409868 0
0 0.0458311 0
0 0.0502692 0
0 0.0542928 0
0 0.0578937 0
0 0.0610652 0
0 0.0638016 0
0 0.066099 0
0 0.067955 0
0 0.0693691 0
0 0.0703424 0
0 0.0708778 0
0 0.0709801 0
0 0.0706555 0
0 0.0699125 0
0 0.068761 0
0 0.0672129 0
0 0.0652822 0
0 0.0629846 0
0 0.0603381 0
0 0.0573626 0
0 0.0540804 0
0 0.050516 0
0 0.0466962 0
0 0.0426504 0
0 0.0384101 0
0 0.0340095 0
0 0.0294851 0
0 0.024876 0
0 0.0202239 0
0 0.0155734 0
0 0.0109721 0
0 0.00647106 0
0 0.00212615 0
0 0.00320561 0
0 0.00943535 0
0 0.0153125 0
0 0.0208522 0
0 0.0260601 0
0 0.0309354 0
0 0.0354738 0
0 0.0396688 0
0 0.0435128 0
0 0.0469984 0
0 0.0501184 0
0 0.0528666 0
0 0.055238 0
0 0.057229 0
0 0.0588373 0
0 0.0600623 0
0 0.0609048 0
0 0.0613672 0
0 0.0614537 0
0 0.0611697 0
0 0.0605224 0
0 0.0595209 0
0 0.0581754 0
0 0.0564982 0
0 0.0545033 0
0 0.0522065 0
0 0.0496252 0
0 0.0467792 0
0 0.0436897 0
0 0.0403803 0
0 0.0368764 0
0 0.0332056 0
0 0.0293975 0
0 0.0254836 0
0 0.0214977 0
0 0.0174758 0
0 0.0134562 0
0 0.00947984 0
0 0.00559076 0
0 0.00183688 0
0 0.00273079 0
0 0.00803784 0
0 0.0130448 0
0 0.0177645 0
0 0.022202 0
0 0.0263566 0
0 0.0302246 0
0 0.0338005 0
0 0.0370777 0
0 0.0400497 0
0 0.0427104 0
0 0.0450542 0
0 0.0470768 0
0 0.0487749 0
0 0.0501465 0
0 0.0511909 0
0 0.0519087 0
0 0.052302 0
0 0.0523741 0
0 0.0521298 0
0 0.0515754 0
0 0.0507184 0
0 0.0495679 0
0 0.0481346 0
0 0.0464304 0
0 0.0444689 0
0 0.0422654 0
0 0.0398367 0
0 0.0372013 0
0 0.0343792 0
0 0.0313923 0
0 0.0282642 0
0 0.02502 0
0 0.0216868 0
0 0.0182931 0
0 0.0148696 0
0 0.0114487 0
0 0.0080652 0
0 0.00475632 0
0 0.00156269 0
0 0.00227658 0
0 0.00670096 0
0 0.0108753 0
0 0.0148104 0
0 0.0185104 0
0 0.021975 0
0 0.0252009 0
0 0.0281835 0
0 0.0309173 0
0 0.0333969 0
0 0.0356168 0
0 0.0375726 0
0 0.0392604 0
0 0.0406774 0
0 0.0418219 0
0 0.0426931 0
0 0.0432915 0
0 0.0436188 0
0 0.0436778 0
0 0.0434725 0
0 0.0430081 0
0 0.0422911 0
0 0.0413291 0
0 0.0401309 0
0 0.0387069 0
0 0.0370684 0
0 0.0352283 0
0 0.0332007 0
0 0.0310012 0
0 0.0286466 0
0 0.0261552 0
0 0.0235467 0
0 0.0208422 0
0 0.018064 0
0 0.0152361 0
0 0.012384 0
0 0.00953443 0
0 0.00671638 0
0 0.00396077 0
0 0.0013013 0
0 0.00183958 0
0 0.00541472 0
0 0.00878789 0
0 0.0119679 0
0 0.0149581 0
0 0.0177583 0
0 0.0203658 0
0 0.0227768 0
0 0.0249869 0
0 0.0269916 0
0 0.0287867 0
0 0.0303681 0
0 0.031733 0
0 0.0328788 0
0 0.0338042 0
0 0.0345085 0
0 0.034992 0
0 0.0352561 0
0 0.035303 0
0 0.035136 0
0 0.0347594 0
0 0.0341783 0
0 0.033399 0
0 0.0324288 0
0 0.0312759 0
0 0.0299498 0
0 0.0284609 0
0 0.0268207 0
0 0.0250418 0
0 0.023138 0
0 0.021124 0
0 0.0190159 0
0 0.0168305 0
0 0.0145861 0
0 0.012302 0
0 0.00999858 0
0 0.0076976 0
0 0.00542228 0
0 0.00319754 0
0 0.00105053 0
0 0.00141651 0
0 0.00416945 0
0 0.00676693 0
0 0.00921577 0
0 0.0115185 0
0 0.0136751 0
0 0.0156833 0
0 0.0175404 0
0 0.0192429 0
0 0.0207873 0
0 0.0221701 0
0 0.0233886 0
0 0.0244401 0
0 0.0253229 0
0 0.0260358 0
0 0.0265783 0
0 0.0269506 0
0 0.0271537 0
0 0.0271893 0
0 0.0270601 0
0 0.0267692 0
0 0.0263207 0
0 0.0257195 0
0 0.0249712 0
0 0.0240822 0
0 0.0230598 0
0 0.0219121 0
0 0.020648 0
0 0.0192773 0
0 0.0178106 0
0 0.0162594 0
0 0.0146358 0
0 0.0129531 0
0 0.0112252 0
0 0.00946697 0
0 0.00769407 0
0 0.00592324 0
0 0.00417229 0
0 0.00246038 0
0 0.000808334 0
0 0.00100418 0
0 0.00295579 0
0 0.00479721 0
0 0.00653329 0
0 0.00816589 0
0 0.00969485 0
0 0.0111188 0
0 0.0124356 0
0 0.0136428 0
0 0.014738 0
0 0.0157187 0
0 0.0165828 0
0 0.0173285 0
0 0.0179546 0
0 0.0184601 0
0 0.0188448 0
0 0.0191087 0