# vtk DataFile Version 2.0
Presion
ASCII

DATASET STRUCTURED_GRID
DIMENSIONS   40   40   20

POINTS   32000   double
0.0125   0.0125   0.025
0.0375   0.0125   0.025
0.0625   0.0125   0.025
0.0875   0.0125   0.025
0.1125   0.0125   0.025
0.1375   0.0125   0.025
0.1625   0.0125   0.025
0.1875   0.0125   0.025
0.2125   0.0125   0.025
0.2375   0.0125   0.025
0.2625   0.0125   0.025
0.2875   0.0125   0.025
0.3125   0.0125   0.025
0.3375   0.0125   0.025
0.3625   0.0125   0.025
0.3875   0.0125   0.025
0.4125   0.0125   0.025
0.4375   0.0125   0.025
0.4625   0.0125   0.025
0.4875   0.0125   0.025
0.5125   0.0125   0.025
0.5375   0.0125   0.025
0.5625   0.0125   0.025
0.5875   0.0125   0.025
0.6125   0.0125   0.025
0.6375   0.0125   0.025
0.6625   0.0125   0.025
0.6875   0.0125   0.025
0.7125   0.0125   0.025
0.7375   0.0125   0.025
0.7625   0.0125   0.025
0.7875   0.0125   0.025
0.8125   0.0125   0.025
0.8375   0.0125   0.025
0.8625   0.0125   0.025
0.8875   0.0125   0.025
0.9125   0.0125   0.025
0.9375   0.0125   0.025
0.9625   0.0125   0.025
0.9875   0.0125   0.025
0.0125   0.0375   0.025
0.0375   0.0375   0.025
0.0625   0.0375   0.025
0.0875   0.0375   0.025
0.1125   0.0375   0.025
0.1375   0.0375   0.025
0.1625   0.0375   0.025
0.1875   0.0375   0.025
0.2125   0.0375   0.025
0.2375   0.0375   0.025
0.2625   0.0375   0.025
0.2875   0.0375   0.025
0.3125   0.0375   0.025
0.3375   0.0375   0.025
0.3625   0.0375   0.025
0.3875   0.0375   0.025
0.4125   0.0375   0.025
0.4375   0.0375   0.025
0.4625   0.0375   0.025
0.4875   0.0375   0.025
0.5125   0.0375   0.025
0.5375   0.0375   0.025
0.5625   0.0375   0.025
0.5875   0.0375   0.025
0.6125   0.0375   0.025
0.6375   0.0375   0.025
0.6625   0.0375   0.025
0.6875   0.0375   0.025
0.7125   0.0375   0.025
0.7375   0.0375   0.025
0.7625   0.0375   0.025
0.7875   0.0375   0.025
0.8125   0.0375   0.025
0.8375   0.0375   0.025
0.8625   0.0375   0.025
0.8875   0.0375   0.025
0.9125   0.0375   0.025
0.9375   0.0375   0.025
0.9625   0.0375   0.025
0.9875   0.0375   0.025
0.0125   0.0625   0.025
0.0375   0.0625   0.025
0.0625   0.0625   0.025
0.0875   0.0625   0.025
0.1125   0.0625   0.025
0.1375   0.0625   0.025
0.1625   0.0625   0.025
0.1875   0.0625   0.025
0.2125   0.0625   0.025
0.2375   0.0625   0.025
0.2625   0.0625   0.025
0.2875   0.0625   0.025
0.3125   0.0625   0.025
0.3375   0.0625   0.025
0.3625   0.0625   0.025
0.3875   0.0625   0.025
0.4125   0.0625   0.025
0.4375   0.0625   0.025
0.4625   0.0625   0.025
0.4875   0.0625   0.025
0.5125   0.0625   0.025
0.5375   0.0625   0.025
0.5625   0.0625   0.025
0.5875   0.0625   0.025
0.6125   0.0625   0.025
0.6375   0.0625   0.025
0.6625   0.0625   0.025
0.6875   0.0625   0.025
0.7125   0.0625   0.025
0.7375   0.0625   0.025
0.7625   0.0625   0.025
0.7875   0.0625   0.025
0.8125   0.0625   0.025
0.8375   0.0625   0.025
0.8625   0.0625   0.025
0.8875   0.0625   0.025
0.9125   0.0625   0.025
0.9375   0.0625   0.025
0.9625   0.0625   0.025
0.9875   0.0625   0.025
0.0125   0.0875   0.025
0.0375   0.0875   0.025
0.0625   0.0875   0.025
0.0875   0.0875   0.025
0.1125   0.0875   0.025
0.1375   0.0875   0.025
0.1625   0.0875   0.025
0.1875   0.0875   0.025
0.2125   0.0875   0.025
0.2375   0.0875   0.025
0.2625   0.0875   0.025
0.2875   0.0875   0.025
0.3125   0.0875   0.025
0.3375   0.0875   0.025
0.3625   0.0875   0.025
0.3875   0.0875   0.025
0.4125   0.0875   0.025
0.4375   0.0875   0.025
0.4625   0.0875   0.025
0.4875   0.0875   0.025
0.5125   0.0875   0.025
0.5375   0.0875   0.025
0.5625   0.0875   0.025
0.5875   0.0875   0.025
0.6125   0.0875   0.025
0.6375   0.0875   0.025
0.6625   0.0875   0.025
0.6875   0.0875   0.025
0.7125   0.0875   0.025
0.7375   0.0875   0.025
0.7625   0.0875   0.025
0.7875   0.0875   0.025
0.8125   0.0875   0.025
0.8375   0.0875   0.025
0.8625   0.0875   0.025
0.8875   0.0875   0.025
0.9125   0.0875   0.025
0.9375   0.0875   0.025
0.9625   0.0875   0.025
0.9875   0.0875   0.025
0.0125   0.1125   0.025
0.0375   0.1125   0.025
0.0625   0.1125   0.025
0.0875   0.1125   0.025
0.1125   0.1125   0.025
0.1375   0.1125   0.025
0.1625   0.1125   0.025
0.1875   0.1125   0.025
0.2125   0.1125   0.025
0.2375   0.1125   0.025
0.2625   0.1125   0.025
0.2875   0.1125   0.025
0.3125   0.1125   0.025
0.3375   0.1125   0.025
0.3625   0.1125   0.025
0.3875   0.1125   0.025
0.4125   0.1125   0.025
0.4375   0.1125   0.025
0.4625   0.1125   0.025
0.4875   0.1125   0.025
0.5125   0.1125   0.025
0.5375   0.1125   0.025
0.5625   0.1125   0.025
0.5875   0.1125   0.025
0.6125   0.1125   0.025
0.6375   0.1125   0.025
0.6625   0.1125   0.025
0.6875   0.1125   0.025
0.7125   0.1125   0.025
0.7375   0.1125   0.025
0.7625   0.1125   0.025
0.7875   0.1125   0.025
0.8125   0.1125   0.025
0.8375   0.1125   0.025
0.8625   0.1125   0.025
0.8875   0.1125   0.025
0.9125   0.1125   0.025
0.9375   0.1125   0.025
0.9625   0.1125   0.025
0.9875   0.1125   0.025
0.0125   0.1375   0.025
0.0375   0.1375   0.025
0.0625   0.1375   0.025
0.0875   0.1375   0.025
0.1125   0.1375   0.025
0.1375   0.1375   0.025
0.1625   0.1375   0.025
0.1875   0.1375   0.025
0.2125   0.1375   0.025
0.2375   0.1375   0.025
0.2625   0.1375   0.025
0.2875   0.1375   0.025
0.3125   0.1375   0.025
0.3375   0.1375   0.025
0.3625   0.1375   0.025
0.3875   0.1375   0.025
0.4125   0.1375   0.025
0.4375   0.1375   0.025
0.4625   0.1375   0.025
0.4875   0.1375   0.025
0.5125   0.1375   0.025
0.5375   0.1375   0.025
0.5625   0.1375   0.025
0.5875   0.1375   0.025
0.6125   0.1375   0.025
0.6375   0.1375   0.025
0.6625   0.1375   0.025
0.6875   0.1375   0.025
0.7125   0.1375   0.025
0.7375   0.1375   0.025
0.7625   0.1375   0.025
0.7875   0.1375   0.025
0.8125   0.1375   0.025
0.8375   0.1375   0.025
0.8625   0.1375   0.025
0.8875   0.1375   0.025
0.9125   0.1375   0.025
0.9375   0.1375   0.025
0.9625   0.1375   0.025
0.9875   0.1375   0.025
0.0125   0.1625   0.025
0.0375   0.1625   0.025
0.0625   0.1625   0.025
0.0875   0.1625   0.025
0.1125   0.1625   0.025
0.1375   0.1625   0.025
0.1625   0.1625   0.025
0.1875   0.1625   0.025
0.2125   0.1625   0.025
0.2375   0.1625   0.025
0.2625   0.1625   0.025
0.2875   0.1625   0.025
0.3125   0.1625   0.025
0.3375   0.1625   0.025
0.3625   0.1625   0.025
0.3875   0.1625   0.025
0.4125   0.1625   0.025
0.4375   0.1625   0.025
0.4625   0.1625   0.025
0.4875   0.1625   0.025
0.5125   0.1625   0.025
0.5375   0.1625   0.025
0.5625   0.1625   0.025
0.5875   0.1625   0.025
0.6125   0.1625   0.025
0.6375   0.1625   0.025
0.6625   0.1625   0.025
0.6875   0.1625   0.025
0.7125   0.1625   0.025
0.7375   0.1625   0.025
0.7625   0.1625   0.025
0.7875   0.1625   0.025
0.8125   0.1625   0.025
0.8375   0.1625   0.025
0.8625   0.1625   0.025
0.8875   0.1625   0.025
0.9125   0.1625   0.025
0.9375   0.1625   0.025
0.9625   0.1625   0.025
0.9875   0.1625   0.025
0.0125   0.1875   0.025
0.0375   0.1875   0.025
0.0625   0.1875   0.025
0.0875   0.1875   0.025
0.1125   0.1875   0.025
0.1375   0.1875   0.025
0.1625   0.1875   0.025
0.1875   0.1875   0.025
0.2125   0.1875   0.025
0.2375   0.1875   0.025
0.2625   0.1875   0.025
0.2875   0.1875   0.025
0.3125   0.1875   0.025
0.3375   0.1875   0.025
0.3625   0.1875   0.025
0.3875   0.1875   0.025
0.4125   0.1875   0.025
0.4375   0.1875   0.025
0.4625   0.1875   0.025
0.4875   0.1875   0.025
0.5125   0.1875   0.025
0.5375   0.1875   0.025
0.5625   0.1875   0.025
0.5875   0.1875   0.025
0.6125   0.1875   0.025
0.6375   0.1875   0.025
0.6625   0.1875   0.025
0.6875   0.1875   0.025
0.7125   0.1875   0.025
0.7375   0.1875   0.025
0.7625   0.1875   0.025
0.7875   0.1875   0.025
0.8125   0.1875   0.025
0.8375   0.1875   0.025
0.8625   0.1875   0.025
0.8875   0.1875   0.025
0.9125   0.1875   0.025
0.9375   0.1875   0.025
0.9625   0.1875   0.025
0.9875   0.1875   0.025
0.0125   0.2125   0.025
0.0375   0.2125   0.025
0.0625   0.2125   0.025
0.0875   0.2125   0.025
0.1125   0.2125   0.025
0.1375   0.2125   0.025
0.1625   0.2125   0.025
0.1875   0.2125   0.025
0.2125   0.2125   0.025
0.2375   0.2125   0.025
0.2625   0.2125   0.025
0.2875   0.2125   0.025
0.3125   0.2125   0.025
0.3375   0.2125   0.025
0.3625   0.2125   0.025
0.3875   0.2125   0.025
0.4125   0.2125   0.025
0.4375   0.2125   0.025
0.4625   0.2125   0.025
0.4875   0.2125   0.025
0.5125   0.2125   0.025
0.5375   0.2125   0.025
0.5625   0.2125   0.025
0.5875   0.2125   0.025
0.6125   0.2125   0.025
0.6375   0.2125   0.025
0.6625   0.2125   0.025
0.6875   0.2125   0.025
0.7125   0.2125   0.025
0.7375   0.2125   0.025
0.7625   0.2125   0.025
0.7875   0.2125   0.025
0.8125   0.2125   0.025
0.8375   0.2125   0.025
0.8625   0.2125   0.025
0.8875   0.2125   0.025
0.9125   0.2125   0.025
0.9375   0.2125   0.025
0.9625   0.2125   0.025
0.9875   0.2125   0.025
0.0125   0.2375   0.025
0.0375   0.2375   0.025
0.0625   0.2375   0.025
0.0875   0.2375   0.025
0.1125   0.2375   0.025
0.1375   0.2375   0.025
0.1625   0.2375   0.025
0.1875   0.2375   0.025
0.2125   0.2375   0.025
0.2375   0.2375   0.025
0.2625   0.2375   0.025
0.2875   0.2375   0.025
0.3125   0.2375   0.025
0.3375   0.2375   0.025
0.3625   0.2375   0.025
0.3875   0.2375   0.025
0.4125   0.2375   0.025
0.4375   0.2375   0.025
0.4625   0.2375   0.025
0.4875   0.2375   0.025
0.5125   0.2375   0.025
0.5375   0.2375   0.025
0.5625   0.2375   0.025
0.5875   0.2375   0.025
0.6125   0.2375   0.025
0.6375   0.2375   0.025
0.6625   0.2375   0.025
0.6875   0.2375   0.025
0.7125   0.2375   0.025
0.7375   0.2375   0.025
0.7625   0.2375   0.025
0.7875   0.2375   0.025
0.8125   0.2375   0.025
0.8375   0.2375   0.025
0.8625   0.2375   0.025
0.8875   0.2375   0.025
0.9125   0.2375   0.025
0.9375   0.2375   0.025
0.9625   0.2375   0.025
0.9875   0.2375   0.025
0.0125   0.2625   0.025
0.0375   0.2625   0.025
0.0625   0.2625   0.025
0.0875   0.2625   0.025
0.1125   0.2625   0.025
0.1375   0.2625   0.025
0.1625   0.2625   0.025
0.1875   0.2625   0.025
0.2125   0.2625   0.025
0.2375   0.2625   0.025
0.2625   0.2625   0.025
[...]
POINT_DATA   32000
SCALARS Presion double
LOOKUP_TABLE   Presion

0 0 0 0 0 0 0 0 0 0 0 0 0 0 0 0 0 0 0 0 0 0 0 0 0 0 0 0 0 0 0 0 0 0 0 0 0 0 0 0 -0.00267902 -0.00305377 -0.00364091 -0.00426429 -0.00486089 -0.00539748 -0.00585205 -0.00620917 -0.00645831 -0.00659281 -0.00660888 -0.00650581 -0.00628429 -0.00594686 -0.00549761 -0.00494218 -0.00428787 -0.00354377 -0.00272094 -0.00183254 -0.000893408 7.83122e-05 0.0010638 0.00204238 0.00299236 0.00389164 0.00471843 0.00545199 0.00607348 0.00656677 0.00691916 0.00712174 0.00717039 0.00706563 0.0068126 0.00642058 0.00590275 0.005279 0.00459708 0.0040532 -0.00317499 -0.00331649 -0.00371041 -0.00420963 -0.00473053 -0.0052232 -0.00565581 -0.00600721 -0.0062633 -0.00641501 -0.00645654 -0.00638602 -0.0062027 -0.00590801 -0.00550494 -0.00499805 -0.0043935 -0.00369919 -0.00292485 -0.00208221 -0.00118433 -0.000248293 0.000708838 0.00166778 0.00260803 0.00350841 0.00434766 0.00510522 0.00576199 0.00630126 0.00670963 0.00697718 0.00709929 0.00707663 0.0069161 0.00663198 0.00624874 0.00580883 0.00539569 0.00519679 -0.0031896 -0.00334757 -0.0036908 -0.00413469 -0.00461295 -0.00507826 -0.00549768 -0.0058484 -0.00611482 -0.00628652 -0.00635635 -0.00632152 -0.00617998 -0.0059319 -0.00557896 -0.00512433 -0.00457264 -0.00393017 -0.00320495 -0.00240695 -0.00154724 -0.000641654 0.000294428 0.00124294 0.00218423 0.00309751 0.00396147 0.00475499 0.00545802 0.00605255 0.00652385 0.00686046 0.00705673 0.00711288 0.00703629 0.00684311 0.00656096 0.00623473 0.00593859 0.00579586 -0.00295351 -0.0032097 -0.00358377 -0.00402931 -0.00450081 -0.0049608 -0.00538065 -0.00573936 -0.00602193 -0.00621789 -0.00631949 -0.00632346 -0.00622663 -0.00602795 -0.00572769 -0.0053274 -0.00482998 -0.0042398 -0.00356292 -0.00280734 -0.00198201 -0.00110143 -0.000179343 0.000767215 0.00171917 0.00265574 0.00355506 0.00439489 0.0051536 0.00581125 0.00635109 0.00675943 0.00702885 0.00715805 0.00715336 0.00703007 0.0068142 0.00654553 0.00628203 0.00610278 -0.00259979 -0.00297536 -0.00341966 -0.00390417 -0.00439812 -0.00487391 -0.005309 -0.00568604 -0.00599204 -0.00621756 -0.00635495 -0.0064009 -0.00635141 -0.00620431 -0.00595846 -0.00561374 -0.00517115 -0.004633 -0.00400325 -0.00328775 -0.00249323 -0.0016328 -0.000718607 0.000233283 0.00120417 0.00217301 0.00311702 0.00401239 0.00483538 0.0055635 0.00617734 0.00666015 0.00700189 0.00719879 0.00725489 0.00718312 0.00700627 0.00675812 0.00648428 0.00624015 -0.00220951 -0.00270472 -0.00323555 -0.00378043 -0.00431723 -0.0048259 -0.00528966 -0.00569521 -0.00603229 -0.00629308 -0.00647055 -0.00656177 -0.00656215 -0.00646858 -0.0062786 -0.00599041 -0.00560307 -0.00511678 -0.00453324 -0.00385608 -0.00308972 -0.00224574 -0.00133466 -0.000371598 0.000625066 0.0016339 0.00263094 0.00359049 0.0044862 0.00529249 0.00598657 0.00654785 0.0069628 0.00722429 0.00733323 0.00729954 0.00714265 0.00689172 0.00658508 0.00626736 -0.00183608 -0.00244476 -0.00306691 -0.00368293 -0.00427531 -0.00482915 -0.00533232 -0.00577527 -0.00615052 -0.0064521 -0.00667395 -0.00681376 -0.0068666 -0.0068286 -0.00669609 -0.00646566 -0.00613444 -0.00570048 -0.00516315 -0.00452376 -0.00378427 -0.0029546 -0.0020435 -0.001065 -3.71256e-05 0.0010183 0.00207602 0.00310819 0.0040855 0.00497865 0.00576082 0.0064067 0.00689844 0.00722464 0.00738243 0.00737838 0.00722896 0.0069604 0.00660776 0.00621236 -0.00151773 -0.00223243 -0.0029453 -0.00363678 -0.00429175 -0.00489872 -0.00544909 -0.00593643 -0.00635581 -0.00670314 -0.00697344 -0.00716514 -0.00727317 -0.0072931 -0.00722014 -0.00704939 -0.0067761 -0.0063961 -0.0059064 -0.00530583 -0.00459374 -0.00377812 -0.00286571 -0.00186926 -0.000806174 0.00030142 0.00142701 0.00254042 0.00360903 0.0045993 0.00547961 0.00621906 0.00679445 0.00718925 0.00739603 0.00741773 0.00726818 0.00697208 0.00656402 0.00608639 -0.00128406 -0.00209776 -0.00289843 -0.00366596 -0.00438661 -0.00505121 -0.00565382 -0.00619058 -0.00665876 -0.00705602 -0.00737844 -0.00762531 -0.00779154 -0.00787225 -0.00786173 -0.00775363 -0.00754136 -0.00721855 -0.00677974 -0.00622108 -0.0055391 -0.0047395 -0.00382665 -0.00281163 -0.00171088 -0.00054655 0.00065371 0.00185737 0.00302819 0.00412785 0.0051191 0.00596443 0.00663421 0.00710561 0.00736577 0.00741346 0.00726001 0.00692944 0.00645773 0.00589112 -0.00115967 -0.00206626 -0.00295091 -0.00379304 -0.00457988 -0.00530404 -0.00596171 -0.00655113 -0.0070715 -0.00752203 -0.00789989 -0.0082052 -0.00843298 -0.00857805 -0.00863385 -0.00859271 -0.00844624 -0.00818583 -0.00780338 -0.00729217 -0.00664559 -0.00586656 -0.00495661 -0.00392459 -0.00278548 -0.001561 -0.000279637 0.00102378 0.00230915 0.00353283 0.00465106 0.00561855 0.00639785 0.00695848 0.00728093 0.00735896 0.0072011 0.00683115 0.00628769 0.00562254 -0.00116626 -0.00216049 -0.00312509 -0.00403925 -0.00489116 -0.00567503 -0.00638885 -0.00703272 -0.00760754 -0.00811399 -0.00855028 -0.00891738 -0.00921054 -0.00942438 -0.00955163 -0.00958338 -0.00950945 -0.00931892 -0.00900092 -0.00854554 -0.00794263 -0.00719173 -0.00629092 -0.00524607 -0.00407002 -0.00278339 -0.00141505 -1.92229e-06 0.00141192 0.00277693 0.0040419 0.00515237 0.00606147 0.00672928 0.007128 0.00724511 0.00708565 0.00667316 0.00604946 0.00527324 -0.00132396 -0.00240125 -0.00344176 -0.00442481 -0.00533969 -0.00618217 -0.00695198 -0.00765096 -0.00828161 -0.00884604 -0.00934354 -0.00977596 -0.0101389 -0.0104269 -0.0106321 -0.0107445 -0.010752 -0.0106415 -0.0103989 -0.010011 -0.00946344 -0.00875174 -0.00786969 -0.00681933 -0.00561037 -0.00426148 -0.00280122 -0.00126817 0.000289596 0.00181617 0.00325179 0.00453133 0.00559645 0.00639561 0.00689053 0.0070606 0.00690608 0.00644978 0.00573702 0.00483417 -0.00165208 -0.00280827 -0.00392071 -0.0049692 -0.00594433 -0.00684352 -0.00766827 -0.00842217 -0.00910936 -0.00973338 -0.0102947 -0.0107962 -0.011234 -0.0116026 -0.0118938 -0.0120964 -0.0121967 -0.012179 -0.0120262 -0.0117208 -0.0112441 -0.0105867 -0.00973701 -0.00869221 -0.00745766 -0.00604898 -0.00449337 -0.00283042 -0.00111196 0.000599328 0.00223406 0.00371467 0.00496897 0.00593102 0.00654921 0.00679228 0.00665384 0.00615491 0.00534415 0.00429621 -0.00216945 -0.00340058 -0.00458106 -0.0056914 -0.00672367 -0.00767711 -0.00855509 -0.00936306 -0.0101069 -0.0107918 -0.0114195 -0.0119941 -0.0125122 -0.0129688 -0.0133554 -0.0136598 -0.0138666 -0.0139575 -0.0139119 -0.0137081 -0.0133221 -0.0127383 -0.0119392 -0.0109155 -0.00966682 -0.00820421 -0.00655221 -0.00475037 -0.00285373 -0.000931914 0.00093504 0.00265523 0.00413978 0.00530492 0.00608205 0.00642577 0.00632034 0.00578329 0.00486603 0.00365175 -0.00289465 -0.00419681 -0.00544144 -0.00660995 -0.00769601 -0.00870079 -0.00962972 -0.0104903 -0.0112903 -0.0120368 -0.0127333 -0.0133849 -0.0139894 -0.0145423 -0.0150349 -0.0154544 -0.0157836 -0.0160016 -0.0160841 -0.0160045 -0.0157331 -0.0152474 -0.014522 -0.0135401 -0.0122937 -0.0107875 -0.00904158 -0.00709398 -0.00500195 -0.00284184 -0.00070519 0.00129981 0.00306442 0.00448285 0.00546482 0.00594623 0.00589813 0.00533205 0.00430099 0.00289663 -0.00384581 -0.00521512 -0.0065201 -0.00774305 -0.00887929 -0.00993203 -0.010909 -0.0118199 -0.0126749 -0.0134831 -0.0142501 -0.0149825 -0.0156795 -0.0163373 -0.0169475 -0.0174965 -0.0179657 -0.0183316 -0.0185659 -0.0186369 -0.0185083 -0.0181494 -0.0175263 -0.0166124 -0.0153905 -0.0138566 -0.0120242 -0.00992761 -0.00762478 -0.00519801 -0.00275076 -0.000409308 0.00169428 0.00342733 0.00467202 0.00533953 0.00538245 0.00480259 0.00365268 0.00203247 -0.00504052 -0.00647316 -0.00783482 -0.00910846 -0.010291 -0.0113877 -0.0124088 -0.0133668 -0.0142744 -0.0151432 -0.0159816 -0.0167977 -0.0175927 -0.0183638 -0.019103 -0.0197966 -0.0204245 -0.0209606 -0.0213727 -0.0216232 -0.0216689 -0.0214702 -0.0209827 -0.0201689 -0.0189999 -0.0174607 -0.0155553 -0.013312 -0.0107868 -0.00806646 -0.00526607 -0.00253132 -2.10549e-05 0.00209969 0.00367845 0.00459396 0.00477321 0.00420298 0.00293283 0.00106956 -0.00649541 -0.00798791 -0.00940287 -0.0107234 -0.0119478 -0.0130835 -0.0141436 -0.0151437 -0.0160996 -0.0170264 -0.017935 -0.0188363 -0.0197332 -0.0206249 -0.021504 -0.0223567 -0.0231619 -0.0238908 -0.0245071 -0.0249677 -0.0252216 -0.0252192 -0.024905 -0.0242283 -0.0231467 -0.0216314 -0.0196742 -0.0172935 -0.0145408 -0.0115043 -0.00830939 -0.00512166 -0.00212974 0.000463208 0.00246185 0.00370272 0.0040777 0.00355102 0.00216461 3.05795e-05 -0.00822592 -0.00977555 -0.011241 -0.0126047 -0.0138658 -0.0150341 -0.0161259 -0.0171605 -0.018158 -0.0191369 -0.0201121 -0.0210972 -0.0220979 -0.023115 -0.0241426 -0.0251671 -0.0261663 -0.0271093 -0.0279557 -0.0286564 -0.0291526 -0.0293839 -0.0292827 -0.0287839 -0.0278292 -0.0263738 -0.0243936 -0.0218938 -0.0189169 -0.0155492 -0.0119235 -0.00822401 -0.00467118 -0.00151173 0.00100698 0.0026675 0.00331415 0.00287809 0.00138695 -0.00104483 -0.010246 -0.0118514 -0.0133654 -0.0147685 -0.0160599 -0.0172521 -0.0183652 -0.0194234 -0.0204516 -0.021473 -0.0225073 -0.023571 -0.0246732 -0.0258172 -0.0269985 -0.028204 -0.0294108 -0.0305858 -0.0316848 -0.0326527 -0.0334229 -0.0339238 -0.0340748 -0.0337955 -0.0330102 -0.0316554 -0.0296883 -0.027097 -0.0239101 -0.020207 -0.0161233 -0.0118592 -0.00766658 -0.00384012 -0.00068838 0.00150351 0.00251647 0.0022341 0.00065982 -0.00209442 -0.0125679 -0.0142303 -0.0157924 -0.0172306 -0.0185442 -0.0197482 -0.020868 -0.0219336 -0.0229763 -0.0240253 -0.0251056 -0.0262377 -0.0274345 -0.0287017 -0.0300368 -0.0314273 -0.03285 -0.0342696 -0.0356382 -0.0368949 -0.0379653 -0.0387666 -0.039205 -0.039184 -0.0386097 -0.0373981 -0.035485 -0.0328375 -0.0294658 -0.0254362 -0.0208813 -0.016011 -0.0111065 -0.00651181 -0.00260499 0.000246365 0.00174038 0.00169363 7.07553e-05 -0.00302638 -0.0152027 -0.0169268 -0.0185383 -0.0200073 -0.0213319 -0.022531 -0.0236364 -0.0246865 -0.0257206 -0.0267753 -0.0278819 -0.0290658 -0.0303437 -0.0317245 -0.0332073 -0.0347805 -0.0364203 -0.0380896 -0.0397369 -0.0412956 -0.0426837 -0.0438075 -0.0445599 -0.0448287 -0.0445012 -0.0434721 -0.0416542 -0.0389905 -0.0354682 -0.0311348 -0.0261114 -0.0206105 -0.0149354 -0.00947802 -0.00469093 -0.00103878 0.00107134 0.00136353 -0.00025724 -0.00371111 -0.0181608 -0.0199567 -0.0216217 -0.0231159 -0.024436 -0.0256062 -0.0266681 -0.0276709 -0.0286644 -0.0296943 -0.0307999 -0.0320114 -0.03335 -0.0348275 -0.0364447 -0.0381905 -0.0400406 -0.0419559 -0.0438811 -0.045744 -0.0474557 -0.0489114 -0.0499919 -0.0505694 -0.0505129 -0.0496962 -0.0480084 -0.0453669 -0.0417325 -0.0371278 -0.0316553 -0.0255192 -0.019035 -0.0126352 -0.00684762 -0.00224556 0.000634414 0.00139226 -0.000156167 -0.00397134 -0.0214535 -0.023339 -0.0250645 -0.0265762 -0.0278697 -0.0289777 -0.0299557 -0.0308679 -0.0317781 -0.0327432 -0.0338112 -0.0350182 -0.0363896 -0.0379397 -0.0396706 -0.0415712 -0.0436161 -0.0457637 -0.0479549 -0.0501121 -0.0521391 -0.053921 -0.0553268 -0.0562146 -0.056436 -0.055845 -0.0543079 -0.0517164 -0.0480038 -0.0431637 -0.0372726 -0.0305157 -0.0232075 -0.0158079 -0.00891338 -0.00321223 0.000606517 0.00198113 0.000598356 -0.00357042 -0.0250954 -0.0270988 -0.0288954 -0.030413 -0.0316477 -0.0326468 -0.033486 -0.0342505 -0.0350221 -0.0358714 -0.0368565 -0.0380189 -0.0393881 -0.0409801 -0.0427972 -0.0448274 -0.0470433 -0.0494001 -0.0518343 -0.0542625 -0.0565818 -0.0586669 -0.0603762 -0.0615544 -0.0620379 -0.0616624 -0.0602737 -0.0577396 -0.0539665 -0.0489182 -0.04264 -0.0352888 -0.0271628 -0.0187318 -0.0106459 -0.0037051 0.00123096 0.00339782 0.00230073 -0.0021985 -0.0291097 -0.0312734 -0.0331549 -0.034659 -0.0357878 -0.0366126 -0.0372396 -0.0377827 -0.0383466 -0.0390181 -0.039866 -0.0409371 -0.0422635 -0.0438614 -0.045732 -0.0478608 -0.0502171 -0.0527517 -0.055396 -0.05806 -0.0606336 -0.0629816 -0.0649523 -0.0663782 -0.0670817 -0.0668828 -0.0656093 -0.0631089 -0.0592638 -0.0540102 -0.0473616 -0.0394398 -0.0305136 -0.0210421 -0.0117054 -0.00340068 0.00283444 0.00599252 0.00533192 0.000544216 -0.0335347 -0.03592 -0.0379016 -0.0393593 -0.0403125 -0.0408724 -0.0411903 -0.041419 -0.0416914 -0.042113 -0.0427626 -0.0436909 -0.0449306 -0.046496 -0.0483847 -0.0505778 -0.0530394 -0.0557146 -0.0585279 -0.0613822 -0.0641596 -0.0667144 -0.0688851 -0.0704926 -0.0713467 -0.0712537 -0.0700265 -0.067496 -0.0635259 -0.0580291 -0.0509913 -0.0424985 -0.0327814 -0.0222685 -0.0116419 -0.00186776 0.0058463 0.0102174 0.01018 0.00516861 -0.0384372 -0.0411293 -0.0432233 -0.0445775 -0.045251 -0.0454211 -0.0453043 -0.0451041 -0.0449874 -0.0450785 -0.0454648 -0.0461977 -0.0473071 -0.0488023 -0.0506741 -0.052897 -0.0554273 -0.0582024 -0.0611389 -0.0641307 -0.0670512 -0.0697438 -0.0720365 -0.0737389 -0.0746487 -0.0745597 -0.0732719 -0.0706035 -0.066404 -0.0605706 -0.0530684 -0.0439532 -0.0334169 -0.0218443 -0.00989021 0.00144799 0.0108197 0.0166502 0.0174667 0.0123248 -0.0439332 -0.047047 -0.0492517 -0.050403 -0.0506416 -0.0502509 -0.0495389 -0.0487732 -0.0481577 -0.0478335 -0.0478919 -0.0483798 -0.0493198 -0.0507114 -0.0525355 -0.0547563 -0.0573203 -0.0601549 -0.0631665 -0.0662388 -0.0692352 -0.0719871 -0.0743114 -0.0760057 -0.076855 -0.0766409 -0.0751513 -0.072193 -0.0676059 -0.0612775 -0.0531616 -0.0432951 -0.0318386 -0.0191305 -0.00577761 0.00723342 0.0184538 0.0260245 0.0279846 0.022843 -0.0502245 -0.0539083 -0.0561857 -0.0569611 -0.0565329 -0.055349 -0.0538415 -0.0523524 -0.0511208 -0.0502975 -0.0499694 -0.0501712 -0.0509113 -0.0521742 -0.0539267 -0.0561193 -0.0586859 -0.0615416 -0.0645809 -0.0676758 -0.0706779 -0.0734057 -0.0756637 -0.0772361 -0.0778944 -0.0774064 -0.0755469 -0.072111 -0.066929 -0.0598823 -0.0509211 -0.040075 -0.0274887 -0.013464 0.00144799 0.0163051 0.0296152 0.0392694 0.0427511 0.0377985 -0.0576647 -0.0620953 -0.0643234 -0.0644238 -0.0629828 -0.0606947 -0.0581472 -0.0557591 -0.0537932 -0.0523956 -0.0516346 -0.0515225 -0.0520449 -0.0531652 -0.0548315 -0.0569772 -0.0595209 -0.0623633 -0.0653856 -0.0684463 -0.0713841 -0.0740035 -0.0760951 -0.0774286 -0.07776 -0.0768409 -0.0744298 -0.0703066 -0.0642886 -0.0562485 -0.0461336 -0.0339738 -0.0199122 -0.00423284 0.0125594 0.0295834 0.0453528 0.0575614 0.0630934 0.0586223 -0.0668816 -0.0722324 -0.0741072 -0.0730179 -0.0700523 -0.0662503 -0.0623742 -0.0589013 -0.0560915 -0.0540607 -0.0528395 -0.0524035 -0.052706 -0.0536828 -0.0552584 -0.0573465 -0.0598478 -0.0626475 -0.0656117 -0.0685848 -0.0713918 -0.0738221 -0.0756518 -0.0766343 -0.0765084 -0.0750066 -0.0718669 -0.0668475 -0.0597444 -0.0504115 -0.0387833 -0.0248847 -0.00886069 0.00900805 0.0282435 0.0480216 0.0668898 0.0823924 0.0907852 0.0873017 -0.0790147 -0.0853461 -0.0861793 -0.0830209 -0.0777836 -0.0719418 -0.0664092 -0.0616683 -0.0579253 -0.0552283 -0.0535447 -0.0527966 -0.0528944 -0.0537402 -0.0552312 -0.0572587 -0.0597046 -0.0624374 -0.0653079 -0.0681461 -0.0707628 -0.0729328 -0.0744169 -0.0749521 -0.0742583 -0.0720463 -0.0680288 -0.0619347 -0.0535264 -0.0426214 -0.0291185 -0.0130121 0.00557304 0.0263692 0.0489203 0.0724519 0.0955542 0.115637 0.12827 0.126754 -0.0962023 -0.103124 -0.101425 -0.0947162 -0.086141 -0.0776082 -0.0700686 -0.0638985 -0.0591704 -0.0558126 -0.0536971 -0.0526749 -0.0526036 -0.053346 -0.0547695 -0.0567422 -0.0591271 -0.0617762 -0.0645258 -0.0671923 -0.0695731 -0.0714294 -0.0725077 -0.0725288 -0.0711938 -0.0681905 -0.0632028 -0.0559226 -0.0460653 -0.0333898 -0.017724 0.00101628 0.0227865 0.047393 0.0744526 0.103282 0.132557 0.15956 0.179 0.181528 -0.122639 -0.128302 -0.120927 -0.108233 -0.0948551 -0.0828722 -0.0729941 -0.0652975 -0.0596025 -0.0556505 -0.0531825 -0.0519611 -0.051783 -0.0524692 -0.0538577 -0.0557944 -0.0581249 -0.0606869 -0.0633043 -0.0657817 -0.0679055 -0.0694256 -0.0700766 -0.0695651 -0.0675753 -0.0637729 -0.057812 -0.0493431 -0.0380239 -0.023533 -0.00558823 0.0160385 0.041482 0.0707578 0.103716 0.139948 0.178445 0.216559 0.247877 0.259083 -0.167017 -0.16506 -0.145582 -0.123069 -0.10301 -0.0868222 -0.0744222 -0.0652727 -0.0587769 -0.0544113 -0.0517534 -0.0504666 -0.0502867 -0.0509963 -0.052408 -0.0543506 -0.0566565 -0.0591533 -0.061656 -0.0639617 -0.0658486 -0.06706 -0.0673216 -0.0663304 -0.0637574 -0.0592502 -0.0524361 -0.0429255 -0.0303153 -0.0141915 0.00586726 0.0302943 0.0595211 0.0939727 0.134043 0.180038 0.231933 0.288135 0.341501 0.372146 -0.248408 -0.218679 -0.174572 -0.136667 -0.108012 -0.0873619 -0.0728031 -0.062711 -0.0558906 -0.0515017 -0.0489566 -0.0478343 -0.0478258 -0.0486903 -0.0502275 -0.0522584 -0.0546107 -0.0571082 -0.059563 -0.0617697 -0.0635038 -0.0645068 -0.064501 -0.0631788 -0.0602044 -0.055214 -0.047816 -0.0375893 -0.0240786 -0.00678497 0.0148529 0.0414949 0.0739436 0.113223 0.160676 0.218083 0.287771 0.371959 0.466887 0.54336 -0.40947 -0.290805 -0.199377 -0.140418 -0.103631 -0.0804313 -0.0655352 -0.0558981 -0.0497554 -0.0460496 -0.0441181 -0.0435217 -0.0439531 -0.0451797 -0.0470106 -0.0492749 -0.0518075 -0.054438 -0.0569836 -0.0592431 -0.0609949 -0.0619854 -0.0619389 -0.0605498 -0.0574824 -0.0523704 -0.0448146 -0.0343783 -0.0205767 -0.00285752 0.0194353 0.0471303 0.0813419 0.123685 0.176652 0.24428 0.333326 0.455059 0.623303 0.816309 -0.748922 -0.341339 -0.18267 -0.113718 -0.0794949 -0.060655 -0.0495894 -0.0429383 -0.039058 -0.0370675 -0.0364519 -0.0368816 -0.0381276 -0.0400129 -0.0423868 -0.045108 -0.0480338 -0.0510118 -0.0538735 -0.0564299 -0.0584694 -0.0597495 -0.0600018 -0.0589287 -0.0562016 -0.0514603 -0.0443108 -0.0343202 -0.0210059 -0.00381473 0.017916 0.0450331 0.0787048 0.120704 0.174012 0.244264 0.343393 0.498509 0.767783 1.26737 0 0 0 0 0 0 0 0 0 0 0 0 0 0 0 0 0 0 0 0 0 0 0 0 0 0 0 0 0 0 0 0 0 0 0 0 0 0 0 0 -0.00267171 -0.00304761 -0.00355715 -0.0040499 -0.00448475 -0.00484518 -0.00512153 -0.00530733 -0.00539851 -0.00539303 -0.00529064 -0.00509264 -0.00480168 -0.00442177 -0.00395823 -0.00341777 -0.00280855 -0.00214028 -0.00142427 -0.00067344 9.78042e-05 0.000873774 0.00163788 0.00237298 0.0030619 0.00368806 0.00423611 0.00469254 0.0050463 0.00528937 0.00541712 0.0054286 0.00532677 0.00511822 0.00481292 0.00442376 0.00396642 0.00346227 0.0029558 0.00260059 -0.00324029 -0.00337953 -0.00369213 -0.00404985 -0.0043903 -0.00468186 -0.00490702 -0.00505543 -0.00512093 -0.00510022 -0.00499211 -0.00479709 -0.00451711 -0.00415548 -0.00371686 -0.00320733 -0.00263438 -0.00200705 -0.0013359 -0.00063302 8.80303e-05 0.000812544 0.00152501 0.00220937 0.00284962 0.00343038 0.00393749 0.00435867 0.00468413 0.00490708 0.00502416 0.00503576 0.00494631 0.00476423 0.00450219 0.00417774 0.00381538 0.00345271 0.00315647 0.00305766 -0.00340839 -0.00353779 -0.00378074 -0.00406541 -0.0043431 -0.00458368 -0.0047688 -0.00488721 -0.00493214 -0.00489976 -0.0047884 -0.00459796 -0.00432972 -0.00398625 -0.00357142 -0.00309042 -0.00254986 -0.00195784 -0.001324 -0.000659503 2.29782e-05 0.000709563 0.00138552 0.00203544 0.00264389 0.00319591 0.00367777 0.00407757 0.00438594 0.00459664 0.00470702 0.00471844 0.00463655 0.00447139 0.00423771 0.00395563 0.00365233 0.00336551 0.00314915 0.00307732 -0.00339037 -0.00358257 -0.00382645 -0.00408687 -0.00433313 -0.00454304 -0.0047017 -0.00479953 -0.00483054 -0.00479124 -0.00467993 -0.0044962 -0.00424077 -0.00391545 -0.00352323 -0.00306832 -0.00255626 -0.00199407 -0.00139034 -0.000755255 -0.000100656 0.000560254 0.00121325 0.00184319 0.00243465 0.00297254 0.00344283 0.00383331 0.00413437 0.00433967 0.00444675 0.00445745 0.00437829 0.00422036 0.00399953 0.00373652 0.00345735 0.00319385 0.00298345 0.00286436 -0.00330292 -0.00357762 -0.00385636 -0.00412375 -0.00436301 -0.0045604 -0.00470599 -0.00479317 -0.00481767 -0.00477693 -0.00466963 -0.00449527 -0.00425411 -0.00394725 -0.00357675 -0.00314574 -0.0026586 -0.00212118 -0.00154095 -0.000927077 -0.000290636 0.00035572 0.000998039 0.00162109 0.00220905 0.00274615 0.00321749 0.00360993 0.00391296 0.00411958 0.00422694 0.00423688 0.00415628 0.00399677 0.0037746 0.0035101 0.00322697 0.00295116 0.00270855 0.00251992 -0.00321425 -0.00357351 -0.00390183 -0.00419422 -0.00444335 -0.00464253 -0.00478675 -0.00487263 -0.00489805 -0.00486167 -0.00476278 -0.00460094 -0.00437601 -0.00408843 -0.00373927 -0.00333054 -0.00286539 -0.00234842 -0.0017859 -