# vtk DataFile Version 2.0
Velocidades
ASCII

DATASET STRUCTURED_GRID
DIMENSIONS   40   40   20

POINTS   32000   double
0.0125   0.0125   0.025
0.0125   0.0375   0.025
0.0125   0.0625   0.025
0.0125   0.0875   0.025
0.0125   0.1125   0.025
0.0125   0.1375   0.025
0.0125   0.1625   0.025
0.0125   0.1875   0.025
0.0125   0.2125   0.025
0.0125   0.2375   0.025
0.0125   0.2625   0.025
0.0125   0.2875   0.025
0.0125   0.3125   0.025
0.0125   0.3375   0.025
0.0125   0.3625   0.025
0.0125   0.3875   0.025
0.0125   0.4125   0.025
0.0125   0.4375   0.025
0.0125   0.4625   0.025
0.0125   0.4875   0.025
0.0125   0.5125   0.025
0.0125   0.5375   0.025
0.0125   0.5625   0.025
0.0125   0.5875   0.025
0.0125   0.6125   0.025
0.0125   0.6375   0.025
0.0125   0.6625   0.025
0.0125   0.6875   0.025
0.0125   0.7125   0.025
0.0125   0.7375   0.025
0.0125   0.7625   0.025
0.0125   0.7875   0.025
0.0125   0.8125   0.025
0.0125   0.8375   0.025
0.0125   0.8625   0.025
0.0125   0.8875   0.025
0.0125   0.9125   0.025
0.0125   0.9375   0.025
0.0125   0.9625   0.025
0.0125   0.9875   0.025
0.0375   0.0125   0.025
0.0375   0.0375   0.025
0.0375   0.0625   0.025
0.0375   0.0875   0.025
0.0375   0.1125   0.025
0.0375   0.1375   0.025
0.0375   0.1625   0.025
0.0375   0.1875   0.025
0.0375   0.2125   0.025
0.0375   0.2375   0.025
0.0375   0.2625   0.025
0.0375   0.2875   0.025
0.0375   0.3125   0.025
0.0375   0.3375   0.025
0.0375   0.3625   0.025
0.0375   0.3875   0.025
0.0375   0.4125   0.025
0.0375   0.4375   0.025
0.0375   0.4625   0.025
0.0375   0.4875   0.025
0.0375   0.5125   0.025
0.0375   0.5375   0.025
0.0375   0.5625   0.025
0.0375   0.5875   0.025
0.0375   0.6125   0.025
0.0375   0.6375   0.025
0.0375   0.6625   0.025
0.0375   0.6875   0.025
0.0375   0.7125   0.025
0.0375   0.7375   0.025
0.0375   0.7625   0.025
0.0375   0.7875   0.025
0.0375   0.8125   0.025
0.0375   0.8375   0.025
0.0375   0.8625   0.025
0.0375   0.8875   0.025
0.0375   0.9125   0.025
0.0375   0.9375   0.025
0.0375   0.9625   0.025
0.0375   0.9875   0.025
0.0625   0.0125   0.025
0.0625   0.0375   0.025
0.0625   0.0625   0.025
0.0625   0.0875   0.025
0.0625   0.1125   0.025
0.0625   0.1375   0.025
0.0625   0.1625   0.025
0.0625   0.1875   0.025
0.0625   0.2125   0.025
0.0625   0.2375   0.025
0.0625   0.2625   0.025
0.0625   0.2875   0.025
0.0625   0.3125   0.025
0.0625   0.3375   0.025
0.0625   0.3625   0.025
0.0625   0.3875   0.025
0.0625   0.4125   0.025
0.0625   0.4375   0.025
0.0625   0.4625   0.025
0.0625   0.4875   0.025
0.0625   0.5125   0.025
0.0625   0.5375   0.025
0.0625   0.5625   0.025
0.0625   0.5875   0.025
0.0625   0.6125   0.025
0.0625   0.6375   0.025
0.0625   0.6625   0.025
0.0625   0.6875   0.025
0.0625   0.7125   0.025
0.0625   0.7375   0.025
0.0625   0.7625   0.025
0.0625   0.7875   0.025
0.0625   0.8125   0.025
0.0625   0.8375   0.025
0.0625   0.8625   0.025
0.0625   0.8875   0.025
0.0625   0.9125   0.025
0.0625   0.9375   0.025
0.0625   0.9625   0.025
0.0625   0.9875   0.025
0.0875   0.0125   0.025
0.0875   0.0375   0.025
0.0875   0.0625   0.025
0.0875   0.0875   0.025
0.0875   0.1125   0.025
0.0875   0.1375   0.025
0.0875   0.1625   0.025
0.0875   0.1875   0.025
0.0875   0.2125   0.025
0.0875   0.2375   0.025
0.0875   0.2625   0.025
0.0875   0.2875   0.025
0.0875   0.3125   0.025
0.0875   0.3375   0.025
0.0875   0.3625   0.025
0.0875   0.3875   0.025
0.0875   0.4125   0.025
0.0875   0.4375   0.025
0.0875   0.4625   0.025
0.0875   0.4875   0.025
0.0875   0.5125   0.025
0.0875   0.5375   0.025
0.0875   0.5625   0.025
0.0875   0.5875   0.025
0.0875   0.6125   0.025
0.0875   0.6375   0.025
0.0875   0.6625   0.025
0.0875   0.6875   0.025
0.0875   0.7125   0.025
0.0875   0.7375   0.025
0.0875   0.7625   0.025
0.0875   0.7875   0.025
0.0875   0.8125   0.025
0.0875   0.8375   0.025
0.0875   0.8625   0.025
0.0875   0.8875   0.025
0.0875   0.9125   0.025
0.0875   0.9375   0.025
0.0875   0.9625   0.025
0.0875   0.9875   0.025
0.1125   0.0125   0.025
0.1125   0.0375   0.025
0.1125   0.0625   0.025
0.1125   0.0875   0.025
0.1125   0.1125   0.025
0.1125   0.1375   0.025
0.1125   0.1625   0.025
0.1125   0.1875   0.025
0.1125   0.2125   0.025
0.1125   0.2375   0.025
0.1125   0.2625   0.025
0.1125   0.2875   0.025
0.1125   0.3125   0.025
0.1125   0.3375   0.025
0.1125   0.3625   0.025
0.1125   0.3875   0.025
0.1125   0.4125   0.025
0.1125   0.4375   0.025
0.1125   0.4625   0.025
0.1125   0.4875   0.025
0.1125   0.5125   0.025
0.1125   0.5375   0.025
0.1125   0.5625   0.025
0.1125   0.5875   0.025
0.1125   0.6125   0.025
0.1125   0.6375   0.025
0.1125   0.6625   0.025
0.1125   0.6875   0.025
0.1125   0.7125   0.025
0.1125   0.7375   0.025
0.1125   0.7625   0.025
0.1125   0.7875   0.025
0.1125   0.8125   0.025
0.1125   0.8375   0.025
0.1125   0.8625   0.025
0.1125   0.8875   0.025
0.1125   0.9125   0.025
0.1125   0.9375   0.025
0.1125   0.9625   0.025
0.1125   0.9875   0.025
0.1375   0.0125   0.025
0.1375   0.0375   0.025
0.1375   0.0625   0.025
0.1375   0.0875   0.025
0.1375   0.1125   0.025
0.1375   0.1375   0.025
0.1375   0.1625   0.025
0.1375   0.1875   0.025
0.1375   0.2125   0.025
0.1375   0.2375   0.025
0.1375   0.2625   0.025
0.1375   0.2875   0.025
0.1375   0.3125   0.025
0.1375   0.3375   0.025
0.1375   0.3625   0.025
0.1375   0.3875   0.025
0.1375   0.4125   0.025
0.1375   0.4375   0.025
0.1375   0.4625   0.025
0.1375   0.4875   0.025
0.1375   0.5125   0.025
0.1375   0.5375   0.025
0.1375   0.5625   0.025
0.1375   0.5875   0.025
0.1375   0.6125   0.025
0.1375   0.6375   0.025
0.1375   0.6625   0.025
0.1375   0.6875   0.025
0.1375   0.7125   0.025
0.1375   0.7375   0.025
0.1375   0.7625   0.025
0.1375   0.7875   0.025
0.1375   0.8125   0.025
0.1375   0.8375   0.025
0.1375   0.8625   0.025
0.1375   0.8875   0.025
0.1375   0.9125   0.025
0.1375   0.9375   0.025
0.1375   0.9625   0.025
0.1375   0.9875   0.025
0.1625   0.0125   0.025
0.1625   0.0375   0.025
0.1625   0.0625   0.025
0.1625   0.0875   0.025
0.1625   0.1125   0.025
0.1625   0.1375   0.025
0.1625   0.1625   0.025
0.1625   0.1875   0.025
0.1625   0.2125   0.025
0.1625   0.2375   0.025
0.1625   0.2625   0.025
0.1625   0.2875   0.025
0.1625   0.3125   0.025
0.1625   0.3375   0.025
0.1625   0.3625   0.025
0.1625   0.3875   0.025
0.1625   0.4125   0.025
0.1625   0.4375   0.025
0.1625   0.4625   0.025
0.1625   0.4875   0.025
0.1625   0.5125   0.025
0.1625   0.5375   0.025
0.1625   0.5625   0.025
0.1625   0.5875   0.025
0.1625   0.6125   0.025
0.1625   0.6375   0.025
0.1625   0.6625   0.025
0.1625   0.6875   0.025
0.1625   0.7125   0.025
0.1625   0.7375   0.025
0.1625   0.7625   0.025
0.1625   0.7875   0.025
0.1625   0.8125   0.025
0.1625   0.8375   0.025
0.1625   0.8625   0.025
0.1625   0.8875   0.025
0.1625   0.9125   0.025
0.1625   0.9375   0.025
0.1625   0.9625   0.025
0.1625   0.9875   0.025
0.1875   0.0125   0.025
0.1875   0.0375   0.025
0.1875   0.0625   0.025
0.1875   0.0875   0.025
0.1875   0.1125   0.025
0.1875   0.1375   0.025
0.1875   0.1625   0.025
0.1875   0.1875   0.025
0.1875   0.2125   0.025
0.1875   0.2375   0.025
0.1875   0.2625   0.025
0.1875   0.2875   0.025
0.1875   0.3125   0.025
0.1875   0.3375   0.025
0.1875   0.3625   0.025
0.1875   0.3875   0.025
0.1875   0.4125   0.025
0.1875   0.4375   0.025
0.1875   0.4625   0.025
0.1875   0.4875   0.025
0.1875   0.5125   0.025
0.1875   0.5375   0.025
0.1875   0.5625   0.025
0.1875   0.5875   0.025
0.1875   0.6125   0.025
0.1875   0.6375   0.025
0.1875   0.6625   0.025
0.1875   0.6875   0.025
0.1875   0.7125   0.025
0.1875   0.7375   0.025
0.1875   0.7625   0.025
0.1875   0.7875   0.025
0.1875   0.8125   0.025
0.1875   0.8375   0.025
0.1875   0.8625   0.025
0.1875   0.8875   0.025
0.1875   0.9125   0.025
0.1875   0.9375   0.025
0.1875   0.9625   0.025
0.1875   0.9875   0.025
0.2125   0.0125   0.025
0.2125   0.0375   0.025
0.2125   0.0625   0.025
0.2125   0.0875   0.025
0.2125   0.1125   0.025
0.2125   0.1375   0.025
0.2125   0.1625   0.025
0.2125   0.1875   0.025
0.2125   0.2125   0.025
0.2125   0.2375   0.025
0.2125   0.2625   0.025
0.2125   0.2875   0.025
0.2125   0.3125   0.025
0.2125   0.3375   0.025
0.2125   0.3625   0.025
0.2125   0.3875   0.025
0.2125   0.4125   0.025
0.2125   0.4375   0.025
0.2125   0.4625   0.025
0.2125   0.4875   0.025
0.2125   0.5125   0.025
0.2125   0.5375   0.025
0.2125   0.5625   0.025
0.2125   0.5875   0.025
0.2125   0.6125   0.025
0.2125   0.6375   0.025
0.2125   0.6625   0.025
0.2125   0.6875   0.025
0.2125   0.7125   0.025
0.2125   0.7375   0.025
0.2125   0.7625   0.025
0.2125   0.7875   0.025
0.2125   0.8125   0.025
0.2125   0.8375   0.025
0.2125   0.8625   0.025
0.2125   0.8875   0.025
0.2125   0.9125   0.025
0.2125   0.9375   0.025
0.2125   0.9625   0.025
0.2125   0.9875   0.025
0.2375   0.0125   0.025
0.2375   0.0375   0.025
0.2375   0.0625   0.025
0.2375   0.0875   0.025
0.2375   0.1125   0.025
0.2375   0.1375   0.025
0.2375   0.1625   0.025
0.2375   0.1875   0.025
0.2375   0.2125   0.025
0.2375   0.2375   0.025
0.2375   0.2625   0.025
0.2375   0.2875   0.025
0.2375   0.3125   0.025
0.2375   0.3375   0.025
0.2375   0.3625   0.025
0.2375   0.3875   0.025
0.2375   0.4125   0.025
0.2375   0.4375   0.025
0.2375   0.4625   0.025
0.2375   0.4875   0.025
0.2375   0.5125   0.025
0.2375   0.5375   0.025
0.2375   0.5625   0.025
0.2375   0.5875   0.025
0.2375   0.6125   0.025
0.2375   0.6375   0.025
0.2375   0.6625   0.025
0.2375   0.6875   0.025
0.2375   0.7125   0.025
0.2375   0.7375   0.025
0.2375   0.7625   0.025
0.2375   0.7875   0.025
0.2375   0.8125   0.025
0.2375   0.8375   0.025
0.2375   0.8625   0.025
0.2375   0.8875   0.025
0.2375   0.9125   0.025
0.2375   0.9375   0.025
0.2375   0.9625   0.025
0.2375   0.9875   0.025
0.2625   0.0125   0.025
0.2625   0.0375   0.025
0.2625   0.0625   0.025
0.2625   0.0875   0.025
0.2625   0.1125   0.025
0.2625   0.1375   0.025
0.2625   0.1625   0.025
0.2625   0.1875   0.025
0.2625   0.2125   0.025
0.2625   0.2375   0.025
0.2625   0.2625   0.025
[...]
POINT_DATA   32000
VECTORS Velocidades double

3.09114e-05 0 0
9.29753e-05 0 0
0.000155848 0 0
0.000220123 0 0
0.000286411 0 0
0.000355322 0 0
0.000427463 0 0
0.000503438 0 0
0.000583847 0 0
0.000669294 0 0
0.0007604 0 0
0.000857815 0 0
0.000962246 0 0
0.00107448 0 0
0.00119543 0 0
0.00132617 0 0
0.001468 0 0
0.00162254 0 0
0.00179177 0 0
0.00197823 0 0
0.00218509 0 0
0.00241643 0 0
0.00267744 0 0
0.00297479 0 0
0.0033172 0 0
0.00371605 0 0
0.00418661 0 0
0.00474957 0 0
0.00543376 0 0
0.00628026 0 0
0.00734952 0 0
0.00873384 0 0
0.0105805 0 0
0.0131378 0 0
0.0168546 0 0
0.0226178 0 0
0.0323934 0 0
0.0512444 0 0
0.0949523 0 0
0.225921 0 0
8.80279e-05 0 0
0.000264779 0 0
0.00044385 0 0
0.000626947 0 0
0.000815808 0 0
0.00101218 0 0
0.00121781 0 0
0.00143441 0 0
0.0016637 0 0
0.00190742 0 0
0.00216733 0 0
0.00244532 0 0
0.00274339 0 0
0.00306381 0 0
0.00340919 0 0
0.00378261 0 0
0.00418781 0 0
0.00462939 0 0
0.00511309 0 0
0.00564612 0 0
0.00623763 0 0
0.00689927 0 0
0.00764595 0 0
0.00849688 0 0
0.00947701 0 0
0.0106191 0 0
0.011967 0 0
0.0135802 0 0
0.0155414 0 0
0.0179685 0 0
0.0210349 0 0
0.0250044 0 0
0.0302967 0 0
0.0376142 0 0
0.0482113 0 0
0.0645135 0 0
0.0917002 0 0
0.142284 0 0
0.251407 0 0
0.53661 0 0
0.000137393 0 0
0.000413283 0 0
0.000692848 0 0
0.000978772 0 0
0.00127379 0 0
0.00158066 0 0
0.00190211 0 0
0.00224085 0 0
0.0025996 0 0
0.00298107 0 0
0.00338807 0 0
0.00382354 0 0
0.00429068 0 0
0.00479304 0 0
0.00533475 0 0
0.00592066 0 0
0.00655667 0 0
0.00725003 0 0
0.00800978 0 0
0.00884729 0 0
0.00977701 0 0
0.0108173 0 0
0.0119918 0 0
0.0133307 0 0
0.0148737 0 0
0.0166725 0 0
0.0187964 0 0
0.0213393 0 0
0.0244318 0 0
0.0282599 0 0
0.0330959 0 0
0.0393525 0 0
0.0476809 0 0
0.0591581 0 0
0.0756696 0 0
0.100744 0 0
0.141526 0 0
0.213822 0 0
0.355916 0 0
0.665393 0 0
0.000181617 0 0
0.000546344 0 0
0.000916015 0 0
0.00129422 0 0
0.00168463 0 0
0.00209091 0 0
0.00251671 0 0
0.00296565 0 0
0.00344137 0 0
0.0039475 0 0
0.00448779 0 0
0.00506618 0 0
0.00568694 0 0
0.00635486 0 0
0.00707544 0 0
0.00785518 0 0
0.00870196 0 0
0.00962546 0 0
0.0106378 0 0
0.0117541 0 0
0.0129936 0 0
0.0143811 0 0
0.015948 0 0
0.017735 0 0
0.0197951 0 0
0.0221976 0 0
0.0250352 0 0
0.0284334 0 0
0.0325664 0 0
0.0376815 0 0
0.0441391 0 0
0.0524822 0 0
0.0635583 0 0
0.0787488 0 0
0.100418 0 0
0.132843 0 0
0.184256 0 0
0.271507 0 0
0.43068 0 0
0.735726 0 0
0.000222219 0 0
0.000668529 0 0
0.00112101 0 0
0.00158412 0 0
0.00206241 0 0
0.00256041 0 0
0.00308266 0 0
0.00363365 0 0
0.00421787 0 0
0.00483982 0 0
0.00550417 0 0
0.00621581 0 0
0.00698003 0 0
0.00780276 0 0
0.00869083 0 0
0.0096523 0 0
0.0106969 0 0
0.0118366 0 0
0.0130863 0 0
0.0144649 0 0
0.015996 0 0
0.0177101 0 0
0.0196464 0 0
0.0218552 0 0
0.0244019 0 0
0.0273726 0 0
0.0308815 0 0
0.0350833 0 0
0.0401923 0 0
0.046511 0 0
0.0544785 0 0
0.0647504 0 0
0.0783391 0 0
0.0968683 0 0
0.123054 0 0
0.161658 0 0
0.221423 0 0
0.319076 0 0
0.486825 0 0
0.779241 0 0
0.000260115 0 0
0.000782591 0 0
0.00131245 0 0
0.00185499 0 0
0.00241562 0 0
0.00299973 0 0
0.0036127 0 0
0.00425986 0 0
0.00494652 0 0
0.00567807 0 0
0.00646002 0 0
0.00729817 0 0
0.00819884 0 0
0.00916904 0 0
0.0102169 0 0
0.0113519 0 0
0.0125857 0 0
0.0139323 0 0
0.0154094 0 0
0.0170391 0 0
0.0188494 0 0
0.0208763 0 0
0.0231659 0 0
0.0257779 0 0
0.0287897 0 0
0.0323025 0 0
0.036451 0 0
0.0414168 0 0
0.0474506 0 0
0.0549051 0 0
0.0642885 0 0
0.0763537 0 0
0.0922495 0 0
0.113789 0 0
0.14394 0 0
0.187751 0 0
0.254113 0 0
0.359026 0 0
0.530521 0 0
0.80843 0 0
0.000295874 0 0
0.000890243 0 0
0.0014932 0 0
0.00211089 0 0
0.00274956 0 0
0.00341544 0 0
0.00411475 0 0
0.00485363 0 0
0.00563823 0 0
0.00647475 0 0
0.00736956 0 0
0.00832938 0 0
0.00936147 0 0
0.010474 0 0
0.0116762 0 0
0.0129791 0 0
0.014396 0 0
0.0159432 0 0
0.0176408 0 0
0.0195141 0 0
0.0215951 0 0
0.023925 0 0
0.0265565 0 0
0.029558 0 0
0.0330183 0 0
0.0370532 0 0
0.0418158 0 0
0.0475128 0 0
0.054428 0 0
0.0629589 0 0
0.0736748 0 0
0.0874113 0 0
0.105429 0 0
0.129686 0 0
0.163324 0 0
0.211538 0 0
0.283131 0 0
0.393088 0 0
0.565495 0 0
0.829225 0 0
0.000329851 0 0
0.000992558 0 0
0.00166507 0 0
0.00235438 0 0
0.00306756 0 0
0.0038117 0 0
0.00459383 0 0
0.00542091 0 0
0.00629991 0 0
0.00723784 0 0
0.00824193 0 0
0.00931976 0 0
0.0104796 0 0
0.0117305 0 0
0.0130832 0 0
0.0145499 0 0
0.0161458 0 0
0.0178891 0 0
0.0198025 0 0
0.0219142 0 0
0.0242603 0 0
0.0268865 0 0
0.0298515 0 0
0.0332323 0 0
0.0371284 0 0
0.041669 0 0
0.0470245 0 0
0.0534242 0 0
0.0611822 0 0
0.0707358 0 0
0.0827077 0 0
0.0980035 0 0
0.117974 0 0
0.144687 0 0
0.181397 0 0
0.233342 0 0
0.309092 0 0
0.422504 0 0
0.594133 0 0
0.844761 0 0
0.000362268 0 0
0.0010902 0 0
0.00182917 0 0
0.00258703 0 0
0.00337171 0 0
0.00419111 0 0
0.0050531 0 0
0.00596547 0 0
0.00693597 0 0
0.00797245 0 0
0.00908295 0 0
0.0102759 0 0
0.0115606 0 0
0.0129471 0 0
0.0144473 0 0
0.0160749 0 0
0.0178467 0 0
0.0197829 0 0
0.0219087 0 0
0.0242556 0 0
0.026863 0 0
0.0297813 0 0
0.0330747 0 0
0.0368271 0 0
0.0411493 0 0
0.0461824 0 0
0.0521127 0 0
0.0591902 0 0
0.0677561 0 0
0.0782836 0 0
0.0914412 0 0
0.108193 0 0
0.129962 0 0
0.158897 0 0
0.198314 0 0
0.253426 0 0
0.332481 0 0
0.44819 0 0
0.618038 0 0
0.856824 0 0
0.000393262 0 0
0.00118358 0 0
0.00198621 0 0
0.00280985 0 0
0.00366331 0 0
0.00455532 0 0
0.00549458 0 0
0.0064897 0 0
0.00754925 0 0
0.00868187 0 0
0.00989643 0 0
0.0112023 0 0
0.0126095 0 0
0.0141293 0 0
0.0157746 0 0
0.0175608 0 0
0.019506 0 0
0.0216327 0 0
0.0239685 0 0
0.0265481 0 0
0.0294151 0 0
0.0326247 0 0
0.0362484 0 0
0.0403822 0 0
0.0451264 0 0
0.0506422 0 0
0.0571326 0 0
0.0648675 0 0
0.0742125 0 0
0.0856722 0 0
0.0999545 0 0
0.118072 0 0
0.141504 0 0
0.172453 0 0
0.214263 0 0
0.272068 0 0
0.35374 0 0
0.470885 0 0
0.638355 0 0
0.866511 0 0
0.000422889 0 0
0.00127288 0 0
0.00213648 0 0
0.00302328 0 0
0.00394294 0 0
0.00490508 0 0
0.00591923 0 0
0.0069948 0 0
0.00814118 0 0
0.00936782 0 0
0.0106844 0 0
0.0121011 0 0
0.0136289 0 0
0.0152802 0 0
0.0170688 0 0
0.0190115 0 0
0.0211281 0 0
0.0234431 0 0
0.0259867 0 0
0.0287965 0 0
0.0319204 0 0
0.0354191 0 0
0.0393708 0 0
0.0438783 0 0
0.0490393 0 0
0.0550287 0 0
0.0620656 0 0
0.0704382 0 0
0.0805348 0 0
0.0928874 0 0
0.108238 0 0
0.127639 0 0
0.152612 0 0
0.185395 0 0
0.229326 0 0
0.289427 0 0
0.373169 0 0
0.491113 0 0
0.655872 0 0
0.874492 0 0
0.000451145 0 0
0.00135808 0 0
0.00227997 0 0
0.00322731 0 0
0.00421066 0 0
0.00524049 0 0
0.00632719 0 0
0.00748102 0 0
0.00871216 0 0
0.0100309 0 0
0.0114476 0 0
0.0129735 0 0
0.0146203 0 0
0.0164012 0 0
0.0183315 0 0
0.020429 0 0
0.0227152 0 0
0.0252163 0 0
0.0279649 0 0
0.0310016 0 0
0.0343778 0 0
0.0381583 0 0
0.0424252 0 0
0.0472811 0 0
0.0528462 0 0
0.059297 0 0
0.0668644 0 0
0.0758532 0 0
0.0866718 0 0
0.0998769 0 0
0.116239 0 0
0.136844 0 0
0.163245 0 0
0.197697 0 0
0.243516 0 0
0.305581 0 0
0.390956 0 0
0.509235 0 0
0.671128 0 0
0.881192 0 0
0.000477994 0 0
0.00143907 0 0
0.0024165 0 0
0.00342171 0 0
0.00446617 0 0
0.00556124 0 0
0.00671818 0 0
0.00794808 0 0
0.00926195 0 0
0.0106708 0 0
0.0121861 0 0
0.0138194 0 0
0.0155836 0 0
0.0174928 0 0
0.0195633 0 0
0.021814 0 0
0.0242679 0 0
0.0269529 0 0
0.0299037 0 0
0.0331636 0 0
0.0367867 0 0
0.0408412 0 0
0.0454128 0 0
0.0506089 0 0
0.0565645 0 0
0.0634623 0 0
0.0715437 0 0
0.0811275 0 0
0.09264 0 0
0.106659 0 0
0.123981 0 0
0.145716 0 0
0.173441 0 0
0.209416 0 0
0.256915 0 0
0.320662 0 0
0.407315 0 0
0.52558 0 0
0.684555 0 0
0.886916 0 0
0.000503358 0 0
0.00151564 0 0
0.00254571 0 0
0.00360598 0 0
0.00470885 0 0
0.0058666 0 0
0.00709137 0 0
0.00839511 0 0
0.00978966 0 0
0.0112869 0 0
0.0128988 0 0
0.0146381 0 0
0.0165184 0 0
0.0185545 0 0
0.0207637 0 0
0.0231662 0 0
0.0257861 0 0
0.028653 0 0
0.0318033 0 0
0.0352826 0 0
0.0391477 0 0
0.04347 0 0
0.0483393 0 0
0.0538689 0 0
0.060204 0 0
0.0675355 0 0
0.0761146 0 0
0.0862728 0 0
0.0984523 0 0
0.11325 0 0
0.131481 0 0
0.154279 0 0
0.183233 0 0
0.220599 0 0
0.269596 0 0
0.334782 0 0
0.422423 0 0
0.540413 0 0
0.696482 0 0
0.891879 0 0
0.000527126 0 0
0.00158743 0 0
0.00266704 0 0
0.00377936 0 0
0.00493774 0 0
0.00615544 0 0
0.00744548 0 0
0.00882069 0 0
0.0102938 0 0
0.0118773 0 0
0.0135843 0 0
0.0154281 0 0
0.0174229 0 0
0.0195847 0 0
0.0219315 0 0
0.0244845 0 0
0.027269 0 0
0.0303159 0 0
0.0336635 0 0
0.0373592 0 0
0.0414624 0 0
0.0460477 0 0
0.051209 0 0
0.0570658 0 0
0.0637711 0 0
0.0715242 0 0
0.0805856 0 0
0.0912986 0 0
0.104119 0 0
0.119661 0 0
0.138756 0 0
0.162553 0 0
0.192649 0 0
0.231288 0 0
0.281621 0 0
0.34804 0 0
0.436429 0 0
0.553948 0 0
0.707164 0 0
0.896236 0 0
0.00054915 0 0
0.00165402 0 0
0.00277977 0 0
0.00394083 0 0
0.00515158 0 0
0.00642623 0 0
0.00777875 0 0
0.00922286 0 0
0.0107721 0 0
0.01244 0 0
0.0142402 0 0
0.0161868 0 0
0.018295 0 0
0.0205813 0 0
0.0230646 0 0
0.0257671 0 0
0.028715 0 0
0.0319406 0 0
0.0354835 0 0
0.0393933 0 0
0.0437316 0 0
0.0485761 0 0
0.0540251 0 0
0.0602032 0 0
0.0672705 0 0
0.075434 0 0
0.0849634 0 0
0.0962127 0 0
0.10965 0 0
0.125903 0 0
0.145819 0 0
0.170556 0 0
0.201715 0 0
0.241518 0 0
0.293046 0 0
0.360518 0 0
0.449456 0 0
0.566359 0 0
0.716798 0 0
0.9001 0 0
0.000569252 0 0
0.00171486 0 0
0.002883 0 0
0.00408916 0 0
0.00534877 0 0
0.00667705 0 0
0.00808894 0 0
0.00959911 0 0
0.011222 0 0
0.0129719 0 0
0.0148633 0 0
0.0169112 0 0
0.0191313 0 0
0.0215411 0 0
0.0241601 0 0
0.0270112 0 0
0.0301217 0 0
0.0335251 0 0
0.0372623 0 0
0.0413845 0 0
0.0459557 0 0
0.0510566 0 0
0.0567893 0 0
0.0632835 0 0
0.0707055 0 0
0.0792694 0 0
0.0892535 0 0
0.101021 0 0
0.115053 0 0
0.131986 0 0
0.152681 0 0
0.178305 0 0
0.210453 0 0
0.251322 0 0
0.303919 0 0
0.372289 0 0
0.461614 0 0
0.577791 0 0
0.725542 0 0
0.903558 0 0
0.000587216 0 0
0.00176932 0 0
0.00297566 0 0
0.00422285 0 0
0.00552741 0 0
0.00690559 0 0
0.00837335 0 0
0.00994634 0 0
0.0116399 0 0
0.0134693 0 0
0.0154498 0 0
0.0175971 0 0
0.0199278 0 0
0.02246 0 0
0.0252138 0 0
0.0282131 0 0
0.0314859 0 0
0.0350666 0 0
0.0389975 0 0
0.0433313 0 0
0.0481342 0 0
0.0534895 0 0
0.0595029 0 0
0.0663087 0 0
0.0740788 0 0
0.0830341 0 0
0.0934605 0 0
0.105731 0 0
0.120334 0 0
0.13792 0 0
0.159356 0 0
0.185814 0 0
0.218884 0 0
0.260732 0 0
0.314284 0 0
0.383417 0 0
0.472992 0 0
0.588363 0 0
0.733525 0 0
0.906677 0 0
0.000602798 0 0
0.00181665 0 0
0.00305652 0 0
0.00434017 0 0
0.00568524 0 0
0.00710909 0 0
0.00862873 0 0
0.0102608 0 0
0.0120218 0 0
0.0139277 0 0
0.0159948 0 0
0.0182395 0 0
0.0206792 0 0
0.0233326 0 0
0.0262208 0 0
0.0293679 0 0
0.0328031 0 0
0.0365613 0 0
0.040686 0 0
0.0452314 0 0
0.0502655 0 0
0.0558741 0 0
0.0621661 0 0
0.0692799 0 0
0.0773926 0 0
0.0867313 0 0
0.0975888 0 0
0.110346 0 0
0.125501 0 0
0.143711 0 0
0.165853 0 0
0.193098 0 0
0.227028 0 0
0.269772 0 0
0.324179 0 0
0.393959 0 0
0.483671 0 0
0.598178 0 0
0.740849 0 0
0.909509 0 0
0.000615733 0 0
0.00185606 0 0
0.00312424 0 0
0.00443924 0 0
0.00581983 0 0
0.00728454 0 0
0.00885149 0 0
0.0105384 0 0
0.0123628 0 0
0.0143418 0 0
0.0164925 0 0
0.0188322 0 0
0.0213791 0 0
0.0241526 0 0
0.0271745 0 0
0.0304695 0 0
0.0340672 0 0
0.0380036 0 0
0.042323 0 0
0.0470808 0 0
0.0523467 0 0
0.0582087 0 0
0.0647788 0 0
0.0721997 0 0
0.0806513 0 0
0.0903667 0 0
0.101646 0 0
0.114876 0 0
0.130564 0 0
0.149375 0 0
0.172188 0 0
0.200177 0 0
0.234909 0 0
0.278477 0 0
0.333648 0 0
0.403971 0 0
0.493723 0 0
0.607324 0 0
0.747603 0 0
0.912097 0 0
0.00062571 0 0
0.00188662 0 0
0.00317725 0 0
0.00451781 0 0
0.00592826 0 0
0.0074283 0 0
0.00903725 0 0
0.010774 0 0
0.0126572 0 0
0.0147051 0 0
0.0169357 0 0
0.0193675 0 0
0.0220194 0 0
0.0249116 0 0
0.0280664 0 0
0.0315093 0 0
0.0352704 0 0
0.0393862 0 0
0.0439018 0 0
0.0488736 0 0
0.0543726 0 0
0.0604891 0 0
0.0673374 0 0
0.0750638 0 0
0.0838511 0 0
0.0939378 0 0
0.10563 0 0
0.119321 0 0
0.135525 0 0
0.154913 0 0
0.178368 0 0
0.20706 0 0
0.242541 0 0
0.286866 0 0
0.34272 0 0
0.413497 0 0
0.503209 0 0
0.615875 0 0
0.753856 0 0
0.914475 0 0
0.000632381 0 0
0.00190726 0 0
0.00321377 0 0
0.00457333 0 0
0.00600716 0 0
0.00753616 0 0
0.00918091 0 0
0.0109616 0 0
0.012898 0 0
0.0150096 0 0
0.0173158 0 0
0.0198359 0 0
0.0225899 0 0
0.0255989 0 0
0.0288857 0 0
0.0324765 0 0
0.0364019 0 0
0.0406987 0 0
0.0454127 0 0
0.0506009 0 0
0.0563355 0 0
0.062708 0 0
0.0698349 0 0
0.0778645 0 0
0.0869845 0 0
0.0974373 0 0
0.109534 0 0
0.123674 0 0
0.140378 0 0
0.160321 0 0
0.184388 0 0
0.213745 0 0
0.249928 0 0
0.29495 0 0
0.351414 0 0
0.422568 0 0
0.512172 0 0
0.623887 0 0
0.759666 0 0
0.916668 0 0
0.000635389 0 0
0.00191691 0 0
0.00323196 0 0
0.00460318 0 0
0.00605302 0 0
0.00760366 0 0
0.00927698 0 0
0.0110945 0 0
0.0130774 0 0
0.0152466 0 0
0.0176226 0 0
0.0202263 0 0
0.0230785 0 0
0.0262015 0 0
0.0296188 0 0
0.0333573 0 0
0.0374479 0 0
0.041928 0 0
0.0468433 0 0
0.0522514 0 0
0.058225 0 0
0.0648565 0 0
0.072264 0 0
0.0805976 0 0
0.090049 0 0
0.100864 0 0
0.113358 0 0
0.127938 0 0
0.145126 0 0
0.165603 0 0
0.190256 0 0
0.220243 0 0
0.257082 0 0
0.302746 0 0
0.359756 0 0
0.431218 0 0
0.520661 0 0
0.631415 0 0
0.76508 0 0
0.918698 0 0
0.000634366 0 0
0.00191446 0 0
0.0032299 0 0
0.00460455 0 0
0.00606208 0 0
0.00762596 0 0
0.00931943 0 0
0.0111655 0 0
0.0131867 0 0
0.0154057 0 0
0.0178445 0 0
0.0205253 0 0
0.0234706 0 0
0.0267036 0 0
0.030249 0 0
0.0341343 0 0
0.038391 0 0
0.0430564 0 0
0.0481767 0 0
0.0538092 0 0
0.0600268 0 0
0.0669224 0 0
0.0746147 0 0
0.0832556 0 0
0.0930393 0 0
0.104215 0 0
0.117102 0 0
0.132112 0 0
0.149772 0 0
0.170765 0 0
0.195977 0 0
0.226562 0 0
0.264016 0 0
0.310271 0 0
0.36777 0 0
0.43948 0 0
0.528714 0 0
0.638504 0 0
0.770142 0 0
0.920586 0 0
0.000628942 0 0
0.00189876 0 0
0.00320565 0 0
0.00457459 0 0
0.00603045 0 0
0.00759797 0 0
0.00930179 0 0
0.0111664 0 0
0.0132162 0 0
0.0154753 0 0
0.0179677 0 0
0.0207174 0 0
0.0237485 0 0
0.0270859 0 0
0.0307554 0 0
0.0347855 0 0
0.0392082 0 0
0.0440613 0 0
0.0493905 0 0
0.0552531 0 0
0.0617216 0 0
0.0688885 0 0
0.0768727 0 0
0.0858267 0 0
0.0959466 0 0
0.107484 0 0
0.120762 0 0
0.136195 0 0
0.154315 0 0
0.175808 0 0
0.201558 0 0
0.23271 0 0
0.270742 0 0
0.317542 0 0
0.375476 0 0
0.44738 0 0
0.536367 0 0
0.645195 0 0
0.774888 0 0
0.922346 0 0
0.000618761 0 0
0.00186873 0 0
0.00315728 0 0
0.00451044 0 0
0.00595416 0 0
0.00751443 0 0
0.00921728 0 0
0.0110888 0 0
0.0131552 0 0
0.0154425 0 0
0.017977 0 0
0.0207846 0 0
0.0238917 0 0
0.027325 0 0
0.0311122 0 0
0.0352831 0 0
0.0398705 0 0
0.0449125 0 0
0.0504549 0 0
0.0565542 0 0
0.0632821 0 0
0.0707302 0 0
0.0790165 0 0
0.0882932 0 0
0.0987569 0 0
0.110661 0 0
0.124331 0 0
0.140184 0 0
0.158756 0 0
0.180734 0 0
0.207001 0 0
0.238694 0 0
0.277268 0 0
0.324571 0 0
0.382893 0 0
0.454946 0 0
0.543652 0 0
0.651525 0 0
0.77935 0 0
0.923993 0 0
0.0006035 0 0
0.00182336 0 0
0.00308306 0 0
0.00440945 0 0
0.00582946 0 0
0.0073702 0 0
0.00905909 0 0
0.0109239 0 0
0.0129925 0 0
0.0152935 0 0
0.0178551 0 0
0.0207063 0 0
0.0238758 0 0
0.0273931 0 0
0.0312881 0 0
0.0355925 0 0
0.0403406 0 0
0.0455712 0 0
0.0513299 0 0
0.0576728 0 0
0.0646701 0 0
0.072412 0 0
0.0810144 0 0
0.090628 0 0
0.101448 0 0
0.113728 0 0
0.127795 0 0
0.14407 0 0
0.163089 0 0
0.185542 0 0
0.21231 0 0
0.244519 0 0
0.283604 0 0
0.331372 0 0
0.390039 0 0
0.462199 0 0
0.550597 0 0
0.657523 0 0
0.783554 0 0
0.925538 0 0
0.000582894 0 0
0.00176184 0 0
0.00298147 0 0
0.00426928 0 0
0.00565294 0 0
0.00716053 0 0
0.00882071 0 0
0.0106628 0 0
0.0127168 0 0
0.0150134 0 0
0.0175838 0 0
0.0204598 0 0
0.0236735 0 0
0.0272576 0 0
0.0312453 0 0
0.035671 0 0
0.0405714 0 0
0.0459865 0 0
0.0519625 0 0
0.0585548 0 0
0.0658323 0 0
0.0738827 0 0
0.0828193 0 0
0.0927892 0 0
0.103984 0 0
0.116657 0 0
0.131134 0 0
0.147837 0 0
0.167305 0 0
0.190228 0 0
0.217482 0 0
0.250188 0 0
0.289757 0 0
0.337955 0 0
0.39693 0 0
0.469161 0 0
0.557229 0 0
0.663218 0 0
0.787524 0 0
0.926991 0 0
0.000556766 0 0
0.00168358 0 0
0.00285146 0 0
0.00408819 0 0
0.0054219 0 0
0.0068814 0 0
0.00849639 0 0
0.0102977 0 0
0.0123171 0 0
0.0145878 0 0
0.017144 0 0
0.0200208 0 0
0.0232544 0 0
0.0268814 0 0
0.0309395 0 0
0.035467 0 0
0.0405041 0 0
0.0460935 0 0
0.0522826 0 0
0.059127 0 0
0.0666939 0 0
0.0750684 0 0
0.0843603 0 0
0.0947121 0 0
0.106309 0 0
0.119399 0 0
0.134308 0 0
0.151456 0 0
0.171383 0 0
0.194776 0 0
0.222511 0 0
0.255698 0 0
0.295729 0 0
0.344329 0 0
0.403578 0 0
0.475848 0 0
0.563568 0 0
0.668632 0 0
0.791278 0 0
0.92836 0 0
0.000525066 0 0
0.00158841 0 0
0.00269259 0 0
0.0038653 0 0
0.00513477 0 0
0.00653016 0 0
0.00808192 0 0
0.00982196 0 0
0.011784 0 0
0.0140033 0 0
0.0165173 0 0
0.0193649 0 0
0.0225865 0 0
0.026224 0 0
0.0303205 0 0
0.0349198 0 0
0.0400674 0 0
0.0458104 0 0
0.0521994 0 0
0.059291 0 0
0.0671513 0 0
0.0758615 0 0
0.0855242 0 0
0.0962679 0 0
0.108298 0 0
0.121844 0 0
0.13722 0 0
0.154842 0 0
0.175246 0 0
0.19912 0 0
0.227336 0 0
0.260995 0 0
0.30147 0 0
0.35045 0 0
0.409948 0 0
0.482235 0 0
0.569595 0 0
0.673755 0 0
0.794808 0 0
0.929632 0 0
0.000487881 0 0
0.00147656 0 0
0.00250513 0 0
0.00360075 0 0
0.00479128 0 0
0.00610578 0 0
0.00757494 0 0
0.00923145 0 0
0.0111103 0 0
0.0132489 0 0
0.0156875 0 0
0.0184687 0 0
0.021638 0 0
0.0252429 0 0
0.0293331 0 0
0.0339599 0 0
0.0391762 0 0
0.0450363 0 0
0.0515967 0 0
0.0589177 0 0
0.0670662 0 0
0.0761203 0 0
0.0861753 0 0
0.0973514 0 0
0.10986 0 0
0.123913 0 0
0.139809 0 0
0.157953 0 0
0.178873 0 0
0.203252 0 0
0.231959 0 0
0.266087 0 0
0.306993 0 0
0.356331 0 0
0.416054 0 0
0.488338 0 0
0.575333 0 0
0.678609 0 0
0.798137 0 0
0.930825 0 0
0.000445464 0 0
0.00134875 0 0
0.00229022 0 0
0.00329594 0 0
0.00439286 0 0
0.00560938 0 0
0.00697584 0 0
0.00852505 0 0
0.0102927 0 0
0.0123176 0 0
0.0146424 0 0
0.0173132 0 0
0.0203802 0 0
0.0238971 0 0
0.0279211 0 0
0.0325126 0 0
0.0377344 0 0
0.0436513 0 0
0.0503299 0 0
0.0578393 0 0
0.0662524 0 0
0.0756495 0 0
0.086125 0 0
0.0978003 0 0
0.110853 0 0
0.125488 0 0
0.141988 0 0
0.160735 0 0
0.182243 0 0
0.207181 0 0
0.236412 0 0
0.271022 0 0
0.312354 0 0
0.362033 0 0
0.421958 0 0
0.494217 0 0
0.580836 0 0
0.683243 0 0
0.8013 0 0
0.931958 0 0
0.00039829 0 0
0.0012064 0 0
0.00205014 0 0
0.00295395 0 0
0.00394326 0 0
0.00504512 0 0
0.0062888 0 0
0.0077064 0 0
0.00933339 0 0
0.0112092 0 0
0.0133776 0 0
0.0158876 0 0
0.0187931 0 0
0.0221536 0 0
0.0260343 0 0
0.0305052 0 0
0.0356413 0 0
0.0415215 0 0
0.0482277 0 0
0.0558444 0 0
0.0644587 0 0
0.074162 0 0
0.0850553 0 0
0.0972585 0 0
0.110926 0 0
0.126245 0 0
0.143472 0 0
0.162957 0 0
0.18518 0 0
0.210787 0 0
0.240623 0 0
0.275763 0 0
0.317539 0 0
0.367556 0 0
0.427667 0 0
0.499883 0 0
0.586122 0 0
0.687681 0 0
0.80433 0 0
0.933051 0 0
0.000347053 0 0
0.00105159 0 0
0.00178839 0 0
0.00257967 0 0
0.0034487 0 0
0.00442047 0 0
0.00552235 0 0
0.00678474 0 0
0.00824177 0 0
0.00993203 0 0
0.0118993 0 0
0.0141934 0 0
0.0168706 0 0
0.0199949 0 0
0.0236376 0 0
0.0278785 0 0
0.0328051 0 0
0.0385128 0 0
0.0451032 0 0
0.0526836 0 0
0.0613655 0 0
0.071264 0 0
0.0824996 0 0
0.0952021 0 0
0.109518 0 0
0.12562 0 0
0.14373 0 0
0.164151 0 0
0.187309 0 0
0.213797 0 0
0.244414 0 0
0.28021 0 0
0.322503 0 0
0.372885 0 0
0.433182 0 0
0.505344 0 0
0.59119 0 0
0.691899 0 0
0.80716 0 0
0.934038 0 0
0.000292683 0 0
0.000887135 0 0
0.00150971 0 0
0.00217986 0 0
0.00291809 0 0
0.00374659 0 0
0.00468993 0 0
0.00577575 0 0
0.00703553 0 0
0.00850542 0 0
0.0102272 0 0
0.0122493 0 0
0.0146279 0 0
0.0174281 0 0
0.0207248 0 0
0.0246044 0 0
0.029165 0 0
0.0345171 0 0
0.0407838 0 0
0.0480998 0 0
0.0566104 0 0
0.0664689 0 0
0.0778351 0 0
0.0908736 0 0
0.105754 0 0
0.122655 0 0
0.141778 0 0
0.16338 0 0
0.187806 0 0
0.215551 0 0
0.24732 0 0
0.284079 0 0
0.327102 0 0
0.377965 0 0
0.438493 0 0
0.510616 0 0
0.5961 0 0
0.696055 0 0
0.810101 0 0
0.935195 0 0
0.000236343 0 0
0.000716562 0 0
0.00122013 0 0
0.00176325 0 0
0.0023631 0 0
0.00303843 0 0
0.00381016 0 0
0.00470211 0 0
0.00574173 0 0
0.006961 0 0
0.00839747 0 0
0.0100955 0 0
0.0121074 0 0
0.0144954 0 0
0.0173331 0 0
0.0207076 0 0
0.0247213 0 0
0.0294941 0 0
0.0351651 0 0
0.0418939 0 0
0.0498612 0 0
0.0592676 0 0
0.0703314 0 0
0.083284 0 0
0.0983638 0 0
0.115811 0 0
0.135865 0 0
0.158777 0 0
0.184835 0 0
0.214409 0 0
0.248027 0 0
0.286461 0 0
0.330813 0 0