# vtk DataFile Version 2.0
Velocidades
ASCII

DATASET STRUCTURED_GRID
DIMENSIONS   40   40   20

POINTS   32000   double
0.0125   0.0125   0.025
0.0125   0.0375   0.025
0.0125   0.0625   0.025
0.0125   0.0875   0.025
0.0125   0.1125   0.025
0.0125   0.1375   0.025
0.0125   0.1625   0.025
0.0125   0.1875   0.025
0.0125   0.2125   0.025
0.0125   0.2375   0.025
0.0125   0.2625   0.025
0.0125   0.2875   0.025
0.0125   0.3125   0.025
0.0125   0.3375   0.025
0.0125   0.3625   0.025
0.0125   0.3875   0.025
0.0125   0.4125   0.025
0.0125   0.4375   0.025
0.0125   0.4625   0.025
0.0125   0.4875   0.025
0.0125   0.5125   0.025
0.0125   0.5375   0.025
0.0125   0.5625   0.025
0.0125   0.5875   0.025
0.0125   0.6125   0.025
0.0125   0.6375   0.025
0.0125   0.6625   0.025
0.0125   0.6875   0.025
0.0125   0.7125   0.025
0.0125   0.7375   0.025
0.0125   0.7625   0.025
0.0125   0.7875   0.025
0.0125   0.8125   0.025
0.0125   0.8375   0.025
0.0125   0.8625   0.025
0.0125   0.8875   0.025
0.0125   0.9125   0.025
0.0125   0.9375   0.025
0.0125   0.9625   0.025
0.0125   0.9875   0.025
0.0375   0.0125   0.025
0.0375   0.0375   0.025
0.0375   0.0625   0.025
0.0375   0.0875   0.025
0.0375   0.1125   0.025
0.0375   0.1375   0.025
0.0375   0.1625   0.025
0.0375   0.1875   0.025
0.0375   0.2125   0.025
0.0375   0.2375   0.025
0.0375   0.2625   0.025
0.0375   0.2875   0.025
0.0375   0.3125   0.025
0.0375   0.3375   0.025
0.0375   0.3625   0.025
0.0375   0.3875   0.025
0.0375   0.4125   0.025
0.0375   0.4375   0.025
0.0375   0.4625   0.025
0.0375   0.4875   0.025
0.0375   0.5125   0.025
0.0375   0.5375   0.025
0.0375   0.5625   0.025
0.0375   0.5875   0.025
0.0375   0.6125   0.025
0.0375   0.6375   0.025
0.0375   0.6625   0.025
0.0375   0.6875   0.025
0.0375   0.7125   0.025
0.0375   0.7375   0.025
0.0375   0.7625   0.025
0.0375   0.7875   0.025
0.0375   0.8125   0.025
0.0375   0.8375   0.025
0.0375   0.8625   0.025
0.0375   0.8875   0.025
0.0375   0.9125   0.025
0.0375   0.9375   0.025
0.0375   0.9625   0.025
0.0375   0.9875   0.025
0.0625   0.0125   0.025
0.0625   0.0375   0.025
0.0625   0.0625   0.025
0.0625   0.0875   0.025
0.0625   0.1125   0.025
0.0625   0.1375   0.025
0.0625   0.1625   0.025
0.0625   0.1875   0.025
0.0625   0.2125   0.025
0.0625   0.2375   0.025
0.0625   0.2625   0.025
0.0625   0.2875   0.025
0.0625   0.3125   0.025
0.0625   0.3375   0.025
0.0625   0.3625   0.025
0.0625   0.3875   0.025
0.0625   0.4125   0.025
0.0625   0.4375   0.025
0.0625   0.4625   0.025
0.0625   0.4875   0.025
0.0625   0.5125   0.025
0.0625   0.5375   0.025
0.0625   0.5625   0.025
0.0625   0.5875   0.025
0.0625   0.6125   0.025
0.0625   0.6375   0.025
0.0625   0.6625   0.025
0.0625   0.6875   0.025
0.0625   0.7125   0.025
0.0625   0.7375   0.025
0.0625   0.7625   0.025
0.0625   0.7875   0.025
0.0625   0.8125   0.025
0.0625   0.8375   0.025
0.0625   0.8625   0.025
0.0625   0.8875   0.025
0.0625   0.9125   0.025
0.0625   0.9375   0.025
0.0625   0.9625   0.025
0.0625   0.9875   0.025
0.0875   0.0125   0.025
0.0875   0.0375   0.025
0.0875   0.0625   0.025
0.0875   0.0875   0.025
0.0875   0.1125   0.025
0.0875   0.1375   0.025
0.0875   0.1625   0.025
0.0875   0.1875   0.025
0.0875   0.2125   0.025
0.0875   0.2375   0.025
0.0875   0.2625   0.025
0.0875   0.2875   0.025
0.0875   0.3125   0.025
0.0875   0.3375   0.025
0.0875   0.3625   0.025
0.0875   0.3875   0.025
0.0875   0.4125   0.025
0.0875   0.4375   0.025
0.0875   0.4625   0.025
0.0875   0.4875   0.025
0.0875   0.5125   0.025
0.0875   0.5375   0.025
0.0875   0.5625   0.025
0.0875   0.5875   0.025
0.0875   0.6125   0.025
0.0875   0.6375   0.025
0.0875   0.6625   0.025
0.0875   0.6875   0.025
0.0875   0.7125   0.025
0.0875   0.7375   0.025
0.0875   0.7625   0.025
0.0875   0.7875   0.025
0.0875   0.8125   0.025
0.0875   0.8375   0.025
0.0875   0.8625   0.025
0.0875   0.8875   0.025
0.0875   0.9125   0.025
0.0875   0.9375   0.025
0.0875   0.9625   0.025
0.0875   0.9875   0.025
0.1125   0.0125   0.025
0.1125   0.0375   0.025
0.1125   0.0625   0.025
0.1125   0.0875   0.025
0.1125   0.1125   0.025
0.1125   0.1375   0.025
0.1125   0.1625   0.025
0.1125   0.1875   0.025
0.1125   0.2125   0.025
0.1125   0.2375   0.025
0.1125   0.2625   0.025
0.1125   0.2875   0.025
0.1125   0.3125   0.025
0.1125   0.3375   0.025
0.1125   0.3625   0.025
0.1125   0.3875   0.025
0.1125   0.4125   0.025
0.1125   0.4375   0.025
0.1125   0.4625   0.025
0.1125   0.4875   0.025
0.1125   0.5125   0.025
0.1125   0.5375   0.025
0.1125   0.5625   0.025
0.1125   0.5875   0.025
0.1125   0.6125   0.025
0.1125   0.6375   0.025
0.1125   0.6625   0.025
0.1125   0.6875   0.025
0.1125   0.7125   0.025
0.1125   0.7375   0.025
0.1125   0.7625   0.025
0.1125   0.7875   0.025
0.1125   0.8125   0.025
0.1125   0.8375   0.025
0.1125   0.8625   0.025
0.1125   0.8875   0.025
0.1125   0.9125   0.025
0.1125   0.9375   0.025
0.1125   0.9625   0.025
0.1125   0.9875   0.025
0.1375   0.0125   0.025
0.1375   0.0375   0.025
0.1375   0.0625   0.025
0.1375   0.0875   0.025
0.1375   0.1125   0.025
0.1375   0.1375   0.025
0.1375   0.1625   0.025
0.1375   0.1875   0.025
0.1375   0.2125   0.025
0.1375   0.2375   0.025
0.1375   0.2625   0.025
0.1375   0.2875   0.025
0.1375   0.3125   0.025
0.1375   0.3375   0.025
0.1375   0.3625   0.025
0.1375   0.3875   0.025
0.1375   0.4125   0.025
0.1375   0.4375   0.025
0.1375   0.4625   0.025
0.1375   0.4875   0.025
0.1375   0.5125   0.025
0.1375   0.5375   0.025
0.1375   0.5625   0.025
0.1375   0.5875   0.025
0.1375   0.6125   0.025
0.1375   0.6375   0.025
0.1375   0.6625   0.025
0.1375   0.6875   0.025
0.1375   0.7125   0.025
0.1375   0.7375   0.025
0.1375   0.7625   0.025
0.1375   0.7875   0.025
0.1375   0.8125   0.025
0.1375   0.8375   0.025
0.1375   0.8625   0.025
0.1375   0.8875   0.025
0.1375   0.9125   0.025
0.1375   0.9375   0.025
0.1375   0.9625   0.025
0.1375   0.9875   0.025
0.1625   0.0125   0.025
0.1625   0.0375   0.025
0.1625   0.0625   0.025
0.1625   0.0875   0.025
0.1625   0.1125   0.025
0.1625   0.1375   0.025
0.1625   0.1625   0.025
0.1625   0.1875   0.025
0.1625   0.2125   0.025
0.1625   0.2375   0.025
0.1625   0.2625   0.025
0.1625   0.2875   0.025
0.1625   0.3125   0.025
0.1625   0.3375   0.025
0.1625   0.3625   0.025
0.1625   0.3875   0.025
0.1625   0.4125   0.025
0.1625   0.4375   0.025
0.1625   0.4625   0.025
0.1625   0.4875   0.025
0.1625   0.5125   0.025
0.1625   0.5375   0.025
0.1625   0.5625   0.025
0.1625   0.5875   0.025
0.1625   0.6125   0.025
0.1625   0.6375   0.025
0.1625   0.6625   0.025
0.1625   0.6875   0.025
0.1625   0.7125   0.025
0.1625   0.7375   0.025
0.1625   0.7625   0.025
0.1625   0.7875   0.025
0.1625   0.8125   0.025
0.1625   0.8375   0.025
0.1625   0.8625   0.025
0.1625   0.8875   0.025
0.1625   0.9125   0.025
0.1625   0.9375   0.025
0.1625   0.9625   0.025
0.1625   0.9875   0.025
0.1875   0.0125   0.025
0.1875   0.0375   0.025
0.1875   0.0625   0.025
0.1875   0.0875   0.025
0.1875   0.1125   0.025
0.1875   0.1375   0.025
0.1875   0.1625   0.025
0.1875   0.1875   0.025
0.1875   0.2125   0.025
0.1875   0.2375   0.025
0.1875   0.2625   0.025
0.1875   0.2875   0.025
0.1875   0.3125   0.025
0.1875   0.3375   0.025
0.1875   0.3625   0.025
0.1875   0.3875   0.025
0.1875   0.4125   0.025
0.1875   0.4375   0.025
0.1875   0.4625   0.025
0.1875   0.4875   0.025
0.1875   0.5125   0.025
0.1875   0.5375   0.025
0.1875   0.5625   0.025
0.1875   0.5875   0.025
0.1875   0.6125   0.025
0.1875   0.6375   0.025
0.1875   0.6625   0.025
0.1875   0.6875   0.025
0.1875   0.7125   0.025
0.1875   0.7375   0.025
0.1875   0.7625   0.025
0.1875   0.7875   0.025
0.1875   0.8125   0.025
0.1875   0.8375   0.025
0.1875   0.8625   0.025
0.1875   0.8875   0.025
0.1875   0.9125   0.025
0.1875   0.9375   0.025
0.1875   0.9625   0.025
0.1875   0.9875   0.025
0.2125   0.0125   0.025
0.2125   0.0375   0.025
0.2125   0.0625   0.025
0.2125   0.0875   0.025
0.2125   0.1125   0.025
0.2125   0.1375   0.025
0.2125   0.1625   0.025
0.2125   0.1875   0.025
0.2125   0.2125   0.025
0.2125   0.2375   0.025
0.2125   0.2625   0.025
0.2125   0.2875   0.025
0.2125   0.3125   0.025
0.2125   0.3375   0.025
0.2125   0.3625   0.025
0.2125   0.3875   0.025
0.2125   0.4125   0.025
0.2125   0.4375   0.025
0.2125   0.4625   0.025
0.2125   0.4875   0.025
0.2125   0.5125   0.025
0.2125   0.5375   0.025
0.2125   0.5625   0.025
0.2125   0.5875   0.025
0.2125   0.6125   0.025
0.2125   0.6375   0.025
0.2125   0.6625   0.025
0.2125   0.6875   0.025
0.2125   0.7125   0.025
0.2125   0.7375   0.025
0.2125   0.7625   0.025
0.2125   0.7875   0.025
0.2125   0.8125   0.025
0.2125   0.8375   0.025
0.2125   0.8625   0.025
0.2125   0.8875   0.025
0.2125   0.9125   0.025
0.2125   0.9375   0.025
0.2125   0.9625   0.025
0.2125   0.9875   0.025
0.2375   0.0125   0.025
0.2375   0.0375   0.025
0.2375   0.0625   0.025
0.2375   0.0875   0.025
0.2375   0.1125   0.025
0.2375   0.1375   0.025
0.2375   0.1625   0.025
0.2375   0.1875   0.025
0.2375   0.2125   0.025
0.2375   0.2375   0.025
0.2375   0.2625   0.025
0.2375   0.2875   0.025
0.2375   0.3125   0.025
0.2375   0.3375   0.025
0.2375   0.3625   0.025
0.2375   0.3875   0.025
0.2375   0.4125   0.025
0.2375   0.4375   0.025
0.2375   0.4625   0.025
0.2375   0.4875   0.025
0.2375   0.5125   0.025
0.2375   0.5375   0.025
0.2375   0.5625   0.025
0.2375   0.5875   0.025
0.2375   0.6125   0.025
0.2375   0.6375   0.025
0.2375   0.6625   0.025
0.2375   0.6875   0.025
0.2375   0.7125   0.025
0.2375   0.7375   0.025
0.2375   0.7625   0.025
0.2375   0.7875   0.025
0.2375   0.8125   0.025
0.2375   0.8375   0.025
0.2375   0.8625   0.025
0.2375   0.8875   0.025
0.2375   0.9125   0.025
0.2375   0.9375   0.025
0.2375   0.9625   0.025
0.2375   0.9875   0.025
0.2625   0.0125   0.025
0.2625   0.0375   0.025
0.2625   0.0625   0.025
0.2625   0.0875   0.025
0.2625   0.1125   0.025
0.2625   0.1375   0.025
0.2625   0.1625   0.025
0.2625   0.1875   0.025
0.2625   0.2125   0.025
0.2625   0.2375   0.025
0.2625   0.2625   0.025
[...]
POINT_DATA   32000
VECTORS Velocidades double

6.4875e-05 0.00120992 0
0.000254175 0.00216511 0
0.000151934 0.00175579 0
-7.93949e-07 0.00159552 0
-0.00015076 0.0017289 0
-0.000288222 0.0021382 0
-0.000412887 0.0027963 0
-0.000526034 0.00367759 0
-0.000628815 0.00475935 0
-0.000721966 0.00602113 0
-0.000805818 0.00744384 0
-0.000880367 0.00900901 0
-0.000945354 0.0106982 0
-0.00100035 0.0124925 0
-0.00104484 0.0143723 0
-0.00107834 0.0163174 0
-0.0011005 0.0183069 0
-0.00111122 0.0203197 0
-0.00111081 0.0223353 0
-0.00110014 0.0243345 0
-0.00108078 0.0263008 0
-0.0010552 0.0282219 0
-0.00102706 0.0300919 0
-0.00100148 0.0319135 0
-0.00098556 0.0337018 0
-0.000989104 0.0354885 0
-0.0010258 0.0373289 0
-0.00111509 0.0393109 0
-0.00128509 0.0415696 0
-0.00157744 0.0443098 0
-0.00205498 0.0478402 0
-0.00281444 0.0526293 0
-0.00400733 0.0593944 0
-0.00587403 0.0692471 0
-0.00879352 0.0839225 0
-0.0133169 0.106094 0
-0.0199258 0.139481 0
-0.0268849 0.186567 0
-0.0163082 0.230241 0
0.124138 0.123426 0
0.000137163 0.00264582 0
0.000574344 0.00522532 0
0.000251154 0.00520946 0
-0.000288915 0.00554176 0
-0.00086684 0.00637897 0
-0.00142513 0.0077676 0
-0.00194663 0.00970003 0
-0.00242737 0.012146 0
-0.00286723 0.0150666 0
-0.00326677 0.0184201 0
-0.0036261 0.0221635 0
-0.00394462 0.026253 0
-0.00422102 0.0306436 0
-0.0044535 0.0352889 0
-0.00464006 0.040141 0
-0.0047789 0.0451501 0
-0.00486886 0.0502657 0
-0.00490996 0.0554372 0
-0.00490394 0.0606156 0
-0.0048549 0.0657557 0
-0.00477002 0.0708189 0
-0.00466034 0.0757769 0
-0.00454175 0.0806164 0
-0.00443636 0.0853446 0
-0.00437428 0.0899965 0
-0.00439636 0.0946443 0
-0.00455819 0.0994097 0
-0.00493616 0.10448 0
-0.00563638 0.11013 0
-0.00680783 0.116749 0
-0.00866088 0.124878 0
-0.0114922 0.135245 0
-0.0157139 0.148794 0
-0.0218731 0.166641 0
-0.0305991 0.189845 0
-0.042221 0.218565 0
-0.0549949 0.249483 0
-0.0574454 0.268577 0
0.00402155 0.23605 0
0.348639 0.0998421 0
7.32526e-05 0.00386059 0
0.000440381 0.0079226 0
-0.00020539 0.0085276 0
-0.00127152 0.00962348 0
-0.00247033 0.0113472 0
-0.00367258 0.0137659 0
-0.00482292 0.0168918 0
-0.00589865 0.0207034 0
-0.00689074 0.0251609 0
-0.00779529 0.0302148 0
-0.00860965 0.0358102 0
-0.00933094 0.0418886 0
-0.00995548 0.0483881 0
-0.010479 0.0552446 0
-0.0108971 0.0623907 0
-0.011206 0.069757 0
-0.0114035 0.0772725 0
-0.0114899 0.0848661 0
-0.0114696 0.0924686 0
-0.011352 0.100016 0
-0.0111535 0.107451 0
-0.0108987 0.114731 0
-0.0106226 0.121831 0
-0.0103736 0.128751 0
-0.0102161 0.135525 0
-0.010236 0.142227 0
-0.0105467 0.148987 0
-0.011298 0.155999 0
-0.0126882 0.163536 0
-0.0149776 0.171958 0
-0.0185023 0.181712 0
-0.0236775 0.193302 0
-0.0309659 0.207188 0
-0.0407394 0.223529 0
-0.0528384 0.241584 0
-0.0652542 0.258386 0
-0.0702113 0.266083 0
-0.0425926 0.247883 0
0.0914551 0.178969 0
0.51364 0.0642161 0
-0.000145145 0.00499943 0
-0.000204742 0.0104484 0
-0.00136653 0.0116581 0
-0.00307839 0.0135306 0
-0.00500859 0.0161405 0
-0.00697538 0.0195358 0
-0.00888455 0.0237285 0
-0.0106888 0.0287015 0
-0.0123646 0.0344171 0
-0.013899 0.0408248 0
-0.0152837 0.0478651 0
-0.0165113 0.0554726 0
-0.0175742 0.0635768 0
-0.0184642 0.0721028 0
-0.0191737 0.0809721 0
-0.019696 0.0901022 0
-0.0200271 0.0994085 0
-0.0201674 0.108805 0
-0.0201237 0.118208 0
-0.0199112 0.127536 0
-0.0195559 0.136717 0
-0.0190971 0.145689 0
-0.0185904 0.154409 0
-0.0181114 0.162858 0
-0.0177597 0.171043 0
-0.0176644 0.179012 0
-0.0179908 0.186852 0
-0.0189483 0.194696 0
-0.0207979 0.202722 0
-0.0238559 0.211139 0
-0.0284829 0.220149 0
-0.0350356 0.229861 0
-0.0437274 0.240121 0
-0.0542729 0.250169 0
-0.0650256 0.258 0
-0.0709116 0.259285 0
-0.0585485 0.24592 0
0.00462463 0.205739 0
0.189878 0.129821 0
0.619857 0.0412217 0
-0.000503907 0.00606374 0
-0.001302 0.0127874 0
-0.00318981 0.0145201 0
-0.00567264 0.0170808 0
-0.00841791 0.0204804 0
-0.0112194 0.0247314 0
-0.013956 0.0298312 0
-0.0165589 0.0357584 0
-0.018989 0.0424753 0
-0.0212229 0.0499319 0
-0.0232441 0.0580682 0
-0.0250391 0.0668169 0
-0.0265945 0.0761042 0
-0.0278975 0.0858504 0
-0.0289353 0.0959706 0
-0.0296972 0.106375 0
-0.0301765 0.116969 0
-0.030372 0.127657 0
-0.0302918 0.138342 0
-0.0299551 0.148927 0
-0.0293959 0.159322 0
-0.028666 0.169447 0
-0.0278386 0.179233 0
-0.0270119 0.188628 0
-0.0263136 0.197604 0
-0.0259051 0.206157 0
-0.0259861 0.214305 0
-0.0267975 0.22209 0
-0.0286198 0.229557 0
-0.0317581 0.23673 0
-0.0364984 0.243554 0
-0.0429975 0.249788 0
-0.0510346 0.254819 0
-0.0594709 0.257356 0
-0.0651038 0.25494 0
-0.0602999 0.243329 0
-0.0283449 0.216184 0
0.0645315 0.166736 0
0.277972 0.0954385 0
0.689358 0.0276053 0
-0.000979029 0.00702425 0
-0.00277211 0.0148781 0
-0.00557251 0.0170356 0
-0.0089433 0.0201616 0
-0.0125731 0.0242135 0
-0.0162532 0.0291668 0
-0.0198504 0.0349974 0
-0.023282 0.0416743 0
-0.0264966 0.0491568 0
-0.0294605 0.0573948 0
-0.0321492 0.0663295 0
-0.0345415 0.0758947 0
-0.0366177 0.0860165 0
-0.0383581 0.0966143 0
-0.0397439 0.107601 0
-0.0407587 0.118881 0
-0.0413907 0.130356 0
-0.0416356 0.141919 0
-0.0414998 0.153462 0
-0.0410042 0.164875 0
-0.040187 0.176051 0
-0.0391083 0.186883 0
-0.0378533 0.197276 0
-0.0365354 0.207144 0
-0.0353 0.216411 0
-0.0343267 0.225015 0
-0.0338293 0.232901 0
-0.0340525 0.240012 0
-0.0352582 0.246268 0
-0.0376904 0.251532 0
-0.0414986 0.255548 0
-0.046574 0.257843 0
-0.0522162 0.257568 0
-0.0564746 0.253261 0
-0.0548845 0.242561 0
-0.0381593 0.221983 0
0.0116302 0.187295 0
0.126007 0.135765 0
0.352031 0.0722904 0
0.737027 0.0194629 0
-0.00154522 0.00785084 0
-0.0045347 0.0166616 0
-0.00839801 0.0191459 0
-0.0127541 0.022708 0
-0.0173234 0.0272638 0
-0.0219094 0.0327556 0
-0.0263792 0.039138 0
-0.0306451 0.0463681 0
-0.0346483 0.0544006 0
-0.0383476 0.0631847 0
-0.041711 0.0726637 0
-0.0447099 0.0827736 0
-0.0473168 0.093443 0
-0.0495043 0.104592 0
-0.0512458 0.116134 0
-0.0525171 0.127972 0
-0.0532991 0.14 0
-0.0535815 0.152107 0
-0.0533663 0.164173 0
-0.0526717 0.176074 0
-0.0515366 0.187684 0
-0.0500237 0.198874 0
-0.0482239 0.209519 0
-0.0462578 0.219496 0
-0.0442785 0.228685 0
-0.0424702 0.236969 0
-0.0410445 0.244222 0
-0.0402294 0.250305 0
-0.0402436 0.255038 0
-0.0412444 0.25817 0
-0.0432234 0.259321 0
-0.0458022 0.257903 0
-0.0478457 0.252999 0
-0.0467482 0.243214 0
-0.0371743 0.226539 0
-0.00900875 0.200398 0
0.0554958 0.162338 0
0.184276 0.112199 0
0.413578 0.0565908 0
0.771457 0.0144245 0
-0.00217885 0.00851981 0
-0.00651433 0.0180936 0
-0.0115524 0.0208132 0
-0.0169663 0.0246879 0
-0.0225133 0.0296017 0
-0.0280186 0.0354711 0
-0.0333592 0.0422318 0
-0.0384499 0.0498302 0
-0.0432303 0.058216 0
-0.0476551 0.0673383 0
-0.051686 0.0771426 0
-0.0552877 0.0875686 0
-0.0584245 0.0985483 0
-0.0610599 0.110005 0
-0.0631577 0.121853 0
-0.0646835 0.133993 0
-0.0656087 0.146319 0
-0.0659136 0.158711 0
-0.0655921 0.171039 0
-0.0646564 0.183167 0
-0.0631409 0.194948 0
-0.0611064 0.206234 0
-0.058643 0.216871 0
-0.0558719 0.226701 0
-0.0529453 0.235566 0
-0.0500426 0.2433 0
-0.0473625 0.249723 0
-0.0451044 0.254632 0
-0.0434338 0.257781 0
-0.0424159 0.258849 0
-0.0418903 0.2574 0
-0.0412415 0.252817 0
-0.0389828 0.244223 0
-0.032034 0.230399 0
-0.0145429 0.209758 0
0.0238322 0.180546 0
0.0998902 0.141627 0
0.237755 0.0943478 0
0.465072 0.045683 0
0.797548 0.0111727 0
-0.00285888 0.00901465 0
-0.0086428 0.0191449 0
-0.0149305 0.0220168 0
-0.0214481 0.0260899 0
-0.0279931 0.0312252 0
-0.0344179 0.0373196 0
-0.0406168 0.044295 0
-0.0465133 0.0520891 0
-0.0520506 0.0606487 0
-0.0571822 0.0699236 0
-0.0618661 0.0798624 0
-0.0660604 0.0904094 0
-0.069721 0.101501 0
-0.0728012 0.113065 0
-0.0752532 0.125017 0
-0.0770303 0.13726 0
-0.0780911 0.149682 0
-0.0784035 0.162159 0
-0.0779498 0.174553 0
-0.0767321 0.186712 0
-0.0747763 0.198476 0
-0.0721365 0.209674 0
-0.0688976 0.220127 0
-0.065176 0.229649 0
-0.0611173 0.238047 0
-0.0568911 0.24512 0
-0.0526774 0.250647 0
-0.0486441 0.254386 0
-0.0449035 0.25605 0
-0.0414358 0.255288 0
-0.03795 0.251653 0
-0.0336384 0.244553 0
-0.0267515 0.233205 0
-0.0138974 0.216597 0
0.0110187 0.193543 0
0.0581726 0.162954 0
0.143061 0.124606 0
0.286244 0.0806642 0
0.508706 0.0378658 0
0.818151 0.00897784 0
-0.00356687 0.00932474 0
-0.0108595 0.0197978 0
-0.018437 0.0227476 0
-0.0260781 0.0269151 0
-0.0336225 0.0321455 0
-0.0409542 0.0383227 0
-0.0479896 0.0453596 0
-0.0546664 0.0531893 0
-0.0609349 0.0617578 0
-0.066751 0.0710174 0
-0.0720705 0.0809214 0
-0.0768456 0.0914197 0
-0.0810233 0.102455 0
-0.0845455 0.113959 0
-0.087351 0.125851 0
-0.0893783 0.138034 0
-0.09057 0.150397 0
-0.0908786 0.162808 0
-0.0902712 0.175121 0
-0.0887361 0.187174 0
-0.0862872 0.19879 0
-0.0829683 0.20978 0
-0.0788555 0.219943 0
-0.0740571 0.229071 0
-0.0687099 0.236944 0
-0.0629711 0.243335 0
-0.0570021 0.247997 0
-0.0509409 0.250664 0
-0.0448532 0.251035 0
-0.0386479 0.248754 0
-0.031929 0.24339 0
-0.0237426 0.234404 0
-0.0121554 0.221122 0
0.00640558 0.20274 0
0.0380809 0.178409 0
0.0926436 0.147549 0
0.184171 0.110546 0
0.33007 0.069967 0
0.546192 0.0320719 0
0.834969 0.00742785 0
-0.00428668 0.00944392 0
-0.0131104 0.020043 0
-0.0219859 0.0230033 0
-0.0307449 0.0271699 0
-0.0392715 0.0323786 0
-0.0474845 0.0385061 0
-0.0553263 0.0454614 0
-0.0627523 0.053177 0
-0.0697237 0.0616014 0
-0.0762009 0.0706917 0
-0.0821388 0.0804076 0
-0.0874844 0.0907063 0
-0.0921751 0.101537 0
-0.0961404 0.112838 0
-0.0993033 0.124533 0
-0.101585 0.136526 0
-0.102909 0.148705 0
-0.10321 0.160934 0
-0.102435 0.173061 0
-0.100557 0.184911 0
-0.0975734 0.196296 0
-0.0935158 0.207009 0
-0.0884494 0.216833 0
-0.0824727 0.225541 0
-0.0757131 0.232893 0
-0.0683164 0.238645 0
-0.060428 0.242535 0
-0.0521614 0.244289 0
-0.043545 0.243603 0
-0.0344316 0.240135 0
-0.0243453 0.233484 0
-0.0122266 0.223174 0
0.00397729 0.208642 0
0.0279207 0.189262 0
0.0656544 0.164464 0
0.126417 0.134044 0
0.222875 0.0987825 0
0.36971 0.0614066 0
0.578798 0.0276281 0
0.849057 0.00628407 0
-0.00500382 0.00936922 0
-0.0153469 0.0198765 0
-0.0254986 0.0227852 0
-0.0353459 0.0268627 0
-0.0448191 0.0319405 0
-0.053875 0.0378939 0
-0.0624848 0.0446329 0
-0.0706247 0.0520937 0
-0.0782689 0.0602304 0
-0.0853842 0.0690077 0
-0.0919257 0.0783939 0
-0.097835 0.0883549 0
-0.10304 0.0988487 0
-0.107455 0.10982 0
-0.110986 0.121198 0
-0.113534 0.132891 0
-0.115002 0.144785 0
-0.1153 0.156742 0
-0.114356 0.168605 0
-0.112121 0.180189 0
-0.108577 0.191293 0
-0.103739 0.2017 0
-0.0976614 0.211176 0
-0.0904322 0.21948 0
-0.0821707 0.22636 0
-0.0730139 0.231559 0
-0.0630955 0.234811 0
-0.0525114 0.23584 0
-0.0412624 0.23435 0
-0.02916 0.230021 0
-0.0156705 0.222487 0
0.000338311 0.211337 0
0.0209875 0.196106 0
0.0499393 0.17632 0
0.0930642 0.151629 0
0.159001 0.122104 0
0.259075 0.0887722 0
0.405633 0.0543816 0
0.607454 0.0241034 0
0.861086 0.00540389 0
-0.00570487 0.00910017 0
-0.0175236 0.0192988 0
-0.0289019 0.0220972 0
-0.0397848 0.0260021 0
-0.0501517 0.0308458 0
-0.0599996 0.0365072 0
-0.0693312 0.0429021 0
-0.0781453 0.0499743 0
-0.0864312 0.0576871 0
-0.0941628 0.0660154 0
-0.101296 0.0749383 0
-0.107767 0.0844322 0
-0.113492 0.094465 0
-0.118372 0.104991 0
-0.12229 0.115944 0
-0.125127 0.127238 0
-0.126759 0.138761 0
-0.127074 0.150373 0
-0.125973 0.161912 0
-0.123385 0.173186 0
-0.119272 0.183987 0
-0.113633 0.194082 0
-0.10651 0.20323 0
-0.097982 0.211177 0
-0.0881631 0.217662 0
-0.0771841 0.222423 0
-0.0651723 0.225192 0
-0.0522127 0.225698 0
-0.0382882 0.223658 0
-0.0231817 0.218774 0
-0.00631938 0.210719 0
0.0134767 0.199138 0
0.0383565 0.183651 0
0.0719363 0.163912 0
0.119847 0.139741 0
0.190104 0.111406 0
0.292787 0.0800848 0
0.438249 0.048465 0
0.632836 0.0212146 0
0.871494 0.00469926 0
-0.0063769 0.00863856 0
-0.0195973 0.0183141 0
-0.0321261 0.0209454 0
-0.0439701 0.0245973 0
-0.0551611 0.029108 0
-0.0657386 0.0343647 0
-0.0757381 0.0402935 0
-0.0851829 0.0468494 0
-0.094078 0.0540082 0
-0.102405 0.0617573 0
-0.110122 0.0700886 0
-0.117157 0.0789912 0
-0.123416 0.0884445 0
-0.128782 0.0984126 0
-0.133117 0.108839 0
-0.136275 0.119642 0
-0.138107 0.130714 0
-0.13847 0.141916 0
-0.137239 0.153081 0
-0.134319 0.164015 0
-0.129649 0.1745 0
-0.123211 0.184297 0
-0.115035 0.193154 0
-0.105193 0.200809 0
-0.0937935 0.206997 0
-0.0809672 0.211449 0
-0.0668393 0.213902 0
-0.0514906 0.21409 0
-0.0348939 0.211745 0
-0.0168145 0.20659 0
0.00334703 0.198334 0
0.0267932 0.186669 0
0.0556726 0.171291 0
0.093516 0.151953 0
0.145679 0.128608 0
0.219551 0.101664 0
0.324073 0.0723832 0
0.467893 0.0433489 0
0.655433 0.0187708 0
0.880576 0.00411378 0
-0.007007 0.00798852 0
-0.0215257 0.0169308 0
-0.0351036 0.0193392 0
-0.0478141 0.0226601 0
-0.0597442 0.0267426 0
-0.0709775 0.0314868 0
-0.081584 0.0368326 0
-0.0916119 0.0427501 0
-0.101082 0.0492297 0
-0.109986 0.056274 0
-0.118279 0.0638894 0
-0.125886 0.0720793 0
-0.132698 0.0808363 0
-0.138579 0.0901364 0
-0.143368 0.0999335 0
-0.146892 0.110154 0
-0.148971 0.120696 0
-0.14943 0.131422 0
-0.148117 0.142167 0
-0.144905 0.152733 0
-0.139712 0.162897 0
-0.132502 0.172415 0
-0.123292 0.181027 0
-0.112149 0.188465 0
-0.0991781 0.194459 0
-0.0845129 0.198741 0
-0.0682816 0.201047 0
-0.0505661 0.20112 0
-0.0313362 0.198704 0
-0.0103477 0.193542 0
0.0130122 0.185371 0
0.0399541 0.173927 0
0.0726011 0.158961 0
0.11437 0.140312 0
0.170319 0.118032 0
0.247227 0.0926289 0
0.352997 0.0654011 0
0.494824 0.0388064 0
0.6756 0.0166388 0
0.888532 0.00360988 0
-0.00758205 0.00715695 0
-0.0232665 0.0151627 0
-0.0377683 0.0172932 0
-0.051232 0.0202075 0
-0.063802 0.0237703 0
-0.0756075 0.0278989 0
-0.0867532 0.0325508 0
-0.0973124 0.0377134 0
-0.107322 0.043394 0
-0.116781 0.049612 0
-0.125646 0.05639 0
-0.133834 0.0637468 0
-0.141223 0.0716899 0
-0.147655 0.0802094 0
-0.152946 0.0892712 0
-0.15689 0.0988127 0
-0.159276 0.108739 0
-0.159896 0.11892 0
-0.158564 0.129193 0
-0.155123 0.13936 0
-0.149466 0.149196 0
-0.141538 0.158453 0
-0.131342 0.166867 0
-0.118939 0.174165 0
-0.104438 0.180073 0
-0.0879739 0.184322 0
-0.0696832 0.18665 0
-0.0496535 0.186805 0
-0.0278568 0.184541 0
-0.0040465 0.179617 0
0.0223942 0.171793 0
0.0526699 0.160837 0
0.0888599 0.14655 0
0.134246 0.128835 0
0.193577 0.10782 0
0.273045 0.084082 0
0.379614 0.0589242 0
0.519234 0.0346657 0
0.693588 0.0147226 0
0.895498 0.00316149 0
-0.00808856 0.00615407 0
-0.0247779 0.0130305 0
-0.040056 0.0148293 0
-0.0541425 0.0172641 0
-0.0672408 0.0202207 0
-0.0795258 0.023637 0
-0.0911366 0.0274908 0
-0.102171 0.0317887 0
-0.112681 0.0365566 0
-0.122674 0.0418313 0
-0.132105 0.0476526 0
-0.140884 0.0540561 0
-0.148875 0.0610656 0
-0.155899 0.0686867 0
-0.161743 0.0769001 0
-0.166172 0.0856567 0
-0.16894 0.0948729 0
-0.169801 0.104428 0
-0.168533 0.114166 0
-0.164949 0.123893 0
-0.158912 0.133384 0
-0.150346 0.142391 0
-0.139241 0.150648 0
-0.125653 0.157877 0
-0.109692 0.163803 0
-0.0915001 0.168153 0
-0.0712232 0.170666 0
-0.0489582 0.171093 0
-0.0246838 0.169193 0
0.00184335 0.164738 0
0.0312361 0.157503 0
0.0646816 0.147282 0
0.1042 0.133916 0
0.152924 0.117355 0
0.215287 0.0977878 0
0.296923 0.0758322 0
0.403949 0.0527762 0
0.541254 0.0307926 0
0.709571 0.0129502 0
0.901565 0.00274975 0
-0.00851286 0.00499406 0
-0.0260186 0.0105631 0
-0.0419053 0.0119786 0
-0.0564695 0.0138661 0
-0.0699738 0.0161365 0
-0.0826376 0.0187518 0
-0.0946331 0.0217121 0
-0.106081 0.0250441 0
-0.117049 0.0287925 0
-0.127549 0.0330122 0
-0.137537 0.0377606 0
-0.146916 0.0430904 0
-0.155534 0.049043 0
-0.16319 0.0556414 0
-0.169646 0.0628837 0
-0.174632 0.0707373 0
-0.177865 0.0791339 0
-0.179062 0.087967 0
-0.177963 0.0970901 0
-0.174343 0.106319 0
-0.168037 0.115434 0
-0.158943 0.124188 0
-0.147038 0.132316 0
-0.132371 0.139538 0
-0.115053 0.145575 0
-0.0952352 0.150151 0
-0.0730733 0.153005 0
-0.0486767 0.153884 0
-0.0220339 0.152552 0
0.0070902 0.148784 0
0.0392978 0.142368 0
0.0757489 0.133117 0
0.118393 0.120898 0
0.1702 0.105701 0
0.235291 0.087758 0
0.318774 0.0677088 0
0.426001 0.0468081 0
0.560964 0.0270787 0
0.723659 0.0112659 0
0.906788 0.00236044 0
-0.00884133 0.00369554 0
-0.0269496 0.00779916 0
-0.0432592 0.00878407 0
-0.0581438 0.010063 0
-0.0719228 0.0115764 0
-0.084858 0.0133129 0
-0.0971517 0.0152953 0
-0.108946 0.0175708 0
-0.120321 0.0202025 0
-0.131297 0.0232625 0
-0.141828 0.0268253 0
-0.151808 0.0309614 0
-0.161073 0.0357303 0
-0.169402 0.0411742 0
-0.176527 0.0473112 0
-0.182146 0.0541287 0
-0.185938 0.0615783 0
-0.187581 0.069572 0
-0.186772 0.0779796 0
-0.183249 0.0866303 0
-0.17681 0.095315 0
-0.167331 0.103793 0
-0.154768 0.111801 0
-0.139162 0.11906 0
-0.120624 0.125287 0
-0.0993122 0.130203 0
-0.0753954 0.13354 0
-0.0489955 0.135043 0
-0.0201138 0.134472 0
0.0114729 0.131602 0
0.0463499 0.126227 0
0.0856415 0.118171 0
0.131215 0.107322 0
0.185873 0.0936997 0
0.253428 0.0775612 0
0.338491 0.059556 0
0.445736 0.0408905 0
0.578394 0.023434 0
0.735914 0.00962467 0
0.911201 0.00198242 0
-0.00906098 0.00228203 0
-0.0275351 0.00478793 0
-0.0440676 0.00530118 0
-0.0591058 0.00591997 0
-0.0730217 0.00661805 0
-0.0861148 0.00741145 0
-0.0986142 0.00834589 0
-0.11068 0.00948771 0
-0.122406 0.010917 0
-0.133815 0.0127217 0
-0.144864 0.0149924 0
-0.155439 0.0178165 0
-0.165364 0.0212723 0
-0.174397 0.0254225 0
-0.182245 0.0303078 0
-0.188575 0.0359396 0
-0.193026 0.0422941 0
-0.195234 0.0493073 0
-0.194854 0.056872 0
-0.191581 0.0648369 0
-0.185178 0.0730094 0
-0.175487 0.0811604 0
-0.162442 0.0890322 0
-0.146073 0.0963484 0
-0.126487 0.102824 0
-0.10385 0.108174 0
-0.0783388 0.112123 0
-0.0500908 0.114408 0
-0.0191211 0.114781 0
0.0147777 0.113013 0
0.0521686 0.108896 0
0.0941323 0.10226 0
0.142447 0.0930061 0
0.199741 0.0811724 0
0.269524 0.0670323 0
0.35595 0.0512289 0
0.463086 0.0349082 0
0.593532 0.019781 0
0.746356 0.00798913 0
0.914814 0.00160664 0
-0.00916014 0.000782103 0
-0.027745 0.00158987 0
-0.04429 0.00159928 0
-0.0593088 0.00151921 0
-0.0732192 0.00135893 0
-0.0863519 0.00116211 0
-0.0989583 0.000995904 0
-0.111214 0.000943661 0
-0.123222 0.00109986 0
-0.135011 0.00156598 0
-0.146539 0.00244656 0
-0.157688 0.0038448 0
-0.16827 0.00585754 0
-0.178029 0.0085692 0
-0.186647 0.0120452 0
-0.193759 0.0163247 0
-0.198969 0.0214136 0
-0.20187 0.0272786 0
-0.202073 0.033842 0
-0.199227 0.0409801 0
-0.193053 0.0485234 0
-0.183356 0.0562608 0
-0.170044 0.0639466 0
-0.153127 0.0713096 0
-0.132706 0.0780638 0
-0.108946 0.0839188 0
-0.0820366 0.0885885 0
-0.0521255 0.0917979 0
-0.019244 0.0932874 0
0.0167968 0.0928167 0
0.0565323 0.0901719 0
0.100993 0.0851824 0
0.15186 0.0777555 0
0.211585 0.0679381 0
0.283388 0.0560081 0
0.370997 0.0425894 0
0.477948 0.028755 0
0.606326 0.0160509 0
0.754967 0.00632699 0
0.917621 0.00122546 0
-0.00912922 -0.000770775 0
-0.027557 -0.00172357 0
-0.0438983 -0.00223866 0
-0.0587223 -0.00304044 0
-0.0724822 -0.00408319 0
-0.0855326 -0.00529683 0
-0.0981408 -0.00659539 0
-0.110494 -0.00788181 0
-0.122704 -0.00905068 0
-0.134805 -0.00999039 0
-0.146756 -0.0105852 0
-0.158439 -0.0107181 0
-0.169658 -0.0102749 0
-0.180146 -0.00914911 0
-0.189564 -0.0072488 0
-0.197521 -0.00450357 0
-0.203585 -0.000872636 0
-0.20731 0.00364767 0
-0.208258 0.00901743 0
-0.206034 0.0151487 0
-0.200309 0.0219043 0
-0.190847 0.0290991 0
-0.177519 0.0365061 0
-0.160311 0.0438646 0
-0.139309 0.0508907 0
-0.114675 0.0572886 0
-0.0866006 0.0627607 0
-0.0552469 0.0670167 0
-0.0206599 0.0697802 0
0.017328 0.0707951 0
0.0592198 0.0698355 0
0.105989 0.0667238 0
0.159215 0.061366 0
0.221173 0.0538091 0
0.294805 0.0443242 0
0.383449 0.0335022 0
0.490183 0.0223301 0
0.616685 0.0121804 0
0.761699 0.00460933 0
0.919604 0.000832179 0
-0.00896174 -0.0023387 0
-0.0269586 -0.00507094 0
-0.0428799 -0.00611708 0
-0.0573347 -0.00764453 0
-0.0707995 -0.00957175 0
-0.0836428 -0.0118049 0
-0.0961414 -0.014243 0
-0.10849 -0.0167794 0
-0.120807 -0.0193023 0
-0.133133 -0.021694 0
-0.14543 -0.0238314 0
-0.157584 -0.0255867 0
-0.169397 -0.0268303 0
-0.180593 -0.0274346 0
-0.19082 -0.0272801 0
-0.199666 -0.0262626 0
-0.206668 -0.024302 0
-0.211341 -0.0213509 0
-0.213203 -0.0174033 0
-0.211808 -0.0125016 0