# vtk DataFile Version 2.0
Presion
ASCII

DATASET STRUCTURED_GRID
DIMENSIONS   40   40   20

POINTS   32000   double
0.0125   0.0125   0.025
0.0375   0.0125   0.025
0.0625   0.0125   0.025
0.0875   0.0125   0.025
0.1125   0.0125   0.025
0.1375   0.0125   0.025
0.1625   0.0125   0.025
0.1875   0.0125   0.025
0.2125   0.0125   0.025
0.2375   0.0125   0.025
0.2625   0.0125   0.025
0.2875   0.0125   0.025
0.3125   0.0125   0.025
0.3375   0.0125   0.025
0.3625   0.0125   0.025
0.3875   0.0125   0.025
0.4125   0.0125   0.025
0.4375   0.0125   0.025
0.4625   0.0125   0.025
0.4875   0.0125   0.025
0.5125   0.0125   0.025
0.5375   0.0125   0.025
0.5625   0.0125   0.025
0.5875   0.0125   0.025
0.6125   0.0125   0.025
0.6375   0.0125   0.025
0.6625   0.0125   0.025
0.6875   0.0125   0.025
0.7125   0.0125   0.025
0.7375   0.0125   0.025
0.7625   0.0125   0.025
0.7875   0.0125   0.025
0.8125   0.0125   0.025
0.8375   0.0125   0.025
0.8625   0.0125   0.025
0.8875   0.0125   0.025
0.9125   0.0125   0.025
0.9375   0.0125   0.025
0.9625   0.0125   0.025
0.9875   0.0125   0.025
0.0125   0.0375   0.025
0.0375   0.0375   0.025
0.0625   0.0375   0.025
0.0875   0.0375   0.025
0.1125   0.0375   0.025
0.1375   0.0375   0.025
0.1625   0.0375   0.025
0.1875   0.0375   0.025
0.2125   0.0375   0.025
0.2375   0.0375   0.025
0.2625   0.0375   0.025
0.2875   0.0375   0.025
0.3125   0.0375   0.025
0.3375   0.0375   0.025
0.3625   0.0375   0.025
0.3875   0.0375   0.025
0.4125   0.0375   0.025
0.4375   0.0375   0.025
0.4625   0.0375   0.025
0.4875   0.0375   0.025
0.5125   0.0375   0.025
0.5375   0.0375   0.025
0.5625   0.0375   0.025
0.5875   0.0375   0.025
0.6125   0.0375   0.025
0.6375   0.0375   0.025
0.6625   0.0375   0.025
0.6875   0.0375   0.025
0.7125   0.0375   0.025
0.7375   0.0375   0.025
0.7625   0.0375   0.025
0.7875   0.0375   0.025
0.8125   0.0375   0.025
0.8375   0.0375   0.025
0.8625   0.0375   0.025
0.8875   0.0375   0.025
0.9125   0.0375   0.025
0.9375   0.0375   0.025
0.9625   0.0375   0.025
0.9875   0.0375   0.025
0.0125   0.0625   0.025
0.0375   0.0625   0.025
0.0625   0.0625   0.025
0.0875   0.0625   0.025
0.1125   0.0625   0.025
0.1375   0.0625   0.025
0.1625   0.0625   0.025
0.1875   0.0625   0.025
0.2125   0.0625   0.025
0.2375   0.0625   0.025
0.2625   0.0625   0.025
0.2875   0.0625   0.025
0.3125   0.0625   0.025
0.3375   0.0625   0.025
0.3625   0.0625   0.025
0.3875   0.0625   0.025
0.4125   0.0625   0.025
0.4375   0.0625   0.025
0.4625   0.0625   0.025
0.4875   0.0625   0.025
0.5125   0.0625   0.025
0.5375   0.0625   0.025
0.5625   0.0625   0.025
0.5875   0.0625   0.025
0.6125   0.0625   0.025
0.6375   0.0625   0.025
0.6625   0.0625   0.025
0.6875   0.0625   0.025
0.7125   0.0625   0.025
0.7375   0.0625   0.025
0.7625   0.0625   0.025
0.7875   0.0625   0.025
0.8125   0.0625   0.025
0.8375   0.0625   0.025
0.8625   0.0625   0.025
0.8875   0.0625   0.025
0.9125   0.0625   0.025
0.9375   0.0625   0.025
0.9625   0.0625   0.025
0.9875   0.0625   0.025
0.0125   0.0875   0.025
0.0375   0.0875   0.025
0.0625   0.0875   0.025
0.0875   0.0875   0.025
0.1125   0.0875   0.025
0.1375   0.0875   0.025
0.1625   0.0875   0.025
0.1875   0.0875   0.025
0.2125   0.0875   0.025
0.2375   0.0875   0.025
0.2625   0.0875   0.025
0.2875   0.0875   0.025
0.3125   0.0875   0.025
0.3375   0.0875   0.025
0.3625   0.0875   0.025
0.3875   0.0875   0.025
0.4125   0.0875   0.025
0.4375   0.0875   0.025
0.4625   0.0875   0.025
0.4875   0.0875   0.025
0.5125   0.0875   0.025
0.5375   0.0875   0.025
0.5625   0.0875   0.025
0.5875   0.0875   0.025
0.6125   0.0875   0.025
0.6375   0.0875   0.025
0.6625   0.0875   0.025
0.6875   0.0875   0.025
0.7125   0.0875   0.025
0.7375   0.0875   0.025
0.7625   0.0875   0.025
0.7875   0.0875   0.025
0.8125   0.0875   0.025
0.8375   0.0875   0.025
0.8625   0.0875   0.025
0.8875   0.0875   0.025
0.9125   0.0875   0.025
0.9375   0.0875   0.025
0.9625   0.0875   0.025
0.9875   0.0875   0.025
0.0125   0.1125   0.025
0.0375   0.1125   0.025
0.0625   0.1125   0.025
0.0875   0.1125   0.025
0.1125   0.1125   0.025
0.1375   0.1125   0.025
0.1625   0.1125   0.025
0.1875   0.1125   0.025
0.2125   0.1125   0.025
0.2375   0.1125   0.025
0.2625   0.1125   0.025
0.2875   0.1125   0.025
0.3125   0.1125   0.025
0.3375   0.1125   0.025
0.3625   0.1125   0.025
0.3875   0.1125   0.025
0.4125   0.1125   0.025
0.4375   0.1125   0.025
0.4625   0.1125   0.025
0.4875   0.1125   0.025
0.5125   0.1125   0.025
0.5375   0.1125   0.025
0.5625   0.1125   0.025
0.5875   0.1125   0.025
0.6125   0.1125   0.025
0.6375   0.1125   0.025
0.6625   0.1125   0.025
0.6875   0.1125   0.025
0.7125   0.1125   0.025
0.7375   0.1125   0.025
0.7625   0.1125   0.025
0.7875   0.1125   0.025
0.8125   0.1125   0.025
0.8375   0.1125   0.025
0.8625   0.1125   0.025
0.8875   0.1125   0.025
0.9125   0.1125   0.025
0.9375   0.1125   0.025
0.9625   0.1125   0.025
0.9875   0.1125   0.025
0.0125   0.1375   0.025
0.0375   0.1375   0.025
0.0625   0.1375   0.025
0.0875   0.1375   0.025
0.1125   0.1375   0.025
0.1375   0.1375   0.025
0.1625   0.1375   0.025
0.1875   0.1375   0.025
0.2125   0.1375   0.025
0.2375   0.1375   0.025
0.2625   0.1375   0.025
0.2875   0.1375   0.025
0.3125   0.1375   0.025
0.3375   0.1375   0.025
0.3625   0.1375   0.025
0.3875   0.1375   0.025
0.4125   0.1375   0.025
0.4375   0.1375   0.025
0.4625   0.1375   0.025
0.4875   0.1375   0.025
0.5125   0.1375   0.025
0.5375   0.1375   0.025
0.5625   0.1375   0.025
0.5875   0.1375   0.025
0.6125   0.1375   0.025
0.6375   0.1375   0.025
0.6625   0.1375   0.025
0.6875   0.1375   0.025
0.7125   0.1375   0.025
0.7375   0.1375   0.025
0.7625   0.1375   0.025
0.7875   0.1375   0.025
0.8125   0.1375   0.025
0.8375   0.1375   0.025
0.8625   0.1375   0.025
0.8875   0.1375   0.025
0.9125   0.1375   0.025
0.9375   0.1375   0.025
0.9625   0.1375   0.025
0.9875   0.1375   0.025
0.0125   0.1625   0.025
0.0375   0.1625   0.025
0.0625   0.1625   0.025
0.0875   0.1625   0.025
0.1125   0.1625   0.025
0.1375   0.1625   0.025
0.1625   0.1625   0.025
0.1875   0.1625   0.025
0.2125   0.1625   0.025
0.2375   0.1625   0.025
0.2625   0.1625   0.025
0.2875   0.1625   0.025
0.3125   0.1625   0.025
0.3375   0.1625   0.025
0.3625   0.1625   0.025
0.3875   0.1625   0.025
0.4125   0.1625   0.025
0.4375   0.1625   0.025
0.4625   0.1625   0.025
0.4875   0.1625   0.025
0.5125   0.1625   0.025
0.5375   0.1625   0.025
0.5625   0.1625   0.025
0.5875   0.1625   0.025
0.6125   0.1625   0.025
0.6375   0.1625   0.025
0.6625   0.1625   0.025
0.6875   0.1625   0.025
0.7125   0.1625   0.025
0.7375   0.1625   0.025
0.7625   0.1625   0.025
0.7875   0.1625   0.025
0.8125   0.1625   0.025
0.8375   0.1625   0.025
0.8625   0.1625   0.025
0.8875   0.1625   0.025
0.9125   0.1625   0.025
0.9375   0.1625   0.025
0.9625   0.1625   0.025
0.9875   0.1625   0.025
0.0125   0.1875   0.025
0.0375   0.1875   0.025
0.0625   0.1875   0.025
0.0875   0.1875   0.025
0.1125   0.1875   0.025
0.1375   0.1875   0.025
0.1625   0.1875   0.025
0.1875   0.1875   0.025
0.2125   0.1875   0.025
0.2375   0.1875   0.025
0.2625   0.1875   0.025
0.2875   0.1875   0.025
0.3125   0.1875   0.025
0.3375   0.1875   0.025
0.3625   0.1875   0.025
0.3875   0.1875   0.025
0.4125   0.1875   0.025
0.4375   0.1875   0.025
0.4625   0.1875   0.025
0.4875   0.1875   0.025
0.5125   0.1875   0.025
0.5375   0.1875   0.025
0.5625   0.1875   0.025
0.5875   0.1875   0.025
0.6125   0.1875   0.025
0.6375   0.1875   0.025
0.6625   0.1875   0.025
0.6875   0.1875   0.025
0.7125   0.1875   0.025
0.7375   0.1875   0.025
0.7625   0.1875   0.025
0.7875   0.1875   0.025
0.8125   0.1875   0.025
0.8375   0.1875   0.025
0.8625   0.1875   0.025
0.8875   0.1875   0.025
0.9125   0.1875   0.025
0.9375   0.1875   0.025
0.9625   0.1875   0.025
0.9875   0.1875   0.025
0.0125   0.2125   0.025
0.0375   0.2125   0.025
0.0625   0.2125   0.025
0.0875   0.2125   0.025
0.1125   0.2125   0.025
0.1375   0.2125   0.025
0.1625   0.2125   0.025
0.1875   0.2125   0.025
0.2125   0.2125   0.025
0.2375   0.2125   0.025
0.2625   0.2125   0.025
0.2875   0.2125   0.025
0.3125   0.2125   0.025
0.3375   0.2125   0.025
0.3625   0.2125   0.025
0.3875   0.2125   0.025
0.4125   0.2125   0.025
0.4375   0.2125   0.025
0.4625   0.2125   0.025
0.4875   0.2125   0.025
0.5125   0.2125   0.025
0.5375   0.2125   0.025
0.5625   0.2125   0.025
0.5875   0.2125   0.025
0.6125   0.2125   0.025
0.6375   0.2125   0.025
0.6625   0.2125   0.025
0.6875   0.2125   0.025
0.7125   0.2125   0.025
0.7375   0.2125   0.025
0.7625   0.2125   0.025
0.7875   0.2125   0.025
0.8125   0.2125   0.025
0.8375   0.2125   0.025
0.8625   0.2125   0.025
0.8875   0.2125   0.025
0.9125   0.2125   0.025
0.9375   0.2125   0.025
0.9625   0.2125   0.025
0.9875   0.2125   0.025
0.0125   0.2375   0.025
0.0375   0.2375   0.025
0.0625   0.2375   0.025
0.0875   0.2375   0.025
0.1125   0.2375   0.025
0.1375   0.2375   0.025
0.1625   0.2375   0.025
0.1875   0.2375   0.025
0.2125   0.2375   0.025
0.2375   0.2375   0.025
0.2625   0.2375   0.025
0.2875   0.2375   0.025
0.3125   0.2375   0.025
0.3375   0.2375   0.025
0.3625   0.2375   0.025
0.3875   0.2375   0.025
0.4125   0.2375   0.025
0.4375   0.2375   0.025
0.4625   0.2375   0.025
0.4875   0.2375   0.025
0.5125   0.2375   0.025
0.5375   0.2375   0.025
0.5625   0.2375   0.025
0.5875   0.2375   0.025
0.6125   0.2375   0.025
0.6375   0.2375   0.025
0.6625   0.2375   0.025
0.6875   0.2375   0.025
0.7125   0.2375   0.025
0.7375   0.2375   0.025
0.7625   0.2375   0.025
0.7875   0.2375   0.025
0.8125   0.2375   0.025
0.8375   0.2375   0.025
0.8625   0.2375   0.025
0.8875   0.2375   0.025
0.9125   0.2375   0.025
0.9375   0.2375   0.025
0.9625   0.2375   0.025
0.9875   0.2375   0.025
0.0125   0.2625   0.025
0.0375   0.2625   0.025
0.0625   0.2625   0.025
0.0875   0.2625   0.025
0.1125   0.2625   0.025
0.1375   0.2625   0.025
0.1625   0.2625   0.025
0.1875   0.2625   0.025
0.2125   0.2625   0.025
0.2375   0.2625   0.025
0.2625   0.2625   0.025
[...]
POINT_DATA   32000
SCALARS Presion double
LOOKUP_TABLE   Presion

0 0 0 0 0 0 0 0 0 0 0 0 0 0 0 0 0 0 0 0 0 0 0 0 0 0 0 0 0 0 0 0 0 0 0 0 0 0 0 0 -0.00200995 -0.00238774 -0.0030292 -0.00376321 -0.00451089 -0.00522114 -0.00585646 -0.00638904 -0.0067988 -0.00707188 -0.00719937 -0.00717633 -0.00700115 -0.00667518 -0.00620265 -0.00559072 -0.00484964 -0.00399288 -0.00303716 -0.0020024 -0.000911413 0.000210524 0.00133632 0.00243784 0.00348684 0.0044559 0.00531942 0.00605465 0.00664254 0.00706867 0.00732395 0.00740529 0.00731598 0.00706587 0.00667109 0.00615329 0.00553877 0.0048599 0.00417246 0.00366196 -0.00217771 -0.00239768 -0.00290065 -0.00354172 -0.00422959 -0.00490347 -0.00552081 -0.0060512 -0.00647295 -0.00677093 -0.00693506 -0.00695919 -0.00684045 -0.00657886 -0.00617717 -0.00564089 -0.00497841 -0.00420109 -0.00332334 -0.00236254 -0.00133891 -0.000275107 0.000804224 0.0018731 0.00290498 0.00387355 0.0047537 0.00552246 0.0061599 0.00665014 0.00698216 0.00715068 0.00715683 0.00700874 0.00672208 0.00632086 0.0058395 0.00532933 0.00487879 0.00467059 -0.00185766 -0.00214416 -0.00264218 -0.0032615 -0.00392914 -0.00459046 -0.00520542 -0.00574489 -0.00618782 -0.00651919 -0.00672849 -0.00680876 -0.00675589 -0.0065683 -0.00624684 -0.0057948 -0.00521807 -0.00452531 -0.00372806 -0.0028408 -0.0018809 -0.000868436 0.000174171 0.00122261 0.00225133 0.0032343 0.00414592 0.00496199 0.00566075 0.00622398 0.0066381 0.00689517 0.00699385 0.00694028 0.00674897 0.00644399 0.00606121 0.00565334 0.00530085 0.00513096 -0.00126678 -0.00169965 -0.0022713 -0.00292649 -0.00361328 -0.00428904 -0.00492079 -0.00548376 -0.00595948 -0.0063343 -0.00659807 -0.00674337 -0.00676498 -0.00665961 -0.0064259 -0.00606458 -0.00557864 -0.00497363 -0.0042579 -0.00344277 -0.0025427 -0.00157519 -0.000560685 0.000477815 0.00151526 0.00252528 0.00348106 0.00435642 0.00512698 0.00577145 0.00627293 0.00662016 0.00680867 0.00684184 0.00673185 0.00650071 0.00618181 0.00582259 0.00548891 0.00526877 -0.00054607 -0.00114827 -0.00183231 -0.00256086 -0.00329786 -0.00401253 -0.00468029 -0.00528214 -0.00580342 -0.00623265 -0.00656065 -0.00677987 -0.00688408 -0.00686828 -0.00672882 -0.00646361 -0.00607253 -0.00555778 -0.00492432 -0.00418019 -0.00333684 -0.00240926 -0.00141598 -0.000378909 0.000677117 0.00172497 0.00273615 0.00368191 0.00453459 0.00526911 0.00586445 0.00630521 0.00658294 0.00669735 0.00665727 0.00648148 0.00619956 0.005853 0.00549636 0.00519632 0.000207001 -0.000565118 -0.00137687 -0.0021996 -0.00300786 -0.00378059 -0.00450112 -0.00515634 -0.00573575 -0.00623044 -0.00663246 -0.00693436 -0.00712904 -0.00720981 -0.00717066 -0.00700667 -0.00671447 -0.0062928 -0.00574308 -0.00506997 -0.00428182 -0.003391 -0.00241414 -0.00137205 -0.00028948 0.000805527 0.00188247 0.00290961 0.00385544 0.00469031 0.00538827 0.00592883 0.00629859 0.00649263 0.00651563 0.00638257 0.00611922 0.00576249 0.00536022 0.00496939 0.00091968 -1.40589e-05 -0.000955979 -0.00188193 -0.00277368 -0.00361775 -0.00440412 -0.00512507 -0.00577398 -0.00634451 -0.00682997 -0.00722307 -0.00751592 -0.00770019 -0.00776757 -0.00771027 -0.00752163 -0.00719688 -0.0067338 -0.00613351 -0.00540108 -0.00454613 -0.00358315 -0.00253173 -0.00141637 -0.000266073 0.000886552 0.00200645 0.00305771 0.00400544 0.00481779 0.00546812 0.00593696 0.00621378 0.00629828 0.00620131 0.00594525 0.005564 0.00510248 0.00461487 0.00153388 0.000450405 -0.000617135 -0.00164765 -0.00262833 -0.00355162 -0.004413 -0.0052093 -0.00593728 -0.00659285 -0.00717044 -0.0076629 -0.00806153 -0.00835644 -0.00853706 -0.00859275 -0.00851358 -0.00829117 -0.00791957 -0.00739615 -0.00672247 -0.00590502 -0.00495584 -0.00389293 -0.00274027 -0.00152757 -0.000289571 0.000935167 0.00210587 0.00318162 0.00412367 0.00489802 0.00547785 0.00584579 0.00599568 0.00593379 0.00567937 0.00526468 0.00473436 0.00414397 0.00200079 0.000781017 -0.000403735 -0.00153525 -0.0026053 -0.00361129 -0.00455325 -0.00543172 -0.00624629 -0.00699466 -0.00767218 -0.00827168 -0.00878368 -0.00919674 -0.00949806 -0.00967422 -0.00971201 -0.00959937 -0.00932644 -0.00888658 -0.00827744 -0.00750196 -0.00656919 -0.00549498 -0.00430229 -0.00302118 -0.0016883 -0.000345807 0.000960262 0.00218217 0.00327319 0.00419056 0.0048986 0.00537163 0.00559642 0.00557393 0.00532028 0.00486692 0.00425998 0.00355904 0.00227804 0.000936183 -0.000355143 -0.00158093 -0.00273732 -0.00382608 -0.00485111 -0.00581602 -0.00672264 -0.00757009 -0.00835434 -0.0090681 -0.00970104 -0.0102402 -0.0106706 -0.0109762 -0.0111403 -0.0111471 -0.0109826 -0.0106359 -0.0101002 -0.00937428 -0.00846349 -0.0073808 -0.00614745 -0.00479324 -0.00335635 -0.00188245 -0.000423161 0.000966216 0.00222974 0.00331432 0.00417361 0.00477179 0.0050869 0.00511351 0.00486416 0.00436979 0.00367915 0.0028575 0.00232812 0.000878965 -0.000506918 -0.00181823 -0.00305548 -0.00422452 -0.00533264 -0.00638602 -0.0073883 -0.00833966 -0.00923647 -0.0100712 -0.0108326 -0.0115064 -0.0120753 -0.0125206 -0.0128223 -0.0129606 -0.0129173 -0.0126764 -0.0122264 -0.011561 -0.0106811 -0.00959576 -0.00832364 -0.00689343 -0.0053442 -0.00372485 -0.00209277 -0.000511509 0.000952502 0.00223408 0.00327403 0.00402408 0.00445147 0.00454264 0.00430557 0.00377056 0.00298954 0.00203454 0.00211765 0.000576539 -0.000890951 -0.0022777 -0.00358866 -0.00483359 -0.00602285 -0.00716487 -0.00826473 -0.00932346 -0.0103377 -0.0112995 -0.0121969 -0.0130141 -0.0137319 -0.0143287 -0.0147812 -0.0150656 -0.0151588 -0.0150397 -0.014691 -0.0141008 -0.0132643 -0.0121858 -0.01088 -0.0093733 -0.0077049 -0.00592633 -0.00410066 -0.00230027 -0.000603345 0.000910851 0.00216777 0.00310385 0.00367272 0.00385036 0.00363855 0.00306624 0.00218865 0.00108525 0.0016172 7.20842e-09 -0.00153548 -0.00298667 -0.00436299 -0.005678 -0.00694488 -0.00817405 -0.00937189 -0.0105401 -0.0116755 -0.0127699 -0.0138105 -0.0147802 -0.0156578 -0.0164191 -0.0170373 -0.0174844 -0.0177322 -0.0177538 -0.0175257 -0.0170292 -0.0162529 -0.0151946 -0.0138639 -0.0122837 -0.0104918 -0.00854149 -0.00650111 -0.0044522 -0.00248588 -0.000697558 0.000819959 0.0019844 0.00273217 0.00302557 0.00285782 0.0022551 0.00127563 6.59824e-06 0.000801376 -0.000875553 -0.00246497 -0.00396899 -0.00540148 -0.00677958 -0.00811917 -0.00943252 -0.0107272 -0.0120055 -0.0132646 -0.0144961 -0.0156865 -0.0168175 -0.0178662 -0.0188056 -0.0196056 -0.0202338 -0.0206565 -0.0208407 -0.0207557 -0.0203752 -0.0196798 -0.0186598 -0.0173177 -0.0156712 -0.0137551 -0.0116231 -0.00934794 -0.00702017 -0.00474474 -0.00263528 -0.000806065 0.000637836 0.00161114 0.00205817 0.00196014 0.00133837 0.000253189 -0.00120048 -0.000350901 -0.00207088 -0.00369992 -0.00524477 -0.00672352 -0.00815671 -0.00956274 -0.0109557 -0.0123443 -0.0137317 -0.0151154 -0.016487 -0.0178327 -0.0191331 -0.0203636 -0.0214948 -0.0224931 -0.0233216 -0.023941 -0.0243117 -0.0243952 -0.0241564 -0.023567 -0.0226079 -0.021273 -0.0195728 -0.0175369 -0.0152175 -0.0126903 -0.0100541 -0.00742818 -0.00494612 -0.00274702 -0.000963438 0.000292119 0.000940455 0.000946048 0.000322182 -0.000870219 -0.00252885 -0.00185596 -0.00360226 -0.00525661 -0.00683008 -0.00834457 -0.00982374 -0.0112884 -0.0127544 -0.0142319 -0.0157251 -0.0172321 -0.0187449 -0.0202494 -0.0217255 -0.0231473 -0.0244829 -0.0256954 -0.0267434 -0.0275818 -0.028164 -0.0284429 -0.0283743 -0.0279194 -0.0270485 -0.0257449 -0.0240094 -0.0218645 -0.0193582 -0.0165668 -0.0135959 -0.0105787 -0.00766994 -0.00503683 -0.00284452 -0.00123932 -0.000331002 -0.00017818 -0.000780198 -0.00207794 -0.00396255 -0.00372494 -0.00548124 -0.00714693 -0.00873673 -0.0102758 -0.0117905 -0.013304 -0.0148341 -0.0163928 -0.0179856 -0.0196116 -0.0212635 -0.0229275 -0.0245831 -0.026203 -0.0277535 -0.0291943 -0.0304794 -0.031558 -0.032376 -0.0328779 -0.0330092 -0.0327198 -0.031968 -0.0307249 -0.0289792 -0.0267435 -0.0240584 -0.0209981 -0.0176724 -0.0142267 -0.0108375 -0.00770244 -0.00502468 -0.00299176 -0.00175284 -0.00139799 -0.00194564 -0.00334219 -0.00547368 -0.00596349 -0.00771449 -0.00937831 -0.0109722 -0.0125238 -0.0140619 -0.0156119 -0.0171941 -0.0188226 -0.0205047 -0.0222414 -0.0240264 -0.0258467 -0.0276816 -0.0295031 -0.0312752 -0.0329549 -0.0344916 -0.0358288 -0.036905 -0.0376557 -0.038016 -0.0379239 -0.0373244 -0.0361747 -0.0344497 -0.0321488 -0.0293023 -0.0259782 -0.0222867 -0.0183827 -0.0144632 -0.0107579 -0.00751261 -0.00496421 -0.00331167 -0.0026874 -0.00313788 -0.00462053 -0.00701871 -0.00857152 -0.0103037 -0.0119538 -0.0135398 -0.0150909 -0.0166378 -0.0182087 -0.0198267 -0.0215087 -0.0232651 -0.025099 -0.0270061 -0.0289743 -0.0309834 -0.0330045 -0.0350003 -0.0369245 -0.0387225 -0.040332 -0.0416843 -0.042706 -0.0433214 -0.0434565 -0.0430422 -0.0420209 -0.0403515 -0.038018 -0.0350365 -0.0314647 -0.0274085 -0.0230278 -0.0185368 -0.014197 -0.0103002 -0.00714094 -0.00497979 -0.00400509 -0.00430355 -0.00585174 -0.00853418 -0.0115433 -0.0132462 -0.0148724 -0.016439 -0.017975 -0.0195131 -0.0210846 -0.0227166 -0.0244301 -0.0262393 -0.0281507 -0.0301624 -0.0322641 -0.034436 -0.036649 -0.0388641 -0.0410322 -0.0430948 -0.0449839 -0.0466238 -0.0479322 -0.0488233 -0.0492106 -0.0490113 -0.0481519 -0.0465745 -0.0442452 -0.0411631 -0.0373708 -0.0329645 -0.0281031 -0.0230127 -0.0179834 -0.0133545 -0.00948495 -0.00670974 -0.00528956 -0.00536745 -0.00695087 -0.00993151 -0.0148677 -0.016535 -0.01813 -0.0196659 -0.0211703 -0.0226778 -0.0242238 -0.0258411 -0.0275566 -0.0293897 -0.0313514 -0.0334433 -0.0356568 -0.0379733 -0.0403634 -0.0427864 -0.0451907 -0.0475134 -0.0496813 -0.0516119 -0.0532146 -0.0543934 -0.0550501 -0.0550884 -0.0544191 -0.0529671 -0.0506793 -0.0475353 -0.0435587 -0.0388301 -0.0335003 -0.0277996 -0.0220406 -0.0166081 -0.0119298 -0.00842753 -0.00645315 -0.0062268 -0.0078034 -0.011091 -0.0185294 -0.0201605 -0.0217206 -0.0232149 -0.0246682 -0.0261174 -0.0276045 -0.0291699 -0.030849 -0.0326684 -0.0346451 -0.0367846 -0.039081 -0.0415168 -0.0440619 -0.0466741 -0.0492987 -0.0518689 -0.0543061 -0.0565209 -0.0584149 -0.0598827 -0.0608151 -0.0611029 -0.0606422 -0.0593409 -0.0571268 -0.0539586 -0.0498378 -0.0448246 -0.0390537 -0.0327507 -0.0262411 -0.0199485 -0.01437 -0.0100244 -0.00737495 -0.00674454 -0.00825844 -0.0118549 -0.0225097 -0.0241121 -0.025638 -0.0270797 -0.0284581 -0.0298141 -0.031199 -0.0326651 -0.0342591 -0.0360178 -0.0379651 -0.040112 -0.0424552 -0.0449778 -0.0476492 -0.0504249 -0.0532468 -0.0560436 -0.0587312 -0.0612136 -0.0633849 -0.0651307 -0.0663316 -0.0668667 -0.0666187 -0.0654797 -0.0633597 -0.0601964 -0.0559682 -0.050711 -0.044537 -0.0376564 -0.0303961 -0.023207 -0.0166502 -0.0113472 -0.00789229 -0.00674136 -0.00812068 -0.0120193 -0.0267891 -0.0283807 -0.0298784 -0.0312559 -0.0325293 -0.0337468 -0.0349744 -0.0362815 -0.0377305 -0.0393711 -0.0412365 -0.0433431 -0.0456905 -0.048262 -0.0510254 -0.0539331 -0.0569229 -0.0599183 -0.0628292 -0.0655531 -0.0679761 -0.0699757 -0.0714231 -0.0721868 -0.0721376 -0.0711538 -0.0691294 -0.065983 -0.0616709 -0.0562032 -0.0496649 -0.0422421 -0.0342491 -0.0261489 -0.0185541 -0.0121876 -0.00779096 -0.00598635 -0.00714095 -0.0113244 -0.0313503 -0.0329627 -0.0344445 -0.0357435 -0.0368723 -0.0378927 -0.038893 -0.039967 -0.0411989 -0.0426542 -0.0443772 -0.0463902 -0.0486949 -0.0512737 -0.0540913 -0.0570959 -0.0602198 -0.0633805 -0.066481 -0.0694115 -0.0720506 -0.0742674 -0.0759241 -0.0768799 -0.0769949 -0.076136 -0.0741837 -0.0710407 -0.0666438 -0.0609791 -0.0541032 -0.0461718 -0.0374737 -0.028466 -0.0197937 -0.0122705 -0.00679386 -0.00418609 -0.00500494 -0.00944337 -0.0361832 -0.0378661 -0.0393501 -0.0405507 -0.0414811 -0.0422271 -0.0429117 -0.043663 -0.0445929 -0.0457872 -0.0473019 -0.0491648 -0.051378 -0.0539214 -0.0567548 -0.0598202 -0.0630427 -0.0663322 -0.0695841 -0.0726804 -0.0754914 -0.0778776 -0.0796926 -0.0807864 -0.0810098 -0.08022 -0.0782867 -0.0751004 -0.070583 -0.064701 -0.0574853 -0.0490595 -0.0396782 -0.0297742 -0.0200011 -0.0112422 -0.00454829 -0.000971438 -0.00131921 -0.00596813 -0.0412925 -0.0431184 -0.0446278 -0.0456983 -0.0463545 -0.0467245 -0.0469827 -0.0473041 -0.047836 -0.0486869 -0.0499249 -0.0515813 -0.0536564 -0.0561245 -0.0589378 -0.0620297 -0.0653162 -0.0686979 -0.072061 -0.0752783 -0.0782108 -0.0807099 -0.08262 -0.083782 -0.0840378 -0.0832356 -0.0812366 -0.0779228 -0.0732059 -0.0670395 -0.0594354 -0.050489 -0.040418 -0.0296176 -0.0187237 -0.00865931 -0.00061147 0.00411844 0.00440664 -0.000390693 -0.0467106 -0.0487812 -0.0503395 -0.0512257 -0.0514989 -0.0513581 -0.0510527 -0.0508194 -0.0508479 -0.0512706 -0.0521654 -0.0535638 -0.0554601 -0.0578192 -0.0605823 -0.0636712 -0.0669907 -0.0704301 -0.0738646 -0.0771565 -0.0801565 -0.0827058 -0.0846387 -0.0857861 -0.0859804 -0.0850611 -0.0828817 -0.0793174 -0.0742746 -0.0677005 -0.0595971 -0.050041 -0.0392184 -0.0274808 -0.0154256 -0.00397979 0.00556558 0.0116566 0.0127843 0.00792287 -0.0525192 -0.0549718 -0.056592 -0.0571989 -0.0569304 -0.0560999 -0.0550631 -0.0541337 -0.053548 -0.0534604 -0.0539532 -0.0550519 -0.0567389 -0.058965 -0.0616564 -0.0647201 -0.068047 -0.0715132 -0.0749814 -0.078302 -0.0813139 -0.083847 -0.085724 -0.0867647 -0.0867905 -0.0856308 -0.0831303 -0.079158 -0.0736165 -0.0664521 -0.0576659 -0.0473284 -0.0356067 -0.0228145 -0.00949893 0.00344165 0.014656 0.0223554 0.0245818 0.0197721 -0.0588877 -0.0618991 -0.0635607 -0.0637211 -0.0626768 -0.0609209 -0.0589508 -0.0571704 -0.0558611 -0.0551906 -0.0552361 -0.0560079 -0.0574692 -0.0595505 -0.0621587 -0.065183 -0.0684978 -0.0719643 -0.0754313 -0.0787359 -0.0817042 -0.0841532 -0.0858927 -0.0867296 -0.0864721 -0.0849369 -0.0819574 -0.0773936 -0.0711428 -0.0631514 -0.0534248 -0.042039 -0.0291587 -0.0150756 -0.000290355 0.0143487 0.0274756 0.0371042 0.0407771 0.0361866 -0.0661428 -0.0699245 -0.0715245 -0.0709457 -0.0687809 -0.0657908 -0.0626508 -0.0598572 -0.0577237 -0.0564148 -0.0559871 -0.0564233 -0.0576583 -0.059596 -0.0621198 -0.065098 -0.0683867 -0.0718307 -0.075264 -0.0785095 -0.0813795 -0.0836771 -0.085198 -0.085734 -0.0850778 -0.08303 -0.0794082 -0.0740579 -0.0668655 -0.0577718 -0.0467845 -0.0339893 -0.0195618 -0.00379242 0.0128467 0.0295589 0.0449965 0.0570211 0.0626432 0.0585388 -0.0748986 -0.0796631 -0.0809164 -0.0790912 -0.0753005 -0.0706783 -0.0660988 -0.0621312 -0.0590914 -0.0571127 -0.0562093 -0.0563213 -0.0573452 -0.0591522 -0.0615984 -0.0645291 -0.067781 -0.071182 -0.0745506 -0.0776955 -0.0804147 -0.082497 -0.0837227 -0.0838673 -0.0827054 -0.0800181 -0.0756016 -0.0692793 -0.0609161 -0.0504346 -0.0378316 -0.0231924 -0.00670266 0.0113356 0.0304567 0.0498994 0.0683416 0.0835211 0.0918881 0.0887471 -0.0863068 -0.0921536 -0.0923892 -0.088449 -0.0823001 -0.0755439 -0.0692286 -0.063939 -0.059938 -0.0572872 -0.0559308 -0.0557491 -0.0565905 -0.0582885 -0.0606689 -0.0635535 -0.0667593 -0.0700976 -0.0733721 -0.0763775 -0.0788982 -0.0807085 -0.0815737 -0.0812519 -0.0794981 -0.0760707 -0.0707391 -0.0632958 -0.0535704 -0.0414476 -0.0268871 -0.00994406 0.0092134 0.0302876 0.0528172 0.0760633 0.0987196 0.118387 0.13088 0.129655 -0.102562 -0.109134 -0.106876 -0.0993564 -0.0898095 -0.080304 -0.0719431 -0.0652102 -0.0602306 -0.0569393 -0.0551785 -0.0547518 -0.0554509 -0.0570677 -0.0593976 -0.062239 -0.0653908 -0.068649 -0.071804 -0.0746379 -0.076923 -0.0784204 -0.078881 -0.0780462 -0.0756513 -0.0714301 -0.0651211 -0.0564778 -0.04528 -0.0313505 -0.0145753 0.00507281 0.0275081 0.052506 0.0796681 0.108323 0.137215 0.163781 0.182992 0.185736 -0.127981 -0.133444 -0.125566 -0.112056 -0.0976805 -0.0847075 -0.0740096 -0.0657691 -0.0598524 -0.0560002 -0.0539187 -0.0533188 -0.0539304 -0.0555034 -0.0578045 -0.0606117 -0.0637084 -0.0668782 -0.0699008 -0.0725483 -0.074583 -0.0757554 -0.0758043 -0.0744564 -0.071429 -0.0664316 -0.059171 -0.0493562 -0.0367062 -0.0209596 -0.00188822 0.0206843 0.0468573 0.0766196 0.109807 0.146011 0.184255 0.221996 0.253049 0.264388 -0.171449 -0.169436 -0.149522 -0.126211 -0.105161 -0.0879956 -0.0748006 -0.0651389 -0.0584528 -0.0542127 -0.0519586 -0.0513017 -0.0519117 -0.053502 -0.0558167 -0.0586187 -0.0616808 -0.0647787 -0.0676851 -0.0701659 -0.0719768 -0.0728612 -0.0725492 -0.0707571 -0.0671872 -0.061529 -0.0534597 -0.0426452 -0.0287401 -0.0113866 0.0097867 0.0351669 0.0651553 0.100158 0.14056 0.186671 0.23848 0.294445 0.347582 0.378287 -0.252266 -0.222589 -0.178107 -0.139427 -0.109792 -0.0881812 -0.0728472 -0.0622591 -0.0552565 -0.0509911 -0.0488391 -0.0483284 -0.0490872 -0.0508085 -0.053226 -0.0560974 -0.0591926 -0.0622852 -0.0651464 -0.0675403 -0.0692206 -0.0699279 -0.0693886 -0.067313 -0.0633948 -0.0573097 -0.0487132 -0.0372364 -0.0224786 -0.0039935 0.018733 0.0463189 0.0795403 0.119407 0.167259 0.224891 0.294643 0.37876 0.47356 0.550053 -0.413213 -0.294639 -0.202854 -0.143116 -0.105344 -0.0811775 -0.0654935 -0.0553381 -0.0489819 -0.0453624 -0.043785 -0.0437625 -0.0449279 -0.0469847 -0.0496772 -0.0527724 -0.0560479 -0.0592833 -0.0622546 -0.0647297 -0.0664651 -0.067204 -0.0666738 -0.064585 -0.0606293 -0.0544776 -0.0457752 -0.0341351 -0.0191244 -0.00024163 0.0231237 0.0517602 0.0867559 0.129712 0.18312 0.251034 0.340237 0.462023 0.630253 0.823279 -0.752817 -0.345318 -0.186294 -0.116544 -0.0812949 -0.0614276 -0.0495003 -0.0422534 -0.0380869 -0.0361215 -0.0358137 -0.0367877 -0.0387547 -0.0414729 -0.0447255 -0.0483071 -0.0520159 -0.055647 -0.0589887 -0.0618188 -0.0639024 -0.0649897 -0.0648145 -0.063093 -0.0595221 -0.0537768 -0.0455066 -0.034327 -0.0198068 -0.00144376 0.0213781 0.0494647 0.0839549 0.126603 0.180389 0.250958 0.35027 0.505473 0.774777 1.27439 0 0 0 0 0 0 0 0 0 0 0 0 0 0 0 0 0 0 0 0 0 0 0 0 0 0 0 0 0 0 0 0 0 0 0 0 0 0 0 0 -0.0020456 -0.00240866 -0.00293555 -0.00348681 -0.00401156 -0.00448091 -0.00487422 -0.00517617 -0.00537574 -0.00546557 -0.00544137 -0.00530153 -0.00504682 -0.00468035 -0.00420757 -0.00363641 -0.00297738 -0.00224363 -0.00145093 -0.000617428 0.000236642 0.00108954 0.00191867 0.00270139 0.00341589 0.00404207 0.00456246 0.00496305 0.00523395 0.00537004 0.00537135 0.00524324 0.00499646 0.00464681 0.00421458 0.00372374 0.00320122 0.00267837 0.00220356 0.00190795 -0.00234783 -0.00254202 -0.00291626 -0.00335281 -0.00378832 -0.00418586 -0.00452176 -0.00477995 -0.00494934 -0.00502258 -0.00499515 -0.00486502 -0.00463234 -0.0042994 -0.00387072 -0.0033531 -0.00275577 -0.00209046 -0.00137131 -0.000614754 0.000160818 0.00093555 0.00168873 0.00239952 0.0030478 0.00361506 0.00408522 0.00444552 0.00468717 0.004806 0.00480281 0.00468359 0.00445953 0.00414679 0.0037663 0.00334375 0.0029107 0.00250875 0.0022016 0.00210249 -0.00227203 -0.00249553 -0.00283328 -0.00321766 -0.00360078 -0.00395089 -0.00424695 -0.00447477 -0.00462465 -0.00469004 -0.00466675 -0.0045525 -0.00434682 -0.00405102 -0.00366829 -0.00320392 -0.00266545 -0.00206275 -0.00140812 -0.00071612 -3.40625e-06 0.000711713 0.00140981 0.00207104 0.00267594 0.00320638 0.00364643 0.00398335 0.00420835 0.0043173 0.00431118 0.00419633 0.00398437 0.00369206 0.00334103 0.00295772 0.00257422 0.00223044 0.00197831 0.00188499 -0.00201539 -0.00233624 -0.0027035 -0.00308392 -0.00344845 -0.00377555 -0.00405026 -0.0042623 -0.00440455 -0.00447201 -0.00446116 -0.00436971 -0.00419652 -0.00394174 -0.00360705 -0.0031959 -0.00271381 -0.00216858 -0.00157044 -0.000932072 -0.000268509 0.000403186 0.00106438 0.00169554 0.00227704 0.00279018 0.00321818 0.0035473 0.00376779 0.00387475 0.00386871 0.00375588 0.0035481 0.00326252 0.00292106 0.00254991 0.00217921 0.00184305 0.00157896 0.00142422 -0.00169692 -0.00213525 -0.00256446 -0.00297177 -0.00334347 -0.00366855 -0.00393919 -0.00414994 -0.00429692 -0.00437706 -0.00438775 -0.00432672 -0.00419214 -0.00398289 -0.0036989 -0.00334159 -0.00291423 -0.00242234 -0.00187399 -0.00127995 -0.0006537 -1.12978e-05 0.000629049 0.00124759 0.00182391 0.00233794 0.0027712 0.00310806 0.00333693 0.0034513 0.0034505 0.00334005 0.00313158 0.00284229 0.00249409 0.00211248 0.00172532 0.00136139 0.00104831 0.000808532 -0.00139499 -0.00195304 -0.00245801 -0.00290978 -0.00330628 -0.00364576 -0.00392722 -0.00415015 -0.00431399 -0.00441767 -0.00445949 -0.00443716 -0.00434806 -0.00418964 -0.00395995 -0.00365815 -0.0032851 -0.0