# vtk DataFile Version 2.0
Velocidades
ASCII

DATASET STRUCTURED_GRID
DIMENSIONS   40   40   10

POINTS   16000   double
0.0125   0.0125   0.05
0.0125   0.0375   0.05
0.0125   0.0625   0.05
0.0125   0.0875   0.05
0.0125   0.1125   0.05
0.0125   0.1375   0.05
0.0125   0.1625   0.05
0.0125   0.1875   0.05
0.0125   0.2125   0.05
0.0125   0.2375   0.05
0.0125   0.2625   0.05
0.0125   0.2875   0.05
0.0125   0.3125   0.05
0.0125   0.3375   0.05
0.0125   0.3625   0.05
0.0125   0.3875   0.05
0.0125   0.4125   0.05
0.0125   0.4375   0.05
0.0125   0.4625   0.05
0.0125   0.4875   0.05
0.0125   0.5125   0.05
0.0125   0.5375   0.05
0.0125   0.5625   0.05
0.0125   0.5875   0.05
0.0125   0.6125   0.05
0.0125   0.6375   0.05
0.0125   0.6625   0.05
0.0125   0.6875   0.05
0.0125   0.7125   0.05
0.0125   0.7375   0.05
0.0125   0.7625   0.05
0.0125   0.7875   0.05
0.0125   0.8125   0.05
0.0125   0.8375   0.05
0.0125   0.8625   0.05
0.0125   0.8875   0.05
0.0125   0.9125   0.05
0.0125   0.9375   0.05
0.0125   0.9625   0.05
0.0125   0.9875   0.05
0.0375   0.0125   0.05
0.0375   0.0375   0.05
0.0375   0.0625   0.05
0.0375   0.0875   0.05
0.0375   0.1125   0.05
0.0375   0.1375   0.05
0.0375   0.1625   0.05
0.0375   0.1875   0.05
0.0375   0.2125   0.05
0.0375   0.2375   0.05
0.0375   0.2625   0.05
0.0375   0.2875   0.05
0.0375   0.3125   0.05
0.0375   0.3375   0.05
0.0375   0.3625   0.05
0.0375   0.3875   0.05
0.0375   0.4125   0.05
0.0375   0.4375   0.05
0.0375   0.4625   0.05
0.0375   0.4875   0.05
0.0375   0.5125   0.05
0.0375   0.5375   0.05
0.0375   0.5625   0.05
0.0375   0.5875   0.05
0.0375   0.6125   0.05
0.0375   0.6375   0.05
0.0375   0.6625   0.05
0.0375   0.6875   0.05
0.0375   0.7125   0.05
0.0375   0.7375   0.05
0.0375   0.7625   0.05
0.0375   0.7875   0.05
0.0375   0.8125   0.05
0.0375   0.8375   0.05
0.0375   0.8625   0.05
0.0375   0.8875   0.05
0.0375   0.9125   0.05
0.0375   0.9375   0.05
0.0375   0.9625   0.05
0.0375   0.9875   0.05
0.0625   0.0125   0.05
0.0625   0.0375   0.05
0.0625   0.0625   0.05
0.0625   0.0875   0.05
0.0625   0.1125   0.05
0.0625   0.1375   0.05
0.0625   0.1625   0.05
0.0625   0.1875   0.05
0.0625   0.2125   0.05
0.0625   0.2375   0.05
0.0625   0.2625   0.05
0.0625   0.2875   0.05
0.0625   0.3125   0.05
0.0625   0.3375   0.05
0.0625   0.3625   0.05
0.0625   0.3875   0.05
0.0625   0.4125   0.05
0.0625   0.4375   0.05
0.0625   0.4625   0.05
0.0625   0.4875   0.05
0.0625   0.5125   0.05
0.0625   0.5375   0.05
0.0625   0.5625   0.05
0.0625   0.5875   0.05
0.0625   0.6125   0.05
0.0625   0.6375   0.05
0.0625   0.6625   0.05
0.0625   0.6875   0.05
0.0625   0.7125   0.05
0.0625   0.7375   0.05
0.0625   0.7625   0.05
0.0625   0.7875   0.05
0.0625   0.8125   0.05
0.0625   0.8375   0.05
0.0625   0.8625   0.05
0.0625   0.8875   0.05
0.0625   0.9125   0.05
0.0625   0.9375   0.05
0.0625   0.9625   0.05
0.0625   0.9875   0.05
0.0875   0.0125   0.05
0.0875   0.0375   0.05
0.0875   0.0625   0.05
0.0875   0.0875   0.05
0.0875   0.1125   0.05
0.0875   0.1375   0.05
0.0875   0.1625   0.05
0.0875   0.1875   0.05
0.0875   0.2125   0.05
0.0875   0.2375   0.05
0.0875   0.2625   0.05
0.0875   0.2875   0.05
0.0875   0.3125   0.05
0.0875   0.3375   0.05
0.0875   0.3625   0.05
0.0875   0.3875   0.05
0.0875   0.4125   0.05
0.0875   0.4375   0.05
0.0875   0.4625   0.05
0.0875   0.4875   0.05
0.0875   0.5125   0.05
0.0875   0.5375   0.05
0.0875   0.5625   0.05
0.0875   0.5875   0.05
0.0875   0.6125   0.05
0.0875   0.6375   0.05
0.0875   0.6625   0.05
0.0875   0.6875   0.05
0.0875   0.7125   0.05
0.0875   0.7375   0.05
0.0875   0.7625   0.05
0.0875   0.7875   0.05
0.0875   0.8125   0.05
0.0875   0.8375   0.05
0.0875   0.8625   0.05
0.0875   0.8875   0.05
0.0875   0.9125   0.05
0.0875   0.9375   0.05
0.0875   0.9625   0.05
0.0875   0.9875   0.05
0.1125   0.0125   0.05
0.1125   0.0375   0.05
0.1125   0.0625   0.05
0.1125   0.0875   0.05
0.1125   0.1125   0.05
0.1125   0.1375   0.05
0.1125   0.1625   0.05
0.1125   0.1875   0.05
0.1125   0.2125   0.05
0.1125   0.2375   0.05
0.1125   0.2625   0.05
0.1125   0.2875   0.05
0.1125   0.3125   0.05
0.1125   0.3375   0.05
0.1125   0.3625   0.05
0.1125   0.3875   0.05
0.1125   0.4125   0.05
0.1125   0.4375   0.05
0.1125   0.4625   0.05
0.1125   0.4875   0.05
0.1125   0.5125   0.05
0.1125   0.5375   0.05
0.1125   0.5625   0.05
0.1125   0.5875   0.05
0.1125   0.6125   0.05
0.1125   0.6375   0.05
0.1125   0.6625   0.05
0.1125   0.6875   0.05
0.1125   0.7125   0.05
0.1125   0.7375   0.05
0.1125   0.7625   0.05
0.1125   0.7875   0.05
0.1125   0.8125   0.05
0.1125   0.8375   0.05
0.1125   0.8625   0.05
0.1125   0.8875   0.05
0.1125   0.9125   0.05
0.1125   0.9375   0.05
0.1125   0.9625   0.05
0.1125   0.9875   0.05
0.1375   0.0125   0.05
0.1375   0.0375   0.05
0.1375   0.0625   0.05
0.1375   0.0875   0.05
0.1375   0.1125   0.05
0.1375   0.1375   0.05
0.1375   0.1625   0.05
0.1375   0.1875   0.05
0.1375   0.2125   0.05
0.1375   0.2375   0.05
0.1375   0.2625   0.05
0.1375   0.2875   0.05
0.1375   0.3125   0.05
0.1375   0.3375   0.05
0.1375   0.3625   0.05
0.1375   0.3875   0.05
0.1375   0.4125   0.05
0.1375   0.4375   0.05
0.1375   0.4625   0.05
0.1375   0.4875   0.05
0.1375   0.5125   0.05
0.1375   0.5375   0.05
0.1375   0.5625   0.05
0.1375   0.5875   0.05
0.1375   0.6125   0.05
0.1375   0.6375   0.05
0.1375   0.6625   0.05
0.1375   0.6875   0.05
0.1375   0.7125   0.05
0.1375   0.7375   0.05
0.1375   0.7625   0.05
0.1375   0.7875   0.05
0.1375   0.8125   0.05
0.1375   0.8375   0.05
0.1375   0.8625   0.05
0.1375   0.8875   0.05
0.1375   0.9125   0.05
0.1375   0.9375   0.05
0.1375   0.9625   0.05
0.1375   0.9875   0.05
0.1625   0.0125   0.05
0.1625   0.0375   0.05
0.1625   0.0625   0.05
0.1625   0.0875   0.05
0.1625   0.1125   0.05
0.1625   0.1375   0.05
0.1625   0.1625   0.05
0.1625   0.1875   0.05
0.1625   0.2125   0.05
0.1625   0.2375   0.05
0.1625   0.2625   0.05
0.1625   0.2875   0.05
0.1625   0.3125   0.05
0.1625   0.3375   0.05
0.1625   0.3625   0.05
0.1625   0.3875   0.05
0.1625   0.4125   0.05
0.1625   0.4375   0.05
0.1625   0.4625   0.05
0.1625   0.4875   0.05
0.1625   0.5125   0.05
0.1625   0.5375   0.05
0.1625   0.5625   0.05
0.1625   0.5875   0.05
0.1625   0.6125   0.05
0.1625   0.6375   0.05
0.1625   0.6625   0.05
0.1625   0.6875   0.05
0.1625   0.7125   0.05
0.1625   0.7375   0.05
0.1625   0.7625   0.05
0.1625   0.7875   0.05
0.1625   0.8125   0.05
0.1625   0.8375   0.05
0.1625   0.8625   0.05
0.1625   0.8875   0.05
0.1625   0.9125   0.05
0.1625   0.9375   0.05
0.1625   0.9625   0.05
0.1625   0.9875   0.05
0.1875   0.0125   0.05
0.1875   0.0375   0.05
0.1875   0.0625   0.05
0.1875   0.0875   0.05
0.1875   0.1125   0.05
0.1875   0.1375   0.05
0.1875   0.1625   0.05
0.1875   0.1875   0.05
0.1875   0.2125   0.05
0.1875   0.2375   0.05
0.1875   0.2625   0.05
0.1875   0.2875   0.05
0.1875   0.3125   0.05
0.1875   0.3375   0.05
0.1875   0.3625   0.05
0.1875   0.3875   0.05
0.1875   0.4125   0.05
0.1875   0.4375   0.05
0.1875   0.4625   0.05
0.1875   0.4875   0.05
0.1875   0.5125   0.05
0.1875   0.5375   0.05
0.1875   0.5625   0.05
0.1875   0.5875   0.05
0.1875   0.6125   0.05
0.1875   0.6375   0.05
0.1875   0.6625   0.05
0.1875   0.6875   0.05
0.1875   0.7125   0.05
0.1875   0.7375   0.05
0.1875   0.7625   0.05
0.1875   0.7875   0.05
0.1875   0.8125   0.05
0.1875   0.8375   0.05
0.1875   0.8625   0.05
0.1875   0.8875   0.05
0.1875   0.9125   0.05
0.1875   0.9375   0.05
0.1875   0.9625   0.05
0.1875   0.9875   0.05
0.2125   0.0125   0.05
0.2125   0.0375   0.05
0.2125   0.0625   0.05
0.2125   0.0875   0.05
0.2125   0.1125   0.05
0.2125   0.1375   0.05
0.2125   0.1625   0.05
0.2125   0.1875   0.05
0.2125   0.2125   0.05
0.2125   0.2375   0.05
0.2125   0.2625   0.05
0.2125   0.2875   0.05
0.2125   0.3125   0.05
0.2125   0.3375   0.05
0.2125   0.3625   0.05
0.2125   0.3875   0.05
0.2125   0.4125   0.05
0.2125   0.4375   0.05
0.2125   0.4625   0.05
0.2125   0.4875   0.05
0.2125   0.5125   0.05
0.2125   0.5375   0.05
0.2125   0.5625   0.05
0.2125   0.5875   0.05
0.2125   0.6125   0.05
0.2125   0.6375   0.05
0.2125   0.6625   0.05
0.2125   0.6875   0.05
0.2125   0.7125   0.05
0.2125   0.7375   0.05
0.2125   0.7625   0.05
0.2125   0.7875   0.05
0.2125   0.8125   0.05
0.2125   0.8375   0.05
0.2125   0.8625   0.05
0.2125   0.8875   0.05
0.2125   0.9125   0.05
0.2125   0.9375   0.05
0.2125   0.9625   0.05
0.2125   0.9875   0.05
0.2375   0.0125   0.05
0.2375   0.0375   0.05
0.2375   0.0625   0.05
0.2375   0.0875   0.05
0.2375   0.1125   0.05
0.2375   0.1375   0.05
0.2375   0.1625   0.05
0.2375   0.1875   0.05
0.2375   0.2125   0.05
0.2375   0.2375   0.05
0.2375   0.2625   0.05
0.2375   0.2875   0.05
0.2375   0.3125   0.05
0.2375   0.3375   0.05
0.2375   0.3625   0.05
0.2375   0.3875   0.05
0.2375   0.4125   0.05
0.2375   0.4375   0.05
0.2375   0.4625   0.05
0.2375   0.4875   0.05
0.2375   0.5125   0.05
0.2375   0.5375   0.05
0.2375   0.5625   0.05
0.2375   0.5875   0.05
0.2375   0.6125   0.05
0.2375   0.6375   0.05
0.2375   0.6625   0.05
0.2375   0.6875   0.05
0.2375   0.7125   0.05
0.2375   0.7375   0.05
0.2375   0.7625   0.05
0.2375   0.7875   0.05
0.2375   0.8125   0.05
0.2375   0.8375   0.05
0.2375   0.8625   0.05
0.2375   0.8875   0.05
0.2375   0.9125   0.05
0.2375   0.9375   0.05
0.2375   0.9625   0.05
0.2375   0.9875   0.05
0.2625   0.0125   0.05
0.2625   0.0375   0.05
0.2625   0.0625   0.05
0.2625   0.0875   0.05
0.2625   0.1125   0.05
0.2625   0.1375   0.05
0.2625   0.1625   0.05
0.2625   0.1875   0.05
0.2625   0.2125   0.05
0.2625   0.2375   0.05
0.2625   0.2625   0.05
0.2625   0.2875   0.05
0.2625   0.3125   0.05
0.2625   0.3375   0.05
0.2625   0.3625   0.05
0.2625   0.3875   0.05
0.2625   0.4125   0.05
0.2625   0.4375   0.05
0.2625   0.4625   0.05
0.2625   0.4875   0.05
0.2625   0.5125   0.05
0.2625   0.5375   0.05
0.2625   0.5625   0.05
0.2625   0.5875   0.05
0.2625   0.6125   0.05
0.2625   0.6375   0.05
0.2625   0.6625   0.05
0.2625   0.6875   0.05
0.2625   0.7125   0.05
[...]
POINT_DATA   16000
VECTORS Velocidades double

0 0.320986 0
0 0.733372 0
0 0.8576 0
0 0.9054 0
0 0.928623 0
0 0.942035 0
0 0.950694 0
0 0.956693 0
0 0.961044 0
0 0.964296 0
0 0.966776 0
0 0.968689 0
0 0.970172 0
0 0.971315 0
0 0.972183 0
0 0.972821 0
0 0.973261 0
0 0.973525 0
0 0.973626 0
0 0.973574 0
0 0.973371 0
0 0.973015 0
0 0.972498 0
0 0.971808 0
0 0.970924 0
0 0.96982 0
0 0.968457 0
0 0.966782 0
0 0.964723 0
0 0.962176 0
0 0.958995 0
0 0.954957 0
0 0.949712 0
0 0.942679 0
0 0.932794 0
0 0.917876 0
0 0.892685 0
0 0.842198 0
0 0.715206 0
0 0.311301 0
0 0.186997 0
0 0.480834 0
0 0.646533 0
0 0.739573 0
0 0.795049 0
0 0.830486 0
0 0.854513 0
0 0.871578 0
0 0.884128 0
0 0.89359 0
0 0.900847 0
0 0.906468 0
0 0.910835 0
0 0.914209 0
0 0.916775 0
0 0.918662 0
0 0.919965 0
0 0.920745 0
0 0.921046 0
0 0.92089 0
0 0.920287 0
0 0.91923 0
0 0.917697 0
0 0.91565 0
0 0.913033 0
0 0.909765 0
0 0.905737 0
0 0.900798 0
0 0.89474 0
0 0.887274 0
0 0.877988 0
0 0.866274 0
0 0.851207 0
0 0.831314 0
0 0.804113 0
0 0.765174 0
0 0.706119 0
0 0.610503 0
0 0.447067 0
0 0.171656 0
0 0.126818 0
0 0.346792 0
0 0.503052 0
0 0.608513 0
0 0.679878 0
0 0.729339 0
0 0.764642 0
0 0.790548 0
0 0.810007 0
0 0.82489 0
0 0.836418 0
0 0.845411 0
0 0.852433 0
0 0.857879 0
0 0.862032 0
0 0.865093 0
0 0.867207 0
0 0.868474 0
0 0.86896 0
0 0.868704 0
0 0.867717 0
0 0.865991 0
0 0.863492 0
0 0.86016 0
0 0.855906 0
0 0.850607 0
0 0.844093 0
0 0.836133 0
0 0.826416 0
0 0.814513 0
0 0.799826 0
0 0.781508 0
0 0.75832 0
0 0.728411 0
0 0.688941 0
0 0.635478 0
0 0.561126 0
0 0.455721 0
0 0.306993 0
0 0.110112 0
0 0.0948683 0
0 0.267594 0
0 0.40479 0
0 0.508058 0
0 0.58439 0
0 0.640903 0
0 0.683202 0
0 0.715307 0
0 0.74001 0
0 0.759232 0
0 0.77431 0
0 0.786182 0
0 0.795516 0
0 0.802793 0
0 0.808362 0
0 0.812479 0
0 0.815325 0
0 0.817031 0
0 0.817682 0
0 0.817328 0
0 0.815985 0
0 0.813642 0
0 0.810256 0
0 0.80575 0
0 0.800012 0
0 0.792885 0
0 0.784158 0
0 0.773547 0
0 0.760675 0
0 0.745035 0
0 0.725945 0
0 0.702469 0
0 0.67332 0
0 0.636703 0
0 0.590123 0
0 0.530177 0
0 0.452484 0
0 0.352201 0
0 0.226189 0
0 0.0782845 0
0 0.0754606 0
0 0.216306 0
0 0.33515 0
0 0.430921 0
0 0.506259 0
0 0.564995 0
0 0.610789 0
0 0.646658 0
0 0.674923 0
0 0.69732 0
0 0.715133 0
0 0.729307 0
0 0.740539 0
0 0.74935 0
0 0.756124 0
0 0.761146 0
0 0.764626 0
0 0.76671 0
0 0.7675 0
0 0.767053 0
0 0.765389 0
0 0.762496 0
0 0.758324 0
0 0.752786 0
0 0.745757 0
0 0.73706 0
0 0.726459 0
0 0.713647 0
0 0.69822 0
0 0.679655 0
0 0.657267 0
0 0.630163 0
0 0.597184 0
0 0.556832 0
0 0.507231 0
0 0.446154 0
0 0.371275 0
0 0.280884 0
0 0.175385 0
0 0.0595514 0
0 0.0624275 0
0 0.180548 0
0 0.283792 0
0 0.370751 0
0 0.442252 0
0 0.50026 0
0 0.547039 0
0 0.584707 0
0 0.615058 0
0 0.639536 0
0 0.659277 0
0 0.675157 0
0 0.68785 0
0 0.697873 0
0 0.705616 0
0 0.711377 0
0 0.715376 0
0 0.71777 0
0 0.718669 0
0 0.718135 0
0 0.716192 0
0 0.712826 0
0 0.707986 0
0 0.701581 0
0 0.693479 0
0 0.683497 0
0 0.671396 0
0 0.656867 0
0 0.639516 0
0 0.618846 0
0 0.594235 0
0 0.564908 0
0 0.529921 0
0 0.48815 0
0 0.438337 0
0 0.37921 0
0 0.309784 0
0 0.229911 0
0 0.141107 0
0 0.0473975 0
0 0.0530137 0
0 0.154134 0
0 0.244472 0
0 0.322844 0
0 0.389364 0
0 0.445002 0
0 0.491116 0
0 0.529135 0
0 0.560382 0
0 0.586 0
0 0.606937 0
0 0.623962 0
0 0.637688 0
0 0.648599 0
0 0.657072 0
0 0.663399 0
0 0.667798 0
0 0.670432 0
0 0.671409 0
0 0.670796 0
0 0.668618 0
0 0.664863 0
0 0.659481 0
0 0.652383 0
0 0.643437 0
0 0.632467 0
0 0.619244 0
0 0.603477 0
0 0.584806 0
0 0.562794 0
0 0.536912 0
0 0.506536 0
0 0.470956 0
0 0.429404 0
0 0.38112 0
0 0.3255 0
0 0.262332 0
0 0.192149 0
0 0.11664 0
0 0.0389252 0
0 0.0458422 0
0 0.133729 0
0 0.213376 0
0 0.283894 0
0 0.34515 0
0 0.397596 0
0 0.442032 0
0 0.479401 0
0 0.510648 0
0 0.536646 0
0 0.558158 0
0 0.57583 0
0 0.590196 0
0 0.601692 0
0 0.610664 0
0 0.617388 0
0 0.622072 0
0 0.624872 0
0 0.625898 0
0 0.625215 0
0 0.62285 0
0 0.618792 0
0 0.612996 0
0 0.605378 0
0 0.595815 0
0 0.584145 0
0 0.570159 0
0 0.553599 0
0 0.534156 0
0 0.511461 0
0 0.485094 0
0 0.454586 0
0 0.419439 0
0 0.379174 0
0 0.333399 0
0 0.281929 0
0 0.224958 0
0 0.16326 0
0 0.0983796 0
0 0.0326951 0
0 0.0401577 0
0 0.117408 0
0 0.188103 0
0 0.251606 0
0 0.307722 0
0 0.35664 0
0 0.398824 0
0 0.434887 0
0 0.465491 0
0 0.491287 0
0 0.512871 0
0 0.53077 0
0 0.545435 0
0 0.557244 0
0 0.566505 0
0 0.573469 0
0 0.578328 0
0 0.58123 0
0 0.582277 0
0 0.581534 0
0 0.579028 0
0 0.574751 0
0 0.568664 0
0 0.560692 0
0 0.550726 0
0 0.538622 0
0 0.5242 0
0 0.507242 0
0 0.487491 0
0 0.464658 0
0 0.438423 0
0 0.408457 0
0 0.374439 0
0 0.336107 0
0 0.293317 0
0 0.246132 0
0 0.194934 0
0 0.140536 0
0 0.0842577 0
0 0.0279237 0
0 0.0355135 0
0 0.103992 0
0 0.167094 0
0 0.224378 0
0 0.275653 0
0 0.320982 0
0 0.360627 0
0 0.394982 0
0 0.424504 0
0 0.449671 0
0 0.470938 0
0 0.488725 0
0 0.503403 0
0 0.515291 0
0 0.524657 0
0 0.531722 0
0 0.536658 0
0 0.539601 0
0 0.540646 0
0 0.539853 0
0 0.53725 0
0 0.532834 0
0 0.526571 0
0 0.518398 0
0 0.508222 0
0 0.495922 0
0 0.481348 0
0 0.464324 0
0 0.444648 0
0 0.422103 0
0 0.396462 0
0 0.367508 0
0 0.335061 0
0 0.299011 0
0 0.259373 0
0 0.216344 0
0 0.170377 0
0 0.122234 0
0 0.0730194 0
0 0.0241519 0
0 0.0316293 0
0 0.0927228 0
0 0.149305 0
0 0.201075 0
0 0.247872 0
0 0.289699 0
0 0.326698 0
0 0.35912 0
0 0.387279 0
0 0.411516 0
0 0.432176 0
0 0.449588 0
0 0.464049 0
0 0.475824 0
0 0.485139 0
0 0.492185 0
0 0.497115 0
0 0.500047 0
0 0.501069 0
0 0.500237 0
0 0.497579 0
0 0.493096 0
0 0.48676 0
0 0.478521 0
0 0.468305 0
0 0.456012 0
0 0.441524 0
0 0.424705 0
0 0.405405 0
0 0.383469 0
0 0.358749 0
0 0.331118 0
0 0.300496 0
0 0.26688 0
0 0.230378 0
0 0.191253 0
0 0.149964 0
0 0.107196 0
0 0.0638655 0
0 0.0210942 0
0 0.0283202 0
0 0.0830914 0
0 0.134011 0
0 0.180878 0
0 0.223568 0
0 0.262055 0
0 0.296415 0
0 0.326802 0
0 0.353428 0
0 0.376536 0
0 0.396384 0
0 0.413223 0
0 0.427289 0
0 0.438797 0
0 0.447935 0
0 0.454864 0
0 0.459716 0
0 0.462595 0
0 0.463578 0
0 0.462719 0
0 0.460043 0
0 0.455555 0
0 0.449237 0
0 0.44105 0
0 0.430935 0
0 0.418818 0
0 0.404609 0
0 0.388208 0
0 0.369511 0
0 0.348416 0
0 0.324836 0
0 0.298715 0
0 0.270043 0
0 0.238885 0
0 0.205401 0
0 0.169879 0
0 0.132755 0
0 0.0946294 0
0 0.0562652 0
0 0.0185642 0
0 0.0254591 0
0 0.0747447 0
0 0.120697 0
0 0.163189 0
0 0.202124 0
0 0.237471 0
0 0.269262 0
0 0.297591 0
0 0.322599 0
0 0.344457 0
0 0.363354 0
0 0.379479 0
0 0.393017 0
0 0.40414 0
0 0.413001 0
0 0.419735 0
0 0.424452 0
0 0.427243 0
0 0.428177 0
0 0.4273 0
0 0.42464 0
0 0.420202 0
0 0.413978 0
0 0.405939 0
0 0.396043 0
0 0.384237 0
0 0.370457 0
0 0.354635 0
0 0.336704 0
0 0.316607 0
0 0.294305 0
0 0.269791 0
0 0.243105 0
0 0.21435 0
0 0.183715 0
0 0.151487 0
0 0.118067 0
0 0.0839766 0
0 0.049854 0
0 0.0164356 0
0 0.022956 0
0 0.0674292 0
0 0.108988 0
0 0.147557 0
0 0.183066 0
0 0.215481 0
0 0.244812 0
0 0.271114 0
0 0.294478 0
0 0.315021 0
0 0.33288 0
0 0.348197 0
0 0.361113 0
0 0.371765 0
0 0.380274 0
0 0.386752 0
0 0.391291 0
0 0.393969 0
0 0.394845 0
0 0.393961 0
0 0.391343 0
0 0.387002 0
0 0.380933 0
0 0.373121 0
0 0.363537 0
0 0.352146 0
0 0.338907 0
0 0.323779 0
0 0.306728 0
0 0.287727 0
0 0.266776 0
0 0.243902 0
0 0.219177 0
0 0.192728 0
0 0.16475 0
0 0.135519 0
0 0.105397 0
0 0.0748362 0
0 0.044374 0
0 0.0146198 0
0 0.020745 0
0 0.0609583 0
0 0.0986037 0
0 0.133641 0
0 0.166021 0
0 0.195713 0
0 0.222714 0
0 0.247053 0
0 0.268785 0
0 0.287991 0
0 0.304767 0
0 0.319218 0
0 0.33145 0
0 0.34157 0
0 0.349674 0
0 0.355853 0
0 0.360182 0
0 0.362728 0
0 0.363541 0
0 0.362658 0
0 0.360107 0
0 0.355899 0
0 0.350036 0
0 0.342511 0
0 0.333309 0
0 0.32241 0
0 0.309793 0
0 0.295438 0
0 0.279335 0
0 0.261485 0
0 0.241911 0
0 0.220666 0
0 0.197841 0
0 0.173572 0
0 0.148054 0
0 0.121544 0
0 0.0943665 0
0 0.0669124 0
0 0.0396375 0
0 0.0130528 0
0 0.0187766 0
0 0.0551915 0
0 0.0893295 0
0 0.121175 0
0 0.150697 0
0 0.177867 0
0 0.202676 0
0 0.225135 0
0 0.245276 0
0 0.263153 0
0 0.278831 0
0 0.292386 0
0 0.303898 0
0 0.313448 0
0 0.321112 0
0 0.326961 0
0 0.331059 0
0 0.33346 0
0 0.334208 0
0 0.333336 0
0 0.330869 0
0 0.326822 0
0 0.321203 0
0 0.314011 0
0 0.305242 0
0 0.294889 0
0 0.282947 0
0 0.269413 0
0 0.254295 0
0 0.237614 0
0 0.219411 0
0 0.199754 0
0 0.178744 0
0 0.156521 0
0 0.133271 0
0 0.10923 0
0 0.0846876 0
0 0.0599829 0
0 0.0355052 0
0 0.0116874 0
0 0.0170131 0
0 0.0500204 0
0 0.0809992 0
0 0.109952 0
0 0.136859 0
0 0.161697 0
0 0.184453 0
0 0.205127 0
0 0.223736 0
0 0.240313 0
0 0.2549 0
0 0.267553 0
0 0.278328 0
0 0.287288 0
0 0.29449 0
0 0.299993 0
0 0.303846 0
0 0.306095 0
0 0.306777 0
0 0.305922 0
0 0.303555 0
0 0.299692 0
0 0.294343 0
0 0.287516 0
0 0.279215 0
0 0.269443 0
0 0.258206 0
0 0.245517 0
0 0.231395 0
0 0.215877 0
0 0.199015 0
0 0.180886 0
0 0.161594 0
0 0.141278 0
0 0.120113 0
0 0.0983138 0
0 0.0761365 0
0 0.0538775 0
0 0.0318713 0
0 0.0104878 0
0 0.0154248 0
0 0.0453598 0
0 0.0734813 0
0 0.0998037 0
0 0.124316 0
0 0.147 0
0 0.16784 0
0 0.18683 0
0 0.203976 0
0 0.219296 0
0 0.232816 0
0 0.244575 0
0 0.254613 0
0 0.262976 0
0 0.269709 0
0 0.274856 0
0 0.278458 0
0 0.280551 0
0 0.281169 0
0 0.280339 0
0 0.278082 0
0 0.274418 0
0 0.269358 0
0 0.262917 0
0 0.255104 0
0 0.245931 0
0 0.235413 0
0 0.223573 0
0 0.210441 0
0 0.196061 0
0 0.180493 0
0 0.163819 0
0 0.146144 0
0 0.127599 0
0 0.108348 0
0 0.0885848 0
0 0.0685372 0
0 0.0484638 0
0 0.0286542 0
0 0.00942667 0
0 0.0139881 0
0 0.0411416 0
0 0.0666696 0
0 0.0905943 0
0 0.112911 0
0 0.133606 0
0 0.152663 0
0 0.170071 0
0 0.185829 0
0 0.199944 0
0 0.212433 0
0 0.223319 0
0 0.232631 0
0 0.240402 0
0 0.246665 0
0 0.251455 0
0 0.254805 0
0 0.256744 0
0 0.257301 0
0 0.256499 0
0 0.254361 0
0 0.250905 0
0 0.246146 0
0 0.240101 0
0 0.232785 0
0 0.224217 0
0 0.214419 0
0 0.203419 0
0 0.191254 0
0 0.177975 0
0 0.163646 0
0 0.148349 0
0 0.132185 0
0 0.115281 0
0 0.0977855 0
0 0.0798745 0
0 0.0617494 0
0 0.0436372 0
0 0.0257895 0
0 0.0084824 0
0 0.0126838 0
0 0.0373104 0
0 0.0604773 0
0 0.0822116 0
0 0.102514 0
0 0.121372 0
0 0.138771 0
0 0.154698 0
0 0.169146 0
0 0.182116 0
0 0.193616 0
0 0.203659 0
0 0.212264 0
0 0.219455 0
0 0.225256 0
0 0.229694 0
0 0.232795 0
0 0.234582 0
0 0.235081 0
0 0.234313 0
0 0.232298 0
0 0.229055 0
0 0.224602 0
0 0.218957 0
0 0.21214 0
0 0.204172 0
0 0.195082 0
0 0.184902 0
0 0.173674 0
0 0.161451 0
0 0.148298 0
0 0.134296 0
0 0.119542 0
0 0.104154 0
0 0.0882694 0
0 0.072045 0
0 0.0556598 0
0 0.0393135 0
0 0.0232261 0
0 0.00763789 0
0 0.0114961 0
0 0.0338205 0
0 0.0548325 0
0 0.074562 0
0 0.0930127 0
0 0.110175 0
0 0.126035 0
0 0.140579 0
0 0.153796 0
0 0.165683 0
0 0.17624 0
0 0.185475 0
0 0.193399 0
0 0.200029 0
0 0.205381 0
0 0.209475 0
0 0.212333 0
0 0.213974 0
0 0.214419 0
0 0.213688 0
0 0.211799 0
0 0.208771 0
0 0.204623 0
0 0.199375 0
0 0.19305 0
0 0.185672 0
0 0.177272 0
0 0.167885 0
0 0.157555 0
0 0.146337 0
0 0.134294 0
0 0.121506 0
0 0.108064 0
0 0.0940767 0
0 0.0796689 0
0 0.0649823 0
0 0.0501756 0
0 0.0354246 0
0 0.0209224 0
0 0.00687928 0
0 0.0104118 0
0 0.0306333 0
0 0.0496742 0
0 0.0675656 0
0 0.0843135 0
0 0.0999104 0
0 0.114343 0
0 0.127597 0
0 0.13966 0
0 0.150526 0
0 0.160191 0
0 0.168656 0
0 0.175929 0
0 0.182019 0
0 0.186938 0
0 0.190702 0
0 0.193325 0
0 0.194826 0
0 0.195222 0
0 0.194529 0
0 0.192767 0
0 0.189952 0
0 0.186106 0
0 0.181249 0
0 0.175404 0
0 0.168598 0
0 0.160863 0
0 0.152237 0
0 0.142764 0
0 0.132497 0
0 0.121499 0
0 0.109845 0
0 0.0976208 0
0 0.084926 0
0 0.0718738 0
0 0.0585913 0
0 0.0452197 0
0 0.0319141 0
0 0.0188443 0
0 0.00619524 0
0 0.00941952 0
0 0.0277161 0
0 0.0449506 0
0 0.0611542 0
0 0.0763343 0
0 0.0904851 0
0 0.103594 0
0 0.115647 0
0 0.126632 0
0 0.136539 0
0 0.145361 0
0 0.153098 0
0 0.159751 0
0 0.165326 0
0 0.169832 0
0 0.173278 0
0 0.175678 0
0 0.177046 0
0 0.177396 0
0 0.176744 0
0 0.175107 0
0 0.172503 0
0 0.168951 0
0 0.164473 0
0 0.159093 0
0 0.152839 0
0 0.145743 0
0 0.137842 0
0 0.12918 0
0 0.11981 0
0 0.109792 0
0 0.0991954 0
0 0.0881004 0
0 0.0765979 0
0 0.0647905 0
0 0.0527919 0
0 0.0407276 0
0 0.028735 0
0 0.0169636 0
0 0.00557633 0
0 0.0085097 0
0 0.0250406 0
0 0.0406167 0
0 0.0552682 0
0 0.0690034 0
0 0.0818178 0
0 0.0937001 0
0 0.104637 0
0 0.114614 0
0 0.123622 0
0 0.131653 0
0 0.138702 0
0 0.144768 0
0 0.149855 0
0 0.153967 0
0 0.157111 0
0 0.159299 0
0 0.16054 0
0 0.160849 0
0 0.160239 0
0 0.158725 0
0 0.156326 0
0 0.15306 0
0 0.148949 0
0 0.144016 0
0 0.138289 0
0 0.131801 0
0 0.124589 0
0 0.116694 0
0 0.108168 0
0 0.0990655 0
0 0.0894532 0
0 0.0794045 0
0 0.0690021 0
0 0.0583385 0
0 0.0475154 0
0 0.0366446 0
0 0.0258475 0
0 0.0152562 0
0 0.00501464 0
0 0.00767383 0
0 0.0225822 0
0 0.0366329 0
0 0.0498551 0
0 0.0622573 0
0 0.073836 0
0 0.0845809 0
0 0.0944792 0
0 0.103518 0
0 0.111685 0
0 0.118973 0
0 0.125375 0
0 0.130888 0
0 0.135512 0
0 0.139252 0
0 0.142111 0
0 0.144097 0
0 0.14522 0
0 0.145492 0
0 0.144924 0
0 0.143531 0
0 0.14133 0
0 0.138339 0
0 0.134579 0
0 0.130074 0
0 0.12485 0
0 0.11894 0
0 0.112378 0
0 0.105205 0
0 0.0974693 0
0 0.0892228 0
0 0.080526 0
0 0.0714465 0
0 0.0620595 0
0 0.052448 0
0 0.0427029 0
0 0.0329236 0
0 0.0232177 0
0 0.013702 0
0 0.00450342 0
0 0.00690443 0
0 0.020319 0
0 0.0329644 0
0 0.0448683 0
0 0.0560392 0
0 0.0664743 0
0 0.0761645 0
0 0.0850975 0
0 0.0932607 0
0 0.100643 0
0 0.107234 0
0 0.113028 0
0 0.118021 0
0 0.122211 0
0 0.125598 0
0 0.128188 0
0 0.129985 0
0 0.130998 0
0 0.131235 0
0 0.130709 0
0 0.129434 0
0 0.127424 0
0 0.124696 0
0 0.121272 0
0 0.117174 0
0 0.112428 0
0 0.107064 0
0 0.101115 0
0 0.0946212 0
0 0.0876253 0
0 0.0801769 0
0 0.0723313 0
0 0.0641498 0
0 0.0557005 0
0 0.0470578 0
0 0.0383029 0
0 0.029524 0
0 0.0208164 0
0 0.0122832 0
0 0.00403686 0
0 0.00619481 0
0 0.0182313 0
0 0.0295797 0
0 0.0402657 0
0 0.0502977 0
0 0.0596734 0
0 0.0683846 0
0 0.07642 0
0 0.0837676 0
0 0.0904163 0
0 0.0963565 0
0 0.101581 0
0 0.106084 0
0 0.109865 0
0 0.112922 0
0 0.115258 0
0 0.116877 0
0 0.117786 0
0 0.117994 0
0 0.11751 0
0 0.116347 0
0 0.11452 0
0 0.112045 0
0 0.10894 0
0 0.105228 0
0 0.100934 0
0 0.0960855 0
0 0.0907144 0
0 0.0848568 0
0 0.0785532 0
0 0.071849 0
0 0.0647946 0
0 0.0574456 0
0 0.0498632 0
0 0.0421139 0
0 0.0342701 0
0 0.02641 0
0 0.0186178 0
0 0.0109847 0
0 0.00360989 0
0 0.00553896 0
0 0.0163017 0
0 0.0264506 0
0 0.0360093 0
0 0.0449861 0
0 0.053379 0
0 0.0611806 0
0 0.0683806 0
0 0.0749678 0
0 0.0809316 0
0 0.0862625 0
0 0.090953 0
0 0.0949978 0
0 0.0983937 0
0 0.10114 0
0 0.103238 0
0 0.10469 0
0 0.105503 0
0 0.105684 0
0 0.105241 0
0 0.104187 0
0 0.102535 0
0 0.100299 0
0 0.0974982 0
0 0.0941525 0
0 0.0902852 0
0 0.0859226 0
0 0.0810941 0
0 0.0758332 0
0 0.0701771 0
0 0.064167 0
0 0.0578486 0
0 0.051272 0
0 0.0444921 0
0 0.0375681 0
0 0.0305643 0
0 0.0235499 0
0 0.0165993 0
0 0.00979283 0
0 0.00321806 0
0 0.00493134 0
0 0.0145138 0
0 0.0235508 0
0 0.0320641 0
0 0.0400612 0
0 0.0475408 0
0 0.054496 0
0 0.0609177 0
0 0.0667954 0
0 0.072119 0
0 0.0768797 0
0 0.08107 0
0 0.0846845 0
0 0.0877196 0
0 0.0901739 0
0 0.0920479 0
0 0.0933444 0
0 0.0940677 0
0 0.0942242 0
0 0.0938224 0
0 0.0928724 0
0 0.0913864 0
0 0.0893787 0
0 0.0868657 0
0 0.0838664 0
0 0.0804021 0
0 0.0764972 0
0 0.0721788 0
0 0.0674774 0
0 0.0624268 0
0 0.0570645 0
0 0.0514315 0
0 0.0455727 0
0 0.039537 0
0 0.033377 0
0 0.0271495 0
0 0.0209155 0
0 0.0147407 0
0 0.00869564 0
0 0.00285739 0
0 0.00436691 0
0 0.0128528 0
0 0.0208566 0
0 0.0283978 0
0 0.0354833 0
0 0.0421121 0
0 0.0482783 0
0 0.0539735 0
0 0.059188 0
0 0.0639128 0
0 0.0681394 0
0 0.0718606 0
0 0.0750712 0
0 0.0777674 0
0 0.0799476 0
0 0.0816117 0
0 0.0827618 0
0 0.0834016 0
0 0.0835367 0
0 0.0831746 0
0 0.0823243 0
0 0.080997 0
0 0.0792056 0
0 0.0769654 0
0 0.0742936 0
0 0.0712097 0
0 0.067736 0
0 0.0638972 0
0 0.0597207 0
0 0.0552373 0
0 0.0504804 0
0 0.0454867 0
0 0.0402962 0
0 0.0349521 0
0 0.029501 0
0 0.0239929 0
0 0.0184813 0
0 0.0130238 0
0 0.0076823 0
0 0.00252432 0
0 0.00384094 0
0 0.011305 0
0 0.0183456 0
0 0.0249801 0
0 0.031215 0
0 0.0370494 0
0 0.0424781 0
0 0.0474935 0
0 0.0520871 0
0 0.0562504 0
0 0.0599758 0
0 0.0632565 0
0 0.0660875 0
0 0.0684652 0
0 0.0703875 0
0 0.0718544 0
0 0.0728673 0
0 0.0734293 0
0 0.0735452 0
0 0.0732217 0
0 0.0724668 0
0 0.0712906 0
0 0.0697048 0
0 0.0677232 0
0 0.0653612 0
0 0.0626367 0
0 0.0595696 0
0 0.0561821 0
0 0.0524991 0
0 0.0485476 0
0 0.0443576 0
0 0.0399616 0
0 0.0353949 0
0 0.0306954 0
0 0.0259041 0
0 0.0210647 0
0 0.0162239 0
0 0.011432 0
0 0.00674299 0
0 0.00221561 0
0 0.00334904 0
0 0.00985734 0
0 0.0159968 0
0 0.0217829 0
0 0.0272213 0
0 0.0323114 0
0 0.0370485 0
0 0.0414261 0
0 0.0454365 0
0 0.0490722 0
0 0.0523261 0
0 0.0551922 0
0 0.0576658 0
0 0.0597433 0
0 0.0614229 0
0 0.062704 0
0 0.0635879 0
0 0.0640772 0
0 0.064176 0
0 0.06389 0
0 0.0632265 0
0 0.0621943 0
0 0.060804 0
0 0.0590677 0
0 0.0569993 0
0 0.0546148 0
0 0.0519318 0
0 0.0489701 0
0 0.0457517 0
0 0.0423005 0
0 0.0386428 0
0 0.0348072 0
0 0.0308246 0
0 0.0267279 0
0 0.0225529 0
0 0.0183374 0
0 0.0141221 0
0 0.00995023 0
0 0.00586869 0
0 0.00192828 0
0 0.00288705 0
0 0.00849764 0
0 0.0137906 0
0 0.0187794 0
0 0.023469 0
0 0.0278589 0
0 0.0319452 0
0 0.0357221 0
0 0.0391829 0
0 0.042321 0
0 0.04513 0
0 0.0476047 0
0 0.0497406 0
0 0.0515346 0
0 0.0529848 0
0 0.0540906 0
0 0.054853 0
0 0.0552741 0
0 0.0553575 0
0 0.055108 0
0 0.054532 0
0 0.0536374 0
0 0.0524332 0
0 0.0509302 0
0 0.0491407 0
0 0.0470786 0
0 0.0447595 0
0 0.0422006 0
0 0.0394211 0
0 0.0364419 0
0 0.0332858 0
0 0.0299776 0
0 0.0265439 0
0 0.0230133 0
0 0.0194163 0
0 0.0157856 0
0 0.0121558 0
0 0.00856432 0
0 0.00505107 0
0 0.0016596 0
0 0.00245101 0
0 0.0072143 0
0 0.0117081 0
0 0.015944 0
0 0.0199264 0
0 0.0236547 0
0 0.0271257 0
0 0.0303343 0
0 0.0332749 0
0 0.0359418 0
0 0.0383293 0
0 0.0404329 0
0 0.0422487 0
0 0.0437738 0
0 0.0450065 0
0 0.0459463 0
0 0.0465938 0
0 0.0469507 0
0 0.0470201 0
0 0.0468061 0
0 0.0463143 0
0 0.0455512 0
0 0.0445249 0
0 0.0432445 0
0 0.0417207 0
0 0.0399654 0
0 0.0379921 0
0 0.0358156 0
0 0.0334524 0
0 0.0309203 0
0 0.0282389 0
0 0.0254292 0
0 0.0225139 0
0 0.0195172 0
0 0.0164651 0
0 0.0133852 0
0 0.0103067 0
0 0.00726115 0
0 0.00428233 0
0 0.001407 0
0 0.00203715 0
0 0.00599621 0
0 0.00973143 0
0 0.0132525 0
0 0.0165631 0
0 0.0196628 0
0 0.022549 0
0 0.0252173 0
0 0.0276631 0
0 0.0298814 0
0 0.0318677 0
0 0.0336179 0
0 0.0351287 0
0 0.0363977 0
0 0.0374233 0
0 0.038205 0
0 0.0387432 0
0 0.0390394 0
0 0.0390961 0
0 0.0389167 0
0 0.0385059 0
0 0.0378692 0
0 0.0370134 0
0 0.0359462 0
0 0.0346765 0
0 0.0332145 0
0 0.0315713 0
0 0.0297596 0
0 0.027793 0
0 0.0256866 0
0 0.0234566 0
0 0.0211206 0
0 0.0186975 0
0 0.0162074 0
0 0.0136718 0
0 0.0111136 0
0 0.00855711 0
0 0.0060283 0
0 0.00355515 0
0 0.00116806 0
0 0.00164185 0
0 0.00483269 0
0 0.00784322 0
0 0.0106813 0
0 0.0133499 0
0 0.0158487 0
0 0.0181756 0
0 0.0203271 0
0 0.0222994 0
0 0.0240884 0
0 0.0256904 0
0 0.0271021 0
0 0.0283208 0
0 0.0293443 0
0 0.0301716 0
0 0.0308019 0
0 0.0312357 0
0 0.0314741 0
0 0.0315191 0
0 0.0313736 0
0 0.0310412 0
0 0.0305264 0
0 0.0298348 0
0 0.0289727 0
0 0.0279474 0
0 0.026767 0
0 0.0254408 0
0 0.0239788 0
0 0.0223923 0
0 0.0206935 0
0 0.0188954 0
0 0.0170122 0
0 0.0150593 0
0 0.0130528 0
0 0.0110101 0
0 0.00894945 0
0 0.00689047 0
0 0.00485402 0
0 0.00286256 0
0 0.000940493 0
0 0.00126157 0
0 0.00371338 0
0 0.0060267 0
0 0.00820759 0
0 0.0102583 0
0 0.0121788 0
0 0.0139672 0
0 0.0156209 0
0 0.017137 0
0 0.0185123 0
0 0.019744 0
0 0.0208294 0
0 0.0217664 0
0 0.0225534 0
0 0.0231893 0
0 0.0236739 0
0 0.0240072 0
0 0.0241902 0
0 0.0242244 0
0 0.0241119 0
0 0.0238557 0
0 0.0234592 0
0 0.0229267 0
0 0.0222631 0
0 0.021474 0
0 0.0205658 0
0 0.0195456 0
0 0.0184212 0
0 0.0172012 0
0 0.0158951 0
0 0.014513 0
0 0.0130658 0
0 0.0115653 0
0 0.0100238 0
0 0.00845465 0
0 0.00687199 0
0 0.00529078 0
0 0.00372702 0
0 0.00219789 0
0 0.00072211 0
0 0.000892894 0
0 0.00262821 0
0 0.00426552 0
0 0.00580915 0
0 0.00726073 0
0 0.00862012 0
0 0.00988612 0
0 0.0110569 0
0 0.0121302 0
0 0.013104 0
0 0.013976 0
0 0.0147446 0
0 0.015408 0
0 0.0159653 0