# vtk DataFile Version 2.0
Presion
ASCII

DATASET STRUCTURED_GRID
DIMENSIONS   40   40   20

POINTS   32000   double
0.0125   0.0125   0.025
0.0375   0.0125   0.025
0.0625   0.0125   0.025
0.0875   0.0125   0.025
0.1125   0.0125   0.025
0.1375   0.0125   0.025
0.1625   0.0125   0.025
0.1875   0.0125   0.025
0.2125   0.0125   0.025
0.2375   0.0125   0.025
0.2625   0.0125   0.025
0.2875   0.0125   0.025
0.3125   0.0125   0.025
0.3375   0.0125   0.025
0.3625   0.0125   0.025
0.3875   0.0125   0.025
0.4125   0.0125   0.025
0.4375   0.0125   0.025
0.4625   0.0125   0.025
0.4875   0.0125   0.025
0.5125   0.0125   0.025
0.5375   0.0125   0.025
0.5625   0.0125   0.025
0.5875   0.0125   0.025
0.6125   0.0125   0.025
0.6375   0.0125   0.025
0.6625   0.0125   0.025
0.6875   0.0125   0.025
0.7125   0.0125   0.025
0.7375   0.0125   0.025
0.7625   0.0125   0.025
0.7875   0.0125   0.025
0.8125   0.0125   0.025
0.8375   0.0125   0.025
0.8625   0.0125   0.025
0.8875   0.0125   0.025
0.9125   0.0125   0.025
0.9375   0.0125   0.025
0.9625   0.0125   0.025
0.9875   0.0125   0.025
0.0125   0.0375   0.025
0.0375   0.0375   0.025
0.0625   0.0375   0.025
0.0875   0.0375   0.025
0.1125   0.0375   0.025
0.1375   0.0375   0.025
0.1625   0.0375   0.025
0.1875   0.0375   0.025
0.2125   0.0375   0.025
0.2375   0.0375   0.025
0.2625   0.0375   0.025
0.2875   0.0375   0.025
0.3125   0.0375   0.025
0.3375   0.0375   0.025
0.3625   0.0375   0.025
0.3875   0.0375   0.025
0.4125   0.0375   0.025
0.4375   0.0375   0.025
0.4625   0.0375   0.025
0.4875   0.0375   0.025
0.5125   0.0375   0.025
0.5375   0.0375   0.025
0.5625   0.0375   0.025
0.5875   0.0375   0.025
0.6125   0.0375   0.025
0.6375   0.0375   0.025
0.6625   0.0375   0.025
0.6875   0.0375   0.025
0.7125   0.0375   0.025
0.7375   0.0375   0.025
0.7625   0.0375   0.025
0.7875   0.0375   0.025
0.8125   0.0375   0.025
0.8375   0.0375   0.025
0.8625   0.0375   0.025
0.8875   0.0375   0.025
0.9125   0.0375   0.025
0.9375   0.0375   0.025
0.9625   0.0375   0.025
0.9875   0.0375   0.025
0.0125   0.0625   0.025
0.0375   0.0625   0.025
0.0625   0.0625   0.025
0.0875   0.0625   0.025
0.1125   0.0625   0.025
0.1375   0.0625   0.025
0.1625   0.0625   0.025
0.1875   0.0625   0.025
0.2125   0.0625   0.025
0.2375   0.0625   0.025
0.2625   0.0625   0.025
0.2875   0.0625   0.025
0.3125   0.0625   0.025
0.3375   0.0625   0.025
0.3625   0.0625   0.025
0.3875   0.0625   0.025
0.4125   0.0625   0.025
0.4375   0.0625   0.025
0.4625   0.0625   0.025
0.4875   0.0625   0.025
0.5125   0.0625   0.025
0.5375   0.0625   0.025
0.5625   0.0625   0.025
0.5875   0.0625   0.025
0.6125   0.0625   0.025
0.6375   0.0625   0.025
0.6625   0.0625   0.025
0.6875   0.0625   0.025
0.7125   0.0625   0.025
0.7375   0.0625   0.025
0.7625   0.0625   0.025
0.7875   0.0625   0.025
0.8125   0.0625   0.025
0.8375   0.0625   0.025
0.8625   0.0625   0.025
0.8875   0.0625   0.025
0.9125   0.0625   0.025
0.9375   0.0625   0.025
0.9625   0.0625   0.025
0.9875   0.0625   0.025
0.0125   0.0875   0.025
0.0375   0.0875   0.025
0.0625   0.0875   0.025
0.0875   0.0875   0.025
0.1125   0.0875   0.025
0.1375   0.0875   0.025
0.1625   0.0875   0.025
0.1875   0.0875   0.025
0.2125   0.0875   0.025
0.2375   0.0875   0.025
0.2625   0.0875   0.025
0.2875   0.0875   0.025
0.3125   0.0875   0.025
0.3375   0.0875   0.025
0.3625   0.0875   0.025
0.3875   0.0875   0.025
0.4125   0.0875   0.025
0.4375   0.0875   0.025
0.4625   0.0875   0.025
0.4875   0.0875   0.025
0.5125   0.0875   0.025
0.5375   0.0875   0.025
0.5625   0.0875   0.025
0.5875   0.0875   0.025
0.6125   0.0875   0.025
0.6375   0.0875   0.025
0.6625   0.0875   0.025
0.6875   0.0875   0.025
0.7125   0.0875   0.025
0.7375   0.0875   0.025
0.7625   0.0875   0.025
0.7875   0.0875   0.025
0.8125   0.0875   0.025
0.8375   0.0875   0.025
0.8625   0.0875   0.025
0.8875   0.0875   0.025
0.9125   0.0875   0.025
0.9375   0.0875   0.025
0.9625   0.0875   0.025
0.9875   0.0875   0.025
0.0125   0.1125   0.025
0.0375   0.1125   0.025
0.0625   0.1125   0.025
0.0875   0.1125   0.025
0.1125   0.1125   0.025
0.1375   0.1125   0.025
0.1625   0.1125   0.025
0.1875   0.1125   0.025
0.2125   0.1125   0.025
0.2375   0.1125   0.025
0.2625   0.1125   0.025
0.2875   0.1125   0.025
0.3125   0.1125   0.025
0.3375   0.1125   0.025
0.3625   0.1125   0.025
0.3875   0.1125   0.025
0.4125   0.1125   0.025
0.4375   0.1125   0.025
0.4625   0.1125   0.025
0.4875   0.1125   0.025
0.5125   0.1125   0.025
0.5375   0.1125   0.025
0.5625   0.1125   0.025
0.5875   0.1125   0.025
0.6125   0.1125   0.025
0.6375   0.1125   0.025
0.6625   0.1125   0.025
0.6875   0.1125   0.025
0.7125   0.1125   0.025
0.7375   0.1125   0.025
0.7625   0.1125   0.025
0.7875   0.1125   0.025
0.8125   0.1125   0.025
0.8375   0.1125   0.025
0.8625   0.1125   0.025
0.8875   0.1125   0.025
0.9125   0.1125   0.025
0.9375   0.1125   0.025
0.9625   0.1125   0.025
0.9875   0.1125   0.025
0.0125   0.1375   0.025
0.0375   0.1375   0.025
0.0625   0.1375   0.025
0.0875   0.1375   0.025
0.1125   0.1375   0.025
0.1375   0.1375   0.025
0.1625   0.1375   0.025
0.1875   0.1375   0.025
0.2125   0.1375   0.025
0.2375   0.1375   0.025
0.2625   0.1375   0.025
0.2875   0.1375   0.025
0.3125   0.1375   0.025
0.3375   0.1375   0.025
0.3625   0.1375   0.025
0.3875   0.1375   0.025
0.4125   0.1375   0.025
0.4375   0.1375   0.025
0.4625   0.1375   0.025
0.4875   0.1375   0.025
0.5125   0.1375   0.025
0.5375   0.1375   0.025
0.5625   0.1375   0.025
0.5875   0.1375   0.025
0.6125   0.1375   0.025
0.6375   0.1375   0.025
0.6625   0.1375   0.025
0.6875   0.1375   0.025
0.7125   0.1375   0.025
0.7375   0.1375   0.025
0.7625   0.1375   0.025
0.7875   0.1375   0.025
0.8125   0.1375   0.025
0.8375   0.1375   0.025
0.8625   0.1375   0.025
0.8875   0.1375   0.025
0.9125   0.1375   0.025
0.9375   0.1375   0.025
0.9625   0.1375   0.025
0.9875   0.1375   0.025
0.0125   0.1625   0.025
0.0375   0.1625   0.025
0.0625   0.1625   0.025
0.0875   0.1625   0.025
0.1125   0.1625   0.025
0.1375   0.1625   0.025
0.1625   0.1625   0.025
0.1875   0.1625   0.025
0.2125   0.1625   0.025
0.2375   0.1625   0.025
0.2625   0.1625   0.025
0.2875   0.1625   0.025
0.3125   0.1625   0.025
0.3375   0.1625   0.025
0.3625   0.1625   0.025
0.3875   0.1625   0.025
0.4125   0.1625   0.025
0.4375   0.1625   0.025
0.4625   0.1625   0.025
0.4875   0.1625   0.025
0.5125   0.1625   0.025
0.5375   0.1625   0.025
0.5625   0.1625   0.025
0.5875   0.1625   0.025
0.6125   0.1625   0.025
0.6375   0.1625   0.025
0.6625   0.1625   0.025
0.6875   0.1625   0.025
0.7125   0.1625   0.025
0.7375   0.1625   0.025
0.7625   0.1625   0.025
0.7875   0.1625   0.025
0.8125   0.1625   0.025
0.8375   0.1625   0.025
0.8625   0.1625   0.025
0.8875   0.1625   0.025
0.9125   0.1625   0.025
0.9375   0.1625   0.025
0.9625   0.1625   0.025
0.9875   0.1625   0.025
0.0125   0.1875   0.025
0.0375   0.1875   0.025
0.0625   0.1875   0.025
0.0875   0.1875   0.025
0.1125   0.1875   0.025
0.1375   0.1875   0.025
0.1625   0.1875   0.025
0.1875   0.1875   0.025
0.2125   0.1875   0.025
0.2375   0.1875   0.025
0.2625   0.1875   0.025
0.2875   0.1875   0.025
0.3125   0.1875   0.025
0.3375   0.1875   0.025
0.3625   0.1875   0.025
0.3875   0.1875   0.025
0.4125   0.1875   0.025
0.4375   0.1875   0.025
0.4625   0.1875   0.025
0.4875   0.1875   0.025
0.5125   0.1875   0.025
0.5375   0.1875   0.025
0.5625   0.1875   0.025
0.5875   0.1875   0.025
0.6125   0.1875   0.025
0.6375   0.1875   0.025
0.6625   0.1875   0.025
0.6875   0.1875   0.025
0.7125   0.1875   0.025
0.7375   0.1875   0.025
0.7625   0.1875   0.025
0.7875   0.1875   0.025
0.8125   0.1875   0.025
0.8375   0.1875   0.025
0.8625   0.1875   0.025
0.8875   0.1875   0.025
0.9125   0.1875   0.025
0.9375   0.1875   0.025
0.9625   0.1875   0.025
0.9875   0.1875   0.025
0.0125   0.2125   0.025
0.0375   0.2125   0.025
0.0625   0.2125   0.025
0.0875   0.2125   0.025
0.1125   0.2125   0.025
0.1375   0.2125   0.025
0.1625   0.2125   0.025
0.1875   0.2125   0.025
0.2125   0.2125   0.025
0.2375   0.2125   0.025
0.2625   0.2125   0.025
0.2875   0.2125   0.025
0.3125   0.2125   0.025
0.3375   0.2125   0.025
0.3625   0.2125   0.025
0.3875   0.2125   0.025
0.4125   0.2125   0.025
0.4375   0.2125   0.025
0.4625   0.2125   0.025
0.4875   0.2125   0.025
0.5125   0.2125   0.025
0.5375   0.2125   0.025
0.5625   0.2125   0.025
0.5875   0.2125   0.025
0.6125   0.2125   0.025
0.6375   0.2125   0.025
0.6625   0.2125   0.025
0.6875   0.2125   0.025
0.7125   0.2125   0.025
0.7375   0.2125   0.025
0.7625   0.2125   0.025
0.7875   0.2125   0.025
0.8125   0.2125   0.025
0.8375   0.2125   0.025
0.8625   0.2125   0.025
0.8875   0.2125   0.025
0.9125   0.2125   0.025
0.9375   0.2125   0.025
0.9625   0.2125   0.025
0.9875   0.2125   0.025
0.0125   0.2375   0.025
0.0375   0.2375   0.025
0.0625   0.2375   0.025
0.0875   0.2375   0.025
0.1125   0.2375   0.025
0.1375   0.2375   0.025
0.1625   0.2375   0.025
0.1875   0.2375   0.025
0.2125   0.2375   0.025
0.2375   0.2375   0.025
0.2625   0.2375   0.025
0.2875   0.2375   0.025
0.3125   0.2375   0.025
0.3375   0.2375   0.025
0.3625   0.2375   0.025
0.3875   0.2375   0.025
0.4125   0.2375   0.025
0.4375   0.2375   0.025
0.4625   0.2375   0.025
0.4875   0.2375   0.025
0.5125   0.2375   0.025
0.5375   0.2375   0.025
0.5625   0.2375   0.025
0.5875   0.2375   0.025
0.6125   0.2375   0.025
0.6375   0.2375   0.025
0.6625   0.2375   0.025
0.6875   0.2375   0.025
0.7125   0.2375   0.025
0.7375   0.2375   0.025
0.7625   0.2375   0.025
0.7875   0.2375   0.025
0.8125   0.2375   0.025
0.8375   0.2375   0.025
0.8625   0.2375   0.025
0.8875   0.2375   0.025
0.9125   0.2375   0.025
0.9375   0.2375   0.025
0.9625   0.2375   0.025
0.9875   0.2375   0.025
0.0125   0.2625   0.025
0.0375   0.2625   0.025
0.0625   0.2625   0.025
0.0875   0.2625   0.025
0.1125   0.2625   0.025
0.1375   0.2625   0.025
0.1625   0.2625   0.025
0.1875   0.2625   0.025
0.2125   0.2625   0.025
0.2375   0.2625   0.025
0.2625   0.2625   0.025
[...]
POINT_DATA   32000
SCALARS Presion double
LOOKUP_TABLE   Presion

0 0 0 0 0 0 0 0 0 0 0 0 0 0 0 0 0 0 0 0 0 0 0 0 0 0 0 0 0 0 0 0 0 0 0 0 0 0 0 0 -0.00201145 -0.00238925 -0.00303062 -0.00376443 -0.00451184 -0.00522176 -0.00585674 -0.00638899 -0.00679845 -0.00707126 -0.00719854 -0.00717535 -0.00700007 -0.00667406 -0.00620156 -0.00558971 -0.00484876 -0.00399216 -0.00303664 -0.0020021 -0.000911334 0.000210389 0.00133599 0.00243735 0.00348623 0.00445521 0.00531871 0.00605396 0.00664193 0.00706818 0.00732363 0.00740516 0.00731607 0.00706619 0.00667162 0.00615401 0.00553963 0.00486081 0.00417336 0.00366279 -0.00217989 -0.0023997 -0.00290246 -0.00354326 -0.00423081 -0.00490435 -0.00552134 -0.00605139 -0.00647282 -0.00677053 -0.00693442 -0.00695836 -0.00683949 -0.00657783 -0.00617612 -0.00563987 -0.00497747 -0.00420027 -0.00332266 -0.00236204 -0.00133858 -0.000274961 0.000804203 0.00187294 0.0029047 0.00387319 0.00475331 0.00552207 0.00615957 0.0066499 0.00698205 0.00715073 0.00715707 0.00700917 0.0067227 0.00632166 0.00584044 0.00533036 0.00487987 0.00467169 -0.00186051 -0.00214674 -0.00264445 -0.00326343 -0.00393071 -0.00459165 -0.00520624 -0.00574535 -0.00618794 -0.006519 -0.00672803 -0.00680807 -0.00675502 -0.00656731 -0.00624577 -0.0057937 -0.005217 -0.0045243 -0.00372715 -0.00284001 -0.00188025 -0.00086793 0.000174532 0.00122284 0.00225144 0.00323433 0.0041459 0.00496196 0.00566074 0.00622404 0.00663826 0.00689546 0.00699429 0.00694089 0.00674975 0.00644493 0.0060623 0.00565455 0.00530214 0.00513231 -0.00127033 -0.00170283 -0.00227409 -0.00292886 -0.00361524 -0.00429058 -0.00492192 -0.00548449 -0.00595984 -0.00633431 -0.00659776 -0.00674279 -0.00676416 -0.0066586 -0.00642475 -0.00606334 -0.00557736 -0.00497235 -0.00425665 -0.0034416 -0.00254162 -0.00157423 -0.000559855 0.000478519 0.00151585 0.00252578 0.00348149 0.0043568 0.00512736 0.00577186 0.0062734 0.00662073 0.00680936 0.00684268 0.00673285 0.00650187 0.00618312 0.00582403 0.00549046 0.0052704 -0.000550318 -0.00115206 -0.00183562 -0.0025637 -0.00330022 -0.00401442 -0.00468173 -0.00528314 -0.005804 -0.00623283 -0.00656046 -0.00677933 -0.00688324 -0.00686718 -0.0067275 -0.00646212 -0.00607092 -0.00555611 -0.00492263 -0.00417853 -0.00333524 -0.00240775 -0.00141458 -0.000377626 0.000678279 0.00172602 0.0027371 0.00368279 0.00453544 0.00526995 0.00586532 0.00630614 0.00658396 0.0066985 0.00665856 0.00648292 0.00620115 0.00585475 0.00549823 0.00519829 0.000202068 -0.000569499 -0.0013807 -0.00220288 -0.00301061 -0.00378283 -0.00450285 -0.00515758 -0.00573651 -0.00623074 -0.00663232 -0.0069338 -0.00712809 -0.00720852 -0.00716907 -0.00700483 -0.00671244 -0.00629063 -0.00574083 -0.0050677 -0.00427956 -0.0033888 -0.00241204 -0.00137007 -0.000287628 0.000807246 0.00188407 0.0029111 0.00385684 0.00469167 0.00538962 0.0059302 0.00630001 0.00649415 0.00651727 0.00638435 0.00612116 0.00576459 0.00536247 0.00497176 0.00091412 -1.89779e-05 -0.000960272 -0.00188562 -0.00277679 -0.00362029 -0.0044061 -0.0051265 -0.00577487 -0.00634486 -0.0068298 -0.0072224 -0.00751477 -0.0076986 -0.0077656 -0.00770796 -0.00751905 -0.00719408 -0.00673085 -0.00613048 -0.00539803 -0.00454311 -0.00358021 -0.00252891 -0.0014137 -0.000263552 0.000888914 0.00200866 0.0030598 0.00400742 0.00481971 0.00547002 0.00593888 0.00621575 0.00630035 0.00620351 0.0059476 0.00556652 0.00510516 0.0046177 0.00152778 0.000445033 -0.00062182 -0.00165168 -0.00263172 -0.00355439 -0.00441516 -0.00521084 -0.00593821 -0.00659316 -0.00717014 -0.007662 -0.00806006 -0.00835444 -0.00853457 -0.00858982 -0.00851029 -0.00828759 -0.00791577 -0.00739221 -0.00671846 -0.00590101 -0.00495191 -0.00388911 -0.00273661 -0.0015241 -0.000286299 0.00093824 0.00210876 0.00318435 0.00412627 0.00490054 0.00548034 0.00584829 0.00599825 0.00593647 0.0056822 0.00526768 0.00473754 0.00414734 0.0019943 0.00077531 -0.000408704 -0.00153952 -0.00260889 -0.00361421 -0.0045555 -0.00543328 -0.00624716 -0.00699483 -0.00767164 -0.00827045 -0.00878177 -0.00919418 -0.00949491 -0.00967054 -0.00970787 -0.00959485 -0.00932163 -0.00888156 -0.00827231 -0.0074968 -0.00656409 -0.00548999 -0.00429748 -0.00301659 -0.00168396 -0.000341722 0.000964094 0.00218577 0.0032766 0.00419381 0.00490176 0.00537476 0.00559957 0.00557716 0.00532365 0.00487047 0.00426373 0.003563 0.00227132 0.000930291 -0.000360263 -0.00158532 -0.00274099 -0.00382904 -0.00485333 -0.00581749 -0.00672334 -0.00756999 -0.00835343 -0.00906639 -0.00969854 -0.010237 -0.0106667 -0.0109716 -0.0111351 -0.0111415 -0.0109766 -0.0106296 -0.0100938 -0.00936779 -0.00845703 -0.00737446 -0.00614131 -0.00478736 -0.00335077 -0.00187719 -0.000418232 0.000970833 0.00223407 0.00331842 0.00417755 0.00477562 0.00509072 0.00511737 0.00486813 0.00437393 0.00368351 0.00286211 0.00232136 0.00087306 -0.000512032 -0.00182259 -0.0030591 -0.00422738 -0.00533471 -0.00638728 -0.0073887 -0.00833917 -0.00923506 -0.0100689 -0.0108294 -0.0115023 -0.0120704 -0.0125149 -0.0128159 -0.0129538 -0.0129099 -0.0126687 -0.0122185 -0.011553 -0.0106731 -0.00958789 -0.00831599 -0.00688608 -0.00533721 -0.00371825 -0.00208659 -0.000505729 0.000957906 0.00223915 0.00327885 0.00402872 0.00445602 0.00454719 0.00431022 0.00377537 0.00299458 0.00203984 0.00211106 0.000570814 -0.000895883 -0.00228187 -0.00359206 -0.00483621 -0.00602463 -0.00716576 -0.00826468 -0.00932242 -0.0103356 -0.0112964 -0.0121928 -0.013009 -0.0137258 -0.0143218 -0.0147735 -0.0150573 -0.0151499 -0.0150304 -0.0146814 -0.0140911 -0.0132546 -0.0121762 -0.0108706 -0.00936431 -0.00769632 -0.00591822 -0.00409306 -0.00229318 -0.000596738 0.000917022 0.00217357 0.00310939 0.0036781 0.00385567 0.00364392 0.00307176 0.0021944 0.00109129 0.00161102 -5.33207e-06 -0.00154004 -0.00299048 -0.00436603 -0.00568022 -0.00694621 -0.00817444 -0.00937126 -0.0105384 -0.0116726 -0.0127659 -0.0138054 -0.0147739 -0.0156505 -0.0164108 -0.0170281 -0.0174745 -0.0177216 -0.0177428 -0.0175144 -0.0170177 -0.0162413 -0.0151832 -0.0138528 -0.0122729 -0.0104815 -0.00853173 -0.00649195 -0.00444366 -0.00247794 -0.000690174 0.000826863 0.00199092 0.00273844 0.00303172 0.00286396 0.00226137 0.00128213 1.34211e-05 0.000795838 -0.000880296 -0.00246897 -0.00397226 -0.00540398 -0.00678125 -0.00811992 -0.00943225 -0.0107258 -0.012003 -0.0132608 -0.0144911 -0.0156803 -0.01681 -0.0178575 -0.0187959 -0.0195949 -0.0202222 -0.0206442 -0.0208279 -0.0207425 -0.0203617 -0.0196663 -0.0186464 -0.0173046 -0.0156585 -0.013743 -0.0116116 -0.00933709 -0.00701005 -0.00473535 -0.00262658 -0.000797971 0.000645433 0.00161837 0.0020652 0.00196711 0.00134543 0.000260468 -0.00119286 -0.000355571 -0.00207482 -0.00370317 -0.00524733 -0.00672533 -0.00815768 -0.00956275 -0.0109546 -0.012342 -0.0137282 -0.0151106 -0.0164809 -0.0178252 -0.0191242 -0.0203534 -0.0214834 -0.0224807 -0.0233082 -0.0239269 -0.024297 -0.0243799 -0.0241409 -0.0235514 -0.0225924 -0.0212579 -0.019558 -0.0175228 -0.0152041 -0.0126777 -0.0100423 -0.00741725 -0.00493602 -0.00273766 -0.000954707 0.00030037 0.000948395 0.000953858 0.000330037 -0.000862157 -0.00252043 -0.00185954 -0.0036052 -0.00525893 -0.00683176 -0.00834553 -0.00982385 -0.0112875 -0.0127524 -0.0142287 -0.0157206 -0.0172262 -0.0187375 -0.0202405 -0.0217152 -0.0231356 -0.0244699 -0.0256813 -0.0267282 -0.0275658 -0.0281472 -0.0284257 -0.0283568 -0.0279018 -0.027031 -0.0257277 -0.0239927 -0.0218485 -0.0193429 -0.0165524 -0.0135825 -0.0105662 -0.00765839 -0.00502616 -0.00283462 -0.00123002 -0.000322124 -0.000169518 -0.000771548 -0.00206911 -0.00395336 -0.00372724 -0.00548301 -0.00714817 -0.00873739 -0.0102758 -0.0117896 -0.0133021 -0.0148312 -0.0163886 -0.01798 -0.0196044 -0.0212548 -0.0229173 -0.0245713 -0.0261898 -0.0277389 -0.0291784 -0.0304624 -0.0315401 -0.0323574 -0.0328588 -0.0329897 -0.0327003 -0.0319486 -0.0307057 -0.0289606 -0.0267255 -0.0240413 -0.020982 -0.0176573 -0.0142126 -0.0108245 -0.00769045 -0.00501359 -0.00298142 -0.00174303 -0.00138849 -0.00193622 -0.00333263 -0.00546375 -0.00596434 -0.00771492 -0.00937832 -0.0109717 -0.0125227 -0.01406 -0.015609 -0.0171901 -0.0188172 -0.0204979 -0.0222331 -0.0240165 -0.0258352 -0.0276685 -0.0294884 -0.0312591 -0.0329374 -0.034473 -0.0358092 -0.0368847 -0.0376348 -0.0379948 -0.0379026 -0.0373032 -0.0361538 -0.0344294 -0.0321291 -0.0292835 -0.0259604 -0.02227 -0.0183672 -0.0144488 -0.0107447 -0.00750038 -0.00495285 -0.00330097 -0.00267711 -0.00312775 -0.0046103 -0.00700814 -0.00857077 -0.0103027 -0.0119524 -0.0135381 -0.0150886 -0.0166348 -0.0182047 -0.0198215 -0.0215023 -0.0232572 -0.0250895 -0.0269949 -0.0289615 -0.0309689 -0.0329884 -0.0349827 -0.0369055 -0.0387024 -0.0403109 -0.0416624 -0.0426835 -0.0432987 -0.0434336 -0.0430196 -0.0419985 -0.0403297 -0.0379969 -0.0350163 -0.0314455 -0.0273904 -0.0230109 -0.0185212 -0.0141826 -0.0102869 -0.00712864 -0.00496826 -0.00399409 -0.00429279 -0.00584094 -0.00852306 -0.0115408 -0.0132436 -0.0148697 -0.016436 -0.0179715 -0.019509 -0.0210795 -0.0227103 -0.0244225 -0.0262303 -0.0281401 -0.0301501 -0.0322501 -0.0344203 -0.0366317 -0.0388452 -0.041012 -0.0430734 -0.0449615 -0.0466006 -0.0479086 -0.0487994 -0.0491866 -0.0489875 -0.0481285 -0.0465516 -0.0442231 -0.0411419 -0.0373506 -0.0329454 -0.0280852 -0.0229961 -0.017968 -0.0133403 -0.00947186 -0.00669752 -0.00527796 -0.00535619 -0.00693963 -0.00991999 -0.0148636 -0.0165308 -0.0181259 -0.0196616 -0.0211656 -0.0226725 -0.0242177 -0.0258339 -0.027548 -0.0293797 -0.0313399 -0.03343 -0.0356418 -0.0379567 -0.0403451 -0.0427666 -0.0451695 -0.047491 -0.049658 -0.0515878 -0.05319 -0.0543686 -0.0550254 -0.0550639 -0.0543951 -0.0529436 -0.0506566 -0.0475135 -0.0435379 -0.0388105 -0.0334818 -0.0277823 -0.0220246 -0.0165933 -0.0119161 -0.00841479 -0.00644112 -0.0062152 -0.00779189 -0.0110793 -0.0185235 -0.0201548 -0.021715 -0.0232092 -0.0246622 -0.026111 -0.0275973 -0.0291617 -0.0308396 -0.0326576 -0.0346327 -0.0367705 -0.0390653 -0.0414993 -0.0440428 -0.0466535 -0.0492768 -0.0518459 -0.0542821 -0.0564963 -0.0583899 -0.0598576 -0.0607901 -0.0610783 -0.060618 -0.0593173 -0.0571041 -0.0539368 -0.049817 -0.0448048 -0.0390351 -0.0327332 -0.0262248 -0.0199334 -0.014356 -0.0100114 -0.00736269 -0.00673279 -0.00824687 -0.0118432 -0.0225021 -0.0241048 -0.025631 -0.0270728 -0.028451 -0.0298067 -0.0311909 -0.0326561 -0.034249 -0.0360063 -0.0379522 -0.0400974 -0.0424389 -0.0449599 -0.0476297 -0.0504039 -0.0532246 -0.0560203 -0.058707 -0.0611889 -0.0633598 -0.0651056 -0.0663067 -0.0668423 -0.0665949 -0.0654567 -0.0633375 -0.0601751 -0.055948 -0.0506917 -0.0445187 -0.0376392 -0.03038 -0.023192 -0.0166363 -0.0113342 -0.00788007 -0.00672969 -0.00810928 -0.0120078 -0.0267799 -0.028372 -0.0298701 -0.0312478 -0.0325212 -0.0337385 -0.0349656 -0.0362719 -0.0377199 -0.0393592 -0.0412231 -0.0433282 -0.045674 -0.0482439 -0.0510057 -0.0539121 -0.0569006 -0.059895 -0.0628052 -0.0655286 -0.0679514 -0.0699511 -0.0713989 -0.0721632 -0.0721146 -0.0711317 -0.0691082 -0.0659629 -0.0616518 -0.056185 -0.0496476 -0.0422258 -0.0342337 -0.0261344 -0.0185405 -0.0121749 -0.00777907 -0.00597505 -0.00712999 -0.0113134 -0.0313397 -0.0329527 -0.034435 -0.0357345 -0.0368634 -0.0378836 -0.0388836 -0.039957 -0.0411879 -0.0426421 -0.0443638 -0.0463754 -0.0486785 -0.0512557 -0.0540718 -0.0570751 -0.0601978 -0.0633576 -0.0664574 -0.0693876 -0.0720267 -0.0742437 -0.0759009 -0.0768574 -0.0769733 -0.0761154 -0.0741641 -0.0710222 -0.0666263 -0.0609625 -0.0540876 -0.0461569 -0.0374596 -0.0284526 -0.019781 -0.0122586 -0.00678264 -0.00417545 -0.00499469 -0.00943325 -0.0361712 -0.0378549 -0.0393396 -0.0405408 -0.0414714 -0.0422175 -0.042902 -0.0436528 -0.044582 -0.0457752 -0.0472887 -0.0491502 -0.051362 -0.0539039 -0.0567359 -0.0597999 -0.0630213 -0.06631 -0.0695613 -0.0726574 -0.0754684 -0.077855 -0.0796706 -0.0807653 -0.0809898 -0.0802011 -0.078269 -0.0750839 -0.0705676 -0.0646865 -0.0574717 -0.0490465 -0.0396658 -0.0297624 -0.0199898 -0.0112314 -0.00453809 -0.000961782 -0.00130998 -0.00595912 -0.0412795 -0.0431063 -0.0446165 -0.0456877 -0.0463443 -0.0467146 -0.0469729 -0.0472939 -0.0478253 -0.0486754 -0.0499122 -0.0515674 -0.0536411 -0.0561077 -0.0589197 -0.0620102 -0.0652957 -0.0686767 -0.0720393 -0.0752564 -0.0781891 -0.0806887 -0.0825996 -0.0837626 -0.0840196 -0.0832187 -0.0812211 -0.0779086 -0.0731928 -0.0670274 -0.0594242 -0.0504784 -0.0404079 -0.0296078 -0.0187142 -0.00865013 -0.000602673 0.0041268 0.00441457 -0.000383082 -0.0466968 -0.0487684 -0.0503277 -0.0512146 -0.0514885 -0.0513481 -0.051043 -0.0508096 -0.0508377 -0.0512597 -0.0521535 -0.0535508 -0.0554457 -0.0578034 -0.0605652 -0.0636529 -0.0669714 -0.07041 -0.0738441 -0.077136 -0.0801363 -0.0826862 -0.0846199 -0.0857685 -0.0859642 -0.0850463 -0.0828684 -0.0793056 -0.074264 -0.0676911 -0.0595885 -0.0500331 -0.0392109 -0.0274735 -0.0154183 -0.00397258 0.00557264 0.0116633 0.0127907 0.00792883 -0.0525049 -0.0549586 -0.0565798 -0.0571877 -0.0569199 -0.0560902 -0.0550538 -0.0541245 -0.0535387 -0.0534505 -0.0539424 -0.05504 -0.0567257 -0.0589504 -0.0616405 -0.064703 -0.0680289 -0.0714944 -0.0749623 -0.0782828 -0.0812951 -0.0838289 -0.0857069 -0.0867489 -0.0867762 -0.0856181 -0.0831192 -0.0791485 -0.0736085 -0.0664454 -0.0576601 -0.0473233 -0.035602 -0.0228098 -0.00949417 0.00344658 0.014661 0.0223603 0.0245864 0.0197762 -0.0588732 -0.0618858 -0.0635485 -0.0637099 -0.0626667 -0.0609116 -0.0589422 -0.0571622 -0.0558528 -0.0551819 -0.0552266 -0.0559973 -0.0574574 -0.0595373 -0.0621442 -0.0651673 -0.0684811 -0.071947 -0.0754136 -0.0787182 -0.0816869 -0.0841366 -0.0858773 -0.0867155 -0.0864596 -0.0849262 -0.0819485 -0.0773864 -0.0711372 -0.0631472 -0.0534217 -0.0420367 -0.0291568 -0.0150737 -0.000288286 0.0143511 0.0274783 0.037107 0.0407796 0.0361887 -0.0661287 -0.0699115 -0.0715125 -0.0709349 -0.0687714 -0.0657823 -0.0626432 -0.0598502 -0.0577167 -0.0564076 -0.0559791 -0.0564143 -0.057648 -0.0595844 -0.0621068 -0.0650837 -0.0683714 -0.0718148 -0.0752477 -0.0784931 -0.0813636 -0.083662 -0.0851841 -0.0857215 -0.085067 -0.083021 -0.0794011 -0.0740527 -0.0668621 -0.0577699 -0.0467838 -0.0339896 -0.0195626 -0.00379329 0.012846 0.0295587 0.0449968 0.0570217 0.0626437 0.0585389 -0.0748852 -0.0796507 -0.0809051 -0.0790812 -0.0752919 -0.070671 -0.0660925 -0.0621256 -0.059086 -0.0571071 -0.0562029 -0.0563138 -0.0573364 -0.0591421 -0.0615868 -0.0645163 -0.0677671 -0.0711674 -0.0745357 -0.0776805 -0.0804002 -0.0824833 -0.0837102 -0.0838563 -0.0826961 -0.0800107 -0.0755962 -0.0692759 -0.0609146 -0.0504347 -0.037833 -0.0231949 -0.00670579 0.0113323 0.0304536 0.0498967 0.0683395 0.0835195 0.0918865 0.0887451 -0.0862945 -0.0921422 -0.0923789 -0.08844 -0.0822927 -0.075538 -0.0692239 -0.063935 -0.0599343 -0.0572832 -0.0559259 -0.0557431 -0.0565833 -0.0582798 -0.0606588 -0.063542 -0.0667468 -0.0700843 -0.0733584 -0.0763638 -0.0788849 -0.0806961 -0.0815625 -0.0812421 -0.0794901 -0.0760646 -0.0707351 -0.0632938 -0.0535703 -0.0414493 -0.0268903 -0.00994835 0.00920834 0.0302822 0.0528118 0.0760584 0.0987153 0.118383 0.130876 0.129651 -0.102552 -0.109124 -0.106867 -0.0993488 -0.0898035 -0.0802995 -0.07194 -0.0652078 -0.0602284 -0.0569367 -0.0551752 -0.0547473 -0.0554451 -0.0570603 -0.0593887 -0.0622288 -0.0653794 -0.0686369 -0.0717914 -0.0746254 -0.0769108 -0.0784091 -0.0788708 -0.0780375 -0.0756444 -0.071425 -0.0651181 -0.0564768 -0.045281 -0.0313533 -0.0145797 0.00506724 0.0275017 0.052499 0.0796611 0.108317 0.137208 0.163775 0.182987 0.185731 -0.127972 -0.133435 -0.125558 -0.112049 -0.097676 -0.0847045 -0.0740079 -0.0657681 -0.0598516 -0.055999 -0.0539166 -0.0533156 -0.0539257 -0.0554971 -0.0577968 -0.0606026 -0.0636982 -0.0668672 -0.0698893 -0.0725368 -0.0745718 -0.075745 -0.0757949 -0.0744486 -0.0714228 -0.0664273 -0.0591687 -0.0493559 -0.0367078 -0.020963 -0.00189325 0.020678 0.04685 0.0766117 0.109799 0.146003 0.184248 0.221989 0.253042 0.264381 -0.171442 -0.169429 -0.149515 -0.126206 -0.105158 -0.0879939 -0.0748001 -0.065139 -0.058453 -0.0542124 -0.0519575 -0.0512994 -0.0519079 -0.0534967 -0.0558099 -0.0586105 -0.0616715 -0.0647685 -0.0676745 -0.0701552 -0.0719664 -0.0728515 -0.0725406 -0.0707498 -0.0671815 -0.0615252 -0.0534578 -0.0426453 -0.028742 -0.0113903 0.00978143 0.0351603 0.0651477 0.100149 0.140551 0.186663 0.238471 0.294437 0.347574 0.378279 -0.25226 -0.222583 -0.178101 -0.139422 -0.10979 -0.0881802 -0.0728473 -0.0622599 -0.0552573 -0.0509915 -0.0488385 -0.0483266 -0.0490841 -0.0508039 -0.0532199 -0.0560899 -0.0591839 -0.0622757 -0.0651364 -0.0675302 -0.0692107 -0.0699187 -0.0693804 -0.0673061 -0.0633894 -0.0573061 -0.0487114 -0.0372365 -0.0224805 -0.00399714 0.0187278 0.0463125 0.0795328 0.119398 0.167251 0.224882 0.294634 0.378751 0.473551 0.550044 -0.413207 -0.294632 -0.202849 -0.143112 -0.105341 -0.0811767 -0.0654938 -0.0553391 -0.048983 -0.0453631 -0.0437849 -0.0437612 -0.0449253 -0.0469806 -0.0496716 -0.0527655 -0.0560398 -0.0592744 -0.0622451 -0.06472 -0.0664556 -0.0671951 -0.0666657 -0.0645781 -0.060624 -0.0544739 -0.0457733 -0.034135 -0.0191261 -0.000244968 0.0231188 0.051754 0.0867487 0.129704 0.183112 0.251026 0.340228 0.462014 0.630244 0.82327 -0.752811 -0.345312 -0.186289 -0.11654 -0.0812924 -0.0614267 -0.0495008 -0.0422546 -0.0380884 -0.0361227 -0.0358142 -0.036787 -0.0387527 -0.0414694 -0.0447204 -0.0483007 -0.0520082 -0.0556383 -0.0589794 -0.0618092 -0.0638929 -0.0649806 -0.0648062 -0.0630859 -0.0595164 -0.0537728 -0.0455042 -0.0343265 -0.0198081 -0.00144672 0.0213736 0.0494588 0.0839479 0.126595 0.180381 0.250949 0.350261 0.505464 0.774768 1.27438 0 0 0 0 0 0 0 0 0 0 0 0 0 0 0 0 0 0 0 0 0 0 0 0 0 0 0 0 0 0 0 0 0 0 0 0 0 0 0 0 -0.00204703 -0.00241013 -0.00293701 -0.00348817 -0.00401276 -0.00448189 -0.00487497 -0.00517668 -0.00537603 -0.00546566 -0.00544129 -0.0053013 -0.00504649 -0.00467996 -0.00420716 -0.00363602 -0.00297704 -0.00224338 -0.00145077 -0.000617383 0.000236577 0.00108937 0.00191842 0.00270109 0.00341556 0.00404176 0.00456221 0.0049629 0.00523394 0.00537021 0.00537172 0.00524383 0.00499727 0.00464783 0.0042158 0.0037251 0.00320267 0.00267983 0.00220495 0.00190923 -0.00234983 -0.00254391 -0.00291803 -0.00335444 -0.00378976 -0.00418709 -0.00452277 -0.00478073 -0.0049499 -0.00502293 -0.00499532 -0.00486503 -0.00463222 -0.0042992 -0.00387046 -0.00335281 -0.00275549 -0.0020902 -0.0013711 -0.00061461 0.000160897 0.00093557 0.0016887 0.00239946 0.00304775 0.00361504 0.00408528 0.00444567 0.00468746 0.00480645 0.00480345 0.00468444 0.00446058 0.00414804 0.00376773 0.00334532 0.00291238 0.00251048 0.00220334 0.00210424 -0.00227453 -0.00249784 -0.0028354 -0.00321959 -0.00360249 -0.00395238 -0.00424822 -0.00447581 -0.00462546 -0.00469063 -0.00466713 -0.0045527 -0.00434686 -0.00405093 -0.0036681 -0.00320366 -0.00266514 -0.00206242 -0.00140779 -0.000715807 -3.11924e-06 0.000711974 0.00141005 0.00207127 0.00267619 0.00320666 0.00364679 0.00398381 0.00420894 0.00431804 0.00431211 0.00419744 0.00398568 0.00369356 0.0033427 0.00295955 0.00257617 0.00223247 0.0019804 0.00188712 -0.00201837 -0.00233896 -0.00270597 -0.00308616 -0.00345045 -0.00377731 -0.00405177 -0.00426357 -0.00440557 -0.00447279 -0.00446171 -0.00437004 -0.00419665 -0.00394169 -0.00360685 -0.00319557 -0.00271338 -0.00216808 -0.00156989 -0.000931504 -0.000267932 0.000403763 0.00106496 0.00169612 0.00227764 0.00279081 0.00321888 0.00354808 0.00376869 0.0038758 0.00386993 0.00375727 0.00354968 0.00326429 0.00292301 0.00255202 0.00218146 0.00184542 0.00158142 0.00142675 -0.00170036 -0.00213836 -0.00256727 -0.0029743 -0.00334573 -0.00367055 -0.00394092 -0.00415141 -0.00429811 -0.00437798 -0.0043884 -0.0043271 -0.00419227 -0.00398278 -0.00369858 -0.00334108 -0.00291357 -0.00242156 -0.00187312 -0.00127901 -0.000652729 -1.0308e-05 0.000630048 0.0012486 0.00182493 0.00233898 0.00277229 0.00310923 0.00333819 0.00345268 0.00345203 0.00334176 0.00313347 0.00284437 0.00249636 0.00211492 0.00172791 0.00136412 0.00105116 0.000811479 -0.00139885 -0.0019565 -0.00246112 -0.00291257 -0.00330878 -0.00364796 -0.00392913 -0.00415177 -0.00431529 -0.00441866 -0.00446016 -0.0044375 -0.00434809 -0.00418937 -0.0039594 -0.00365735 -0.00328408