# vtk DataFile Version 2.0
Velocidades
ASCII

DATASET STRUCTURED_GRID
DIMENSIONS   40   40   20

POINTS   32000   double
0.0125   0.0125   0.025
0.0125   0.0375   0.025
0.0125   0.0625   0.025
0.0125   0.0875   0.025
0.0125   0.1125   0.025
0.0125   0.1375   0.025
0.0125   0.1625   0.025
0.0125   0.1875   0.025
0.0125   0.2125   0.025
0.0125   0.2375   0.025
0.0125   0.2625   0.025
0.0125   0.2875   0.025
0.0125   0.3125   0.025
0.0125   0.3375   0.025
0.0125   0.3625   0.025
0.0125   0.3875   0.025
0.0125   0.4125   0.025
0.0125   0.4375   0.025
0.0125   0.4625   0.025
0.0125   0.4875   0.025
0.0125   0.5125   0.025
0.0125   0.5375   0.025
0.0125   0.5625   0.025
0.0125   0.5875   0.025
0.0125   0.6125   0.025
0.0125   0.6375   0.025
0.0125   0.6625   0.025
0.0125   0.6875   0.025
0.0125   0.7125   0.025
0.0125   0.7375   0.025
0.0125   0.7625   0.025
0.0125   0.7875   0.025
0.0125   0.8125   0.025
0.0125   0.8375   0.025
0.0125   0.8625   0.025
0.0125   0.8875   0.025
0.0125   0.9125   0.025
0.0125   0.9375   0.025
0.0125   0.9625   0.025
0.0125   0.9875   0.025
0.0375   0.0125   0.025
0.0375   0.0375   0.025
0.0375   0.0625   0.025
0.0375   0.0875   0.025
0.0375   0.1125   0.025
0.0375   0.1375   0.025
0.0375   0.1625   0.025
0.0375   0.1875   0.025
0.0375   0.2125   0.025
0.0375   0.2375   0.025
0.0375   0.2625   0.025
0.0375   0.2875   0.025
0.0375   0.3125   0.025
0.0375   0.3375   0.025
0.0375   0.3625   0.025
0.0375   0.3875   0.025
0.0375   0.4125   0.025
0.0375   0.4375   0.025
0.0375   0.4625   0.025
0.0375   0.4875   0.025
0.0375   0.5125   0.025
0.0375   0.5375   0.025
0.0375   0.5625   0.025
0.0375   0.5875   0.025
0.0375   0.6125   0.025
0.0375   0.6375   0.025
0.0375   0.6625   0.025
0.0375   0.6875   0.025
0.0375   0.7125   0.025
0.0375   0.7375   0.025
0.0375   0.7625   0.025
0.0375   0.7875   0.025
0.0375   0.8125   0.025
0.0375   0.8375   0.025
0.0375   0.8625   0.025
0.0375   0.8875   0.025
0.0375   0.9125   0.025
0.0375   0.9375   0.025
0.0375   0.9625   0.025
0.0375   0.9875   0.025
0.0625   0.0125   0.025
0.0625   0.0375   0.025
0.0625   0.0625   0.025
0.0625   0.0875   0.025
0.0625   0.1125   0.025
0.0625   0.1375   0.025
0.0625   0.1625   0.025
0.0625   0.1875   0.025
0.0625   0.2125   0.025
0.0625   0.2375   0.025
0.0625   0.2625   0.025
0.0625   0.2875   0.025
0.0625   0.3125   0.025
0.0625   0.3375   0.025
0.0625   0.3625   0.025
0.0625   0.3875   0.025
0.0625   0.4125   0.025
0.0625   0.4375   0.025
0.0625   0.4625   0.025
0.0625   0.4875   0.025
0.0625   0.5125   0.025
0.0625   0.5375   0.025
0.0625   0.5625   0.025
0.0625   0.5875   0.025
0.0625   0.6125   0.025
0.0625   0.6375   0.025
0.0625   0.6625   0.025
0.0625   0.6875   0.025
0.0625   0.7125   0.025
0.0625   0.7375   0.025
0.0625   0.7625   0.025
0.0625   0.7875   0.025
0.0625   0.8125   0.025
0.0625   0.8375   0.025
0.0625   0.8625   0.025
0.0625   0.8875   0.025
0.0625   0.9125   0.025
0.0625   0.9375   0.025
0.0625   0.9625   0.025
0.0625   0.9875   0.025
0.0875   0.0125   0.025
0.0875   0.0375   0.025
0.0875   0.0625   0.025
0.0875   0.0875   0.025
0.0875   0.1125   0.025
0.0875   0.1375   0.025
0.0875   0.1625   0.025
0.0875   0.1875   0.025
0.0875   0.2125   0.025
0.0875   0.2375   0.025
0.0875   0.2625   0.025
0.0875   0.2875   0.025
0.0875   0.3125   0.025
0.0875   0.3375   0.025
0.0875   0.3625   0.025
0.0875   0.3875   0.025
0.0875   0.4125   0.025
0.0875   0.4375   0.025
0.0875   0.4625   0.025
0.0875   0.4875   0.025
0.0875   0.5125   0.025
0.0875   0.5375   0.025
0.0875   0.5625   0.025
0.0875   0.5875   0.025
0.0875   0.6125   0.025
0.0875   0.6375   0.025
0.0875   0.6625   0.025
0.0875   0.6875   0.025
0.0875   0.7125   0.025
0.0875   0.7375   0.025
0.0875   0.7625   0.025
0.0875   0.7875   0.025
0.0875   0.8125   0.025
0.0875   0.8375   0.025
0.0875   0.8625   0.025
0.0875   0.8875   0.025
0.0875   0.9125   0.025
0.0875   0.9375   0.025
0.0875   0.9625   0.025
0.0875   0.9875   0.025
0.1125   0.0125   0.025
0.1125   0.0375   0.025
0.1125   0.0625   0.025
0.1125   0.0875   0.025
0.1125   0.1125   0.025
0.1125   0.1375   0.025
0.1125   0.1625   0.025
0.1125   0.1875   0.025
0.1125   0.2125   0.025
0.1125   0.2375   0.025
0.1125   0.2625   0.025
0.1125   0.2875   0.025
0.1125   0.3125   0.025
0.1125   0.3375   0.025
0.1125   0.3625   0.025
0.1125   0.3875   0.025
0.1125   0.4125   0.025
0.1125   0.4375   0.025
0.1125   0.4625   0.025
0.1125   0.4875   0.025
0.1125   0.5125   0.025
0.1125   0.5375   0.025
0.1125   0.5625   0.025
0.1125   0.5875   0.025
0.1125   0.6125   0.025
0.1125   0.6375   0.025
0.1125   0.6625   0.025
0.1125   0.6875   0.025
0.1125   0.7125   0.025
0.1125   0.7375   0.025
0.1125   0.7625   0.025
0.1125   0.7875   0.025
0.1125   0.8125   0.025
0.1125   0.8375   0.025
0.1125   0.8625   0.025
0.1125   0.8875   0.025
0.1125   0.9125   0.025
0.1125   0.9375   0.025
0.1125   0.9625   0.025
0.1125   0.9875   0.025
0.1375   0.0125   0.025
0.1375   0.0375   0.025
0.1375   0.0625   0.025
0.1375   0.0875   0.025
0.1375   0.1125   0.025
0.1375   0.1375   0.025
0.1375   0.1625   0.025
0.1375   0.1875   0.025
0.1375   0.2125   0.025
0.1375   0.2375   0.025
0.1375   0.2625   0.025
0.1375   0.2875   0.025
0.1375   0.3125   0.025
0.1375   0.3375   0.025
0.1375   0.3625   0.025
0.1375   0.3875   0.025
0.1375   0.4125   0.025
0.1375   0.4375   0.025
0.1375   0.4625   0.025
0.1375   0.4875   0.025
0.1375   0.5125   0.025
0.1375   0.5375   0.025
0.1375   0.5625   0.025
0.1375   0.5875   0.025
0.1375   0.6125   0.025
0.1375   0.6375   0.025
0.1375   0.6625   0.025
0.1375   0.6875   0.025
0.1375   0.7125   0.025
0.1375   0.7375   0.025
0.1375   0.7625   0.025
0.1375   0.7875   0.025
0.1375   0.8125   0.025
0.1375   0.8375   0.025
0.1375   0.8625   0.025
0.1375   0.8875   0.025
0.1375   0.9125   0.025
0.1375   0.9375   0.025
0.1375   0.9625   0.025
0.1375   0.9875   0.025
0.1625   0.0125   0.025
0.1625   0.0375   0.025
0.1625   0.0625   0.025
0.1625   0.0875   0.025
0.1625   0.1125   0.025
0.1625   0.1375   0.025
0.1625   0.1625   0.025
0.1625   0.1875   0.025
0.1625   0.2125   0.025
0.1625   0.2375   0.025
0.1625   0.2625   0.025
0.1625   0.2875   0.025
0.1625   0.3125   0.025
0.1625   0.3375   0.025
0.1625   0.3625   0.025
0.1625   0.3875   0.025
0.1625   0.4125   0.025
0.1625   0.4375   0.025
0.1625   0.4625   0.025
0.1625   0.4875   0.025
0.1625   0.5125   0.025
0.1625   0.5375   0.025
0.1625   0.5625   0.025
0.1625   0.5875   0.025
0.1625   0.6125   0.025
0.1625   0.6375   0.025
0.1625   0.6625   0.025
0.1625   0.6875   0.025
0.1625   0.7125   0.025
0.1625   0.7375   0.025
0.1625   0.7625   0.025
0.1625   0.7875   0.025
0.1625   0.8125   0.025
0.1625   0.8375   0.025
0.1625   0.8625   0.025
0.1625   0.8875   0.025
0.1625   0.9125   0.025
0.1625   0.9375   0.025
0.1625   0.9625   0.025
0.1625   0.9875   0.025
0.1875   0.0125   0.025
0.1875   0.0375   0.025
0.1875   0.0625   0.025
0.1875   0.0875   0.025
0.1875   0.1125   0.025
0.1875   0.1375   0.025
0.1875   0.1625   0.025
0.1875   0.1875   0.025
0.1875   0.2125   0.025
0.1875   0.2375   0.025
0.1875   0.2625   0.025
0.1875   0.2875   0.025
0.1875   0.3125   0.025
0.1875   0.3375   0.025
0.1875   0.3625   0.025
0.1875   0.3875   0.025
0.1875   0.4125   0.025
0.1875   0.4375   0.025
0.1875   0.4625   0.025
0.1875   0.4875   0.025
0.1875   0.5125   0.025
0.1875   0.5375   0.025
0.1875   0.5625   0.025
0.1875   0.5875   0.025
0.1875   0.6125   0.025
0.1875   0.6375   0.025
0.1875   0.6625   0.025
0.1875   0.6875   0.025
0.1875   0.7125   0.025
0.1875   0.7375   0.025
0.1875   0.7625   0.025
0.1875   0.7875   0.025
0.1875   0.8125   0.025
0.1875   0.8375   0.025
0.1875   0.8625   0.025
0.1875   0.8875   0.025
0.1875   0.9125   0.025
0.1875   0.9375   0.025
0.1875   0.9625   0.025
0.1875   0.9875   0.025
0.2125   0.0125   0.025
0.2125   0.0375   0.025
0.2125   0.0625   0.025
0.2125   0.0875   0.025
0.2125   0.1125   0.025
0.2125   0.1375   0.025
0.2125   0.1625   0.025
0.2125   0.1875   0.025
0.2125   0.2125   0.025
0.2125   0.2375   0.025
0.2125   0.2625   0.025
0.2125   0.2875   0.025
0.2125   0.3125   0.025
0.2125   0.3375   0.025
0.2125   0.3625   0.025
0.2125   0.3875   0.025
0.2125   0.4125   0.025
0.2125   0.4375   0.025
0.2125   0.4625   0.025
0.2125   0.4875   0.025
0.2125   0.5125   0.025
0.2125   0.5375   0.025
0.2125   0.5625   0.025
0.2125   0.5875   0.025
0.2125   0.6125   0.025
0.2125   0.6375   0.025
0.2125   0.6625   0.025
0.2125   0.6875   0.025
0.2125   0.7125   0.025
0.2125   0.7375   0.025
0.2125   0.7625   0.025
0.2125   0.7875   0.025
0.2125   0.8125   0.025
0.2125   0.8375   0.025
0.2125   0.8625   0.025
0.2125   0.8875   0.025
0.2125   0.9125   0.025
0.2125   0.9375   0.025
0.2125   0.9625   0.025
0.2125   0.9875   0.025
0.2375   0.0125   0.025
0.2375   0.0375   0.025
0.2375   0.0625   0.025
0.2375   0.0875   0.025
0.2375   0.1125   0.025
0.2375   0.1375   0.025
0.2375   0.1625   0.025
0.2375   0.1875   0.025
0.2375   0.2125   0.025
0.2375   0.2375   0.025
0.2375   0.2625   0.025
0.2375   0.2875   0.025
0.2375   0.3125   0.025
0.2375   0.3375   0.025
0.2375   0.3625   0.025
0.2375   0.3875   0.025
0.2375   0.4125   0.025
0.2375   0.4375   0.025
0.2375   0.4625   0.025
0.2375   0.4875   0.025
0.2375   0.5125   0.025
0.2375   0.5375   0.025
0.2375   0.5625   0.025
0.2375   0.5875   0.025
0.2375   0.6125   0.025
0.2375   0.6375   0.025
0.2375   0.6625   0.025
0.2375   0.6875   0.025
0.2375   0.7125   0.025
0.2375   0.7375   0.025
0.2375   0.7625   0.025
0.2375   0.7875   0.025
0.2375   0.8125   0.025
0.2375   0.8375   0.025
0.2375   0.8625   0.025
0.2375   0.8875   0.025
0.2375   0.9125   0.025
0.2375   0.9375   0.025
0.2375   0.9625   0.025
0.2375   0.9875   0.025
0.2625   0.0125   0.025
0.2625   0.0375   0.025
0.2625   0.0625   0.025
0.2625   0.0875   0.025
0.2625   0.1125   0.025
0.2625   0.1375   0.025
0.2625   0.1625   0.025
0.2625   0.1875   0.025
0.2625   0.2125   0.025
0.2625   0.2375   0.025
0.2625   0.2625   0.025
[...]
POINT_DATA   32000
VECTORS Velocidades double

0 0.32766 0
0 0.745674 0
0 0.86731 0
0 0.912307 0
0 0.933293 0
0 0.944951 0
0 0.952212 0
0 0.957073 0
0 0.960483 0
0 0.962946 0
0 0.964756 0
0 0.966098 0
0 0.967088 0
0 0.967806 0
0 0.968306 0
0 0.968624 0
0 0.968787 0
0 0.968808 0
0 0.968698 0
0 0.968459 0
0 0.968089 0
0 0.96758 0
0 0.96692 0
0 0.966088 0
0 0.96506 0
0 0.963799 0
0 0.962258 0
0 0.960374 0
0 0.958059 0
0 0.955192 0
0 0.9516 0
0 0.947024 0
0 0.941063 0
0 0.933047 0
0 0.921762 0
0 0.904735 0
0 0.876152 0
0 0.820054 0
0 0.685898 0
0 0.294813 0
0 0.199716 0
0 0.506648 0
0 0.670136 0
0 0.757711 0
0 0.807766 0
0 0.838529 0
0 0.858654 0
0 0.872469 0
0 0.882292 0
0 0.889448 0
0 0.894738 0
0 0.898671 0
0 0.901582 0
0 0.903697 0
0 0.905171 0
0 0.906111 0
0 0.906589 0
0 0.906651 0
0 0.906324 0
0 0.905615 0
0 0.904518 0
0 0.903012 0
0 0.901057 0
0 0.8986 0
0 0.895565 0
0 0.891848 0
0 0.887315 0
0 0.881784 0
0 0.875009 0
0 0.866653 0
0 0.856242 0
0 0.843085 0
0 0.826148 0
0 0.803806 0
0 0.773391 0
0 0.730292 0
0 0.666201 0
0 0.565952 0
0 0.4038 0
0 0.151631 0
0 0.141207 0
0 0.377685 0
0 0.533758 0
0 0.633456 0
0 0.697908 0
0 0.740823 0
0 0.770353 0
0 0.791285 0
0 0.80648 0
0 0.817704 0
0 0.826081 0
0 0.832351 0
0 0.837014 0
0 0.840412 0
0 0.842786 0
0 0.844301 0
0 0.84507 0
0 0.845166 0
0 0.844629 0
0 0.843475 0
0 0.841692 0
0 0.839246 0
0 0.836078 0
0 0.832103 0
0 0.827202 0
0 0.821218 0
0 0.813946 0
0 0.805112 0
0 0.794354 0
0 0.781184 0
0 0.764937 0
0 0.744682 0
0 0.719099 0
0 0.686268 0
0 0.643364 0
0 0.586212 0
0 0.508817 0
0 0.403429 0
0 0.263096 0
0 0.0917586 0
0 0.108972 0
0 0.298967 0
0 0.437645 0
0 0.535778 0
0 0.604816 0
0 0.653818 0
0 0.68913 0
0 0.714995 0
0 0.734215 0
0 0.748649 0
0 0.759552 0
0 0.767785 0
0 0.773946 0
0 0.778457 0
0 0.781617 0
0 0.783636 0
0 0.784658 0
0 0.784777 0
0 0.784046 0
0 0.782485 0
0 0.780078 0
0 0.776784 0
0 0.772528 0
0 0.7672 0
0 0.760652 0
0 0.752691 0
0 0.743062 0
0 0.731436 0
0 0.717388 0
0 0.700361 0
0 0.679621 0
0 0.654198 0
0 0.622796 0
0 0.583695 0
0 0.534645 0
0 0.472836 0
0 0.39514 0
0 0.299072 0
0 0.185277 0
0 0.0621666 0
0 0.0884778 0
0 0.245882 0
0 0.367091 0
0 0.45845 0
0 0.526627 0
0 0.577474 0
0 0.615585 0
0 0.644359 0
0 0.666237 0
0 0.682956 0
0 0.695753 0
0 0.705511 0
0 0.712867 0
0 0.718281 0
0 0.722087 0
0 0.72452 0
0 0.725747 0
0 0.725877 0
0 0.724971 0
0 0.723051 0
0 0.720104 0
0 0.716079 0
0 0.710892 0
0 0.704422 0
0 0.696502 0
0 0.686917 0
0 0.675394 0
0 0.661584 0
0 0.645047 0
0 0.625229 0
0 0.601433 0
0 0.572785 0
0 0.538204 0
0 0.496388 0
0 0.445852 0
0 0.385091 0
0 0.312997 0
0 0.22972 0
0 0.138107 0
0 0.0453974 0
0 0.0740588 0
0 0.207268 0
0 0.313077 0
0 0.396133 0
0 0.460746 0
0 0.510796 0
0 0.549542 0
0 0.579582 0
0 0.602913 0
0 0.621045 0
0 0.635107 0
0 0.645941 0
0 0.654171 0
0 0.660263 0
0 0.664559 0
0 0.66731 0
0 0.66869 0
0 0.668817 0
0 0.667758 0
0 0.665539 0
0 0.662144 0
0 0.657522 0
0 0.651586 0
0 0.644208 0
0 0.635217 0
0 0.624397 0
0 0.611475 0
0 0.596112 0
0 0.577895 0
0 0.556325 0
0 0.5308 0
0 0.500618 0
0 0.464977 0
0 0.423018 0
0 0.373924 0
0 0.317119 0
0 0.252633 0
0 0.181659 0
0 0.107248 0
0 0.0348523 0
0 0.06318 0
0 0.177565 0
0 0.270187 0
0 0.34489 0
0 0.404763 0
0 0.452502 0
0 0.490437 0
0 0.520518 0
0 0.544328 0
0 0.563122 0
0 0.577882 0
0 0.589367 0
0 0.59816 0
0 0.604705 0
0 0.609338 0
0 0.612306 0
0 0.613787 0
0 0.613899 0
0 0.612713 0
0 0.610255 0
0 0.606513 0
0 0.601437 0
0 0.59494 0
0 0.586898 0
0 0.577146 0
0 0.565478 0
0 0.55164 0
0 0.535326 0
0 0.516175 0
0 0.493767 0
0 0.467628 0
0 0.43724 0
0 0.402071 0
0 0.361634 0
0 0.315594 0
0 0.263943 0
0 0.207249 0
0 0.146974 0
0 0.0857836 0
0 0.0276883 0
0 0.0545635 0
0 0.153759 0
0 0.235105 0
0 0.301954 0
0 0.356708 0
0 0.401344 0
0 0.437565 0
0 0.466834 0
0 0.490384 0
0 0.509235 0
0 0.524211 0
0 0.535975 0
0 0.545048 0
0 0.551839 0
0 0.556662 0
0 0.559753 0
0 0.561284 0
0 0.561372 0
0 0.560086 0
0 0.557454 0
0 0.553466 0
0 0.548077 0
0 0.541206 0
0 0.532736 0
0 0.522518 0
0 0.510366 0
0 0.496055 0
0 0.479324 0
0 0.459877 0
0 0.437383 0
0 0.411495 0
0 0.381864 0
0 0.34818 0
0 0.310231 0
0 0.267994 0
0 0.221763 0
0 0.172303 0
0 0.121025 0
0 0.0701088 0
0 0.0225324 0
0 0.0475001 0
0 0.134096 0
0 0.205731 0
0 0.265392 0
0 0.315053 0
0 0.356235 0
0 0.39022 0
0 0.418115 0
0 0.440877 0
0 0.459322 0
0 0.47413 0
0 0.485862 0
0 0.494973 0
0 0.501828 0
0 0.50671 0
0 0.509839 0
0 0.511376 0
0 0.511432 0
0 0.510073 0
0 0.50733 0
0 0.503194 0
0 0.497626 0
0 0.490554 0
0 0.481876 0
0 0.47146 0
0 0.459146 0
0 0.444745 0
0 0.428047 0
0 0.408818 0
0 0.386817 0
0 0.361807 0
0 0.33358 0
0 0.301992 0
0 0.267016 0
0 0.228809 0
0 0.187801 0
0 0.144786 0
0 0.101007 0
0 0.0582125 0
0 0.0186561 0
0 0.0415651 0
0 0.117491 0
0 0.180691 0
0 0.233846 0
0 0.278633 0
0 0.316273 0
0 0.347755 0
0 0.373933 0
0 0.395551 0
0 0.413255 0
0 0.427601 0
0 0.439055 0
0 0.448006 0
0 0.454771 0
0 0.459603 0
0 0.462698 0
0 0.464203 0
0 0.464222 0
0 0.462819 0
0 0.460021 0
0 0.455827 0
0 0.450202 0
0 0.443086 0
0 0.434392 0
0 0.42401 0
0 0.411807 0
0 0.397633 0
0 0.381323 0
0 0.362707 0
0 0.341618 0
0 0.317912 0
0 0.291487 0
0 0.262314 0
0 0.230482 0
0 0.19624 0
0 0.160059 0
0 0.122681 0
0 0.0851635 0
0 0.0489035 0
0 0.015642 0
0 0.0364879 0
0 0.103235 0
0 0.159051 0
0 0.206342 0
0 0.246564 0
0 0.280723 0
0 0.309607 0
0 0.333882 0
0 0.354131 0
0 0.370866 0
0 0.384537 0
0 0.395527 0
0 0.404164 0
0 0.410718 0
0 0.415409 0
0 0.418412 0
0 0.419856 0
0 0.419838 0
0 0.418415 0
0 0.415616 0
0 0.411442 0
0 0.405867 0
0 0.398842 0
0 0.390295 0
0 0.380138 0
0 0.368267 0
0 0.354566 0
0 0.338914 0
0 0.321194 0
0 0.301302 0
0 0.279164 0
0 0.254753 0
0 0.228118 0
0 0.199409 0
0 0.168917 0
0 0.137099 0
0 0.104617 0
0 0.0723569 0
0 0.0414396 0
0 0.0132359 0
0 0.0320876 0
0 0.0908485 0
0 0.140157 0
0 0.182172 0
0 0.218167 0
0 0.248993 0
0 0.27529 0
0 0.297587 0
0 0.316343 0
0 0.331967 0
0 0.344819 0
0 0.355214 0
0 0.363422 0
0 0.369673 0
0 0.374156 0
0 0.37702 0
0 0.378382 0
0 0.378327 0
0 0.376908 0
0 0.374154 0
0 0.370068 0
0 0.364632 0
0 0.357807 0
0 0.34954 0
0 0.33976 0
0 0.328391 0
0 0.315347 0
0 0.300545 0
0 0.28391 0
0 0.265389 0
0 0.244958 0
0 0.222644 0
0 0.198538 0
0 0.172824 0
0 0.145795 0
0 0.117875 0
0 0.0896399 0
0 0.0618249 0
0 0.0353377 0
0 0.0112752 0
0 0.0282379 0
0 0.0799919 0
0 0.123538 0
0 0.160805 0
0 0.192919 0
0 0.220606 0
0 0.244395 0
0 0.264713 0
0 0.281927 0
0 0.296362 0
0 0.308307 0
0 0.318019 0
0 0.325721 0
0 0.331605 0
0 0.335829 0
0 0.338523 0
0 0.339788 0
0 0.339698 0
0 0.338304 0
0 0.335633 0
0 0.33169 0
0 0.326464 0
0 0.319928 0
0 0.312041 0
0 0.302753 0
0 0.292008 0
0 0.279748 0
0 0.265921 0
0 0.250487 0
0 0.233427 0
0 0.214754 0
0 0.194527 0
0 0.172863 0
0 0.149954 0
0 0.12608 0
0 0.101622 0
0 0.0770718 0
0 0.0530417 0
0 0.0302715 0
0 0.0096511 0
0 0.0248475 0
0 0.0704171 0
0 0.10884 0
0 0.141839 0
0 0.170405 0
0 0.195168 0
0 0.21657 0
0 0.234961 0
0 0.250635 0
0 0.263854 0
0 0.274849 0
0 0.283829 0
0 0.290976 0
0 0.296449 0
0 0.300382 0
0 0.302885 0
0 0.304044 0
0 0.303926 0
0 0.302574 0
0 0.300015 0
0 0.296258 0
0 0.291298 0
0 0.285115 0
0 0.277683 0
0 0.268966 0
0 0.258928 0
0 0.247532 0
0 0.234752 0
0 0.220571 0
0 0.204998 0
0 0.18807 0
0 0.169864 0
0 0.150507 0
0 0.130187 0
0 0.109162 0
0 0.0877672 0
0 0.0664217 0
0 0.0456344 0
0 0.0260133 0
0 0.00828843 0
0 0.0218479 0
0 0.0619371 0
0 0.0957961 0
0 0.124957 0
0 0.150295 0
0 0.172356 0
0 0.191517 0
0 0.208065 0
0 0.222239 0
0 0.234251 0
0 0.244286 0
0 0.252513 0
0 0.259081 0
0 0.264122 0
0 0.267745 0
0 0.270045 0
0 0.271095 0
0 0.270953 0
0 0.269658 0
0 0.267235 0
0 0.263696 0
0 0.259039 0
0 0.253255 0
0 0.246326 0
0 0.238231 0
0 0.228948 0
0 0.218458 0
0 0.206752 0
0 0.193835 0
0 0.17973 0
0 0.16449 0
0 0.1482 0
0 0.13099 0
0 0.113035 0
0 0.0945672 0
0 0.0758791 0
0 0.0573257 0
0 0.0393316 0
0 0.0223995 0
0 0.00713354 0
0 0.0191865 0
0 0.0544067 0
0 0.0841938 0
0 0.109906 0
0 0.132316 0
0 0.151898 0
0 0.168975 0
0 0.183785 0
0 0.196525 0
0 0.207365 0
0 0.216455 0
0 0.223932 0
0 0.229916 0
0 0.234516 0
0 0.237824 0
0 0.239917 0
0 0.240858 0
0 0.240698 0
0 0.239471 0
0 0.237201 0
0 0.233901 0
0 0.229573 0
0 0.224215 0
0 0.217818 0
0 0.21037 0
0 0.201862 0
0 0.192288 0
0 0.181654 0
0 0.169974 0
0 0.157286 0
0 0.143649 0
0 0.129151 0
0 0.113915 0
0 0.0981045 0
0 0.0819238 0
0 0.0656249 0
0 0.0495091 0
0 0.0339312 0
0 0.0193094 0
0 0.00614707 0
0 0.0168213 0
0 0.0477101 0
0 0.073863 0
0 0.0964797 0
0 0.116241 0
0 0.133562 0
0 0.148717 0
0 0.161907 0
0 0.173294 0
0 0.183015 0
0 0.191194 0
0 0.197939 0
0 0.20335 0
0 0.207514 0
0 0.210508 0
0 0.212396 0
0 0.213233 0
0 0.21306 0
0 0.211909 0
0 0.209802 0
0 0.206753 0
0 0.202769 0
0 0.197849 0
0 0.191994 0
0 0.185199 0
0 0.177464 0
0 0.168794 0
0 0.159202 0
0 0.148713 0
0 0.137369 0
0 0.125233 0
0 0.11239 0
0 0.098957 0
0 0.0850789 0
0 0.0709361 0
0 0.056745 0
0 0.0427603 0
0 0.0292796 0
0 0.016652 0
0 0.00529944 0
0 0.0147181 0
0 0.0417524 0
0 0.0646626 0
0 0.0845055 0
0 0.101879 0
0 0.117146 0
0 0.13054 0
0 0.142233 0
0 0.152357 0
0 0.161026 0
0 0.168339 0
0 0.174384 0
0 0.179242 0
0 0.182984 0
0 0.185674 0
0 0.187364 0
0 0.188101 0
0 0.187921 0
0 0.186852 0
0 0.184914 0
0 0.182121 0
0 0.178483 0
0 0.174003 0
0 0.168686 0
0 0.162535 0
0 0.155555 0
0 0.147757 0
0 0.139162 0
0 0.129799 0
0 0.119714 0
0 0.108967 0
0 0.0976408 0
0 0.085841 0
0 0.0736971 0
0 0.061366 0
0 0.0490329 0
0 0.0369133 0
0 0.0252571 0
0 0.0143571 0
0 0.00456791 0
0 0.0128485 0
0 0.0364541 0
0 0.0564738 0
0 0.0738352 0
0 0.0890627 0
0 0.102471 0
0 0.114263 0
0 0.124583 0
0 0.133541 0
0 0.14123 0
0 0.147731 0
0 0.153116 0
0 0.157449 0
0 0.16079 0
0 0.163189 0
0 0.164692 0
0 0.165336 0
0 0.165154 0
0 0.164169 0
0 0.1624 0
0 0.159863 0
0 0.156566 0
0 0.152517 0
0 0.147724 0
0 0.142195 0
0 0.135938 0
0 0.128971 0
0 0.121316 0
0 0.113005 0
0 0.104084 0
0 0.0946118 0
0 0.0846645 0
0 0.0743367 0
0 0.0637428 0
0 0.0530186 0
0 0.042322 0
0 0.0318355 0
0 0.0217692 0
0 0.0123693 0
0 0.00393461 0
0 0.011188 0
0 0.031747 0
0 0.0491937 0
0 0.06434 0
0 0.0776439 0
0 0.0893789 0
0 0.0997199 0
0 0.108789 0
0 0.116678 0
0 0.123464 0
0 0.129213 0
0 0.133981 0
0 0.137824 0
0 0.140787 0
0 0.142914 0
0 0.144241 0
0 0.144801 0
0 0.14462 0
0 0.14372 0
0 0.142119 0
0 0.13983 0
0 0.136864 0
0 0.133231 0
0 0.128939 0
0 0.124001 0
0 0.118428 0
0 0.11224 0
0 0.10546 0
0 0.098122 0
0 0.0902694 0
0 0.0819577 0
0 0.073256 0
0 0.0642484 0
0 0.0550349 0
0 0.0457325 0
0 0.0364759 0
0 0.0274193 0
0 0.0187396 0
0 0.0106441 0
0 0.00338523 0
0 0.00971552 0
0 0.0275714 0
0 0.0427323 0
0 0.0559059 0
0 0.0674913 0
0 0.0777255 0
0 0.0867591 0
0 0.0946958 0
0 0.101613 0
0 0.107573 0
0 0.112629 0
0 0.11683 0
0 0.120218 0
0 0.122831 0
0 0.124705 0
0 0.125871 0
0 0.126354 0
0 0.126178 0
0 0.125362 0
0 0.123922 0
0 0.121872 0
0 0.119221 0
0 0.115982 0
0 0.112165 0
0 0.107781 0
0 0.102847 0
0 0.0973812 0
0 0.0914086 0
0 0.0849618 0
0 0.0780816 0
0 0.0708191 0
0 0.0632363 0
0 0.0554075 0
0 0.0474194 0
0 0.0393724 0
0 0.0313811 0
0 0.0235758 0
0 0.0161057 0
0 0.0091453 0
0 0.00290812 0
0 0.00841214 0
0 0.0238747 0
0 0.0370093 0
0 0.0484309 0
0 0.0584857 0
0 0.0673791 0
0 0.0752404 0
0 0.0821576 0
0 0.0881953 0
0 0.0934055 0
0 0.0978319 0
0 0.101513 0
0 0.104484 0
0 0.106777 0
0 0.108419 0
0 0.109436 0
0 0.109851 0
0 0.109683 0
0 0.108948 0
0 0.107662 0
0 0.105837 0
0 0.103484 0
0 0.100614 0
0 0.0972385 0
0 0.0933706 0
0 0.0890259 0
0 0.0842239 0
0 0.0789891 0
0 0.0733521 0
0 0.0673508 0
0 0.0610313 0
0 0.0544488 0
0 0.0476681 0
0 0.0407642 0
0 0.0338231 0
0 0.0269419 0
0 0.0202307 0
0 0.0138153 0
0 0.00784276 0
0 0.0024936 0
0 0.00726107 0
0 0.0206094 0
0 0.0319523 0
0 0.0418222 0
0 0.0505186 0
0 0.0582187 0
0 0.0650335 0
0 0.0710374 0
0 0.076285 0
0 0.080819 0
0 0.0846753 0
0 0.0878854 0
0 0.0904776 0
0 0.0924776 0
0 0.0939087 0
0 0.094792 0
0 0.0951461 0
0 0.0949878 0
0 0.0943316 0
0 0.0931904 0
0 0.0915761 0
0 0.0894995 0
0 0.0869716 0
0 0.084004 0
0 0.0806099 0
0 0.0768048 0
0 0.0726078 0
0 0.068042 0
0 0.063136 0
0 0.0579241 0
0 0.0524477 0
0 0.0467551 0
0 0.0409027 0
0 0.0349552 0
0 0.0289858 0
0 0.0230767 0
0 0.017321 0
0 0.0118244 0
0 0.00671111 0
0 0.00213356 0
0 0.00624709 0
0 0.0177324 0
0 0.0274955 0
0 0.0359952 0
0 0.04349 0
0 0.0501322 0
0 0.0560167 0
0 0.0612067 0
0 0.065748 0
0 0.069676 0
0 0.07302 0
0 0.0758057 0
0 0.0780561 0
0 0.0797922 0
0 0.0810331 0
0 0.0817961 0
0 0.0820969 0
0 0.0819497 0
0 0.0813671 0
0 0.0803608 0
0 0.0789415 0
0 0.0771197 0
0 0.0749057 0
0 0.0723112 0
0 0.0693488 0
0 0.0660336 0
0 0.0623836 0
0 0.0584204 0
0 0.0541699 0
0 0.0496631 0
0 0.0449363 0
0 0.0400321 0
0 0.034999 0
0 0.0298925 0
0 0.0247746 0
0 0.0197152 0
0 0.0147924 0
0 0.0100954 0
0 0.00572873 0
0 0.00182108 0
0 0.00535628 0
0 0.0152047 0
0 0.0235785 0
0 0.0308723 0
0 0.0373077 0
0 0.0430155 0
0 0.0480766 0
0 0.0525446 0
0 0.0564578 0
0 0.0598456 0
0 0.0627319 0
0 0.0651379 0
0 0.0670821 0
0 0.0685817 0
0 0.0696522 0
0 0.0703081 0
0 0.0705624 0
0 0.0704271 0
0 0.0699133 0
0 0.0690313 0
0 0.0677908 0
0 0.0662014 0
0 0.0642732 0
0 0.062017 0
0 0.059445 0
0 0.0565713 0
0 0.0534125 0
0 0.0499885 0
0 0.0463224 0
0 0.0424419 0
0 0.0383789 0
0 0.0341701 0
0 0.0298574 0
0 0.025488 0
0 0.0211146 0
0 0.016796 0
0 0.0125981 0
0 0.0085958 0
0 0.00487696 0
0 0.00155018 0
0 0.00457592 0
0 0.0129901 0
0 0.0201461 0
0 0.0263816 0
0 0.0318863 0
0 0.0367718 0
0 0.0411071 0
0 0.0449374 0
0 0.0482948 0
0 0.0512035 0
0 0.0536835 0
0 0.0557516 0
0 0.0574232 0
0 0.0587122 0
0 0.0596312 0
0 0.0601922 0
0 0.0604062 0
0 0.0602833 0
0 0.059833 0
0 0.0590644 0
0 0.0579863 0
0 0.0566075 0
0 0.0549373 0
0 0.0529858 0
0 0.0507642 0
0 0.0482857 0
0 0.0455653 0
0 0.0426209 0
0 0.0394732 0
0 0.0361464 0
0 0.0326683 0
0 0.0290706 0
0 0.0253891 0
0 0.0216638 0
0 0.0179394 0
0 0.0142654 0
0 0.010697 0
0 0.00729711 0
0 0.00413954 0
0 0.00131569 0
0 0.00389427 0
0 0.0110555 0
0 0.0171471 0
0 0.0224569 0
0 0.0271467 0
0 0.0313112 0
0 0.0350091 0
0 0.0382785 0
0 0.0411462 0
0 0.0436323 0
0 0.0457531 0
0 0.0475224 0
0 0.0489526 0
0 0.0500551 0
0 0.0508402 0
0 0.0513178 0
0 0.051497 0
0 0.0513865 0
0 0.0509943 0
0 0.0503285 0
0 0.0493968 0
0 0.0482073 0
0 0.0467684 0
0 0.0450894 0
0 0.0431805 0
0 0.0410535 0
0 0.0387222 0
0 0.0362022 0
0 0.033512 0
0 0.0306725 0
0 0.0277078 0
0 0.024645 0
0 0.0215146 0
0 0.0183506 0
0 0.0151905 0
0 0.0120758 0
0 0.00905291 0
0 0.00617443 0
0 0.00350223 0
0 0.00111306 0
0 0.00330055 0
0 0.00937026 0
0 0.0145343 0
0 0.0190369 0
0 0.0230153 0
0 0.0265499 0
0 0.0296902 0
0 0.0324682 0
0 0.0349063 0
0 0.0370211 0
0 0.0388259 0
0 0.0403321 0
0 0.0415497 0
0 0.042488 0
0 0.0431553 0
0 0.0435599 0
0 0.0437094 0
0 0.0436109 0
0 0.0432715 0
0 0.0426982 0
0 0.0418977 0
0 0.0408773 0
0 0.0396445 0
0 0.0382076 0
0 0.036576 0
0 0.0347602 0
0 0.0327723 0
0 0.0306261 0
0 0.0283378 0
0 0.0259253 0
0 0.0234095 0
0 0.0208133 0
0 0.0181627 0
0 0.0154863 0
0 0.0128154 0
0 0.010185 0
0 0.00763381 0
0 0.00520571 0
0 0.00295244 0
0 0.00093828 0
0 0.00278478 0
0 0.00790624 0
0 0.0122642 0
0 0.0160649 0
0 0.0194242 0
0 0.0224101 0
0 0.0250641 0
0 0.0274131 0
0 0.0294758 0
0 0.0312657 0
0 0.0327938 0
0 0.0340694 0
0 0.0351006 0
0 0.0358949 0
0 0.0364592 0
0 0.0368002 0
0 0.0369242 0
0 0.0368373 0
0 0.0365455 0
0 0.0360548 0
0 0.0353711 0
0 0.0345008 0
0 0.0334507 0
0 0.032228 0
0 0.0308411 0
0 0.0292993 0
0 0.0276131 0
0 0.0257948 0
0 0.023858 0
0 0.0218185 0
0 0.0196937 0
0 0.0175033 0
0 0.0152691 0
0 0.013015 0
0 0.0107674 0
0 0.00855541 0
0 0.00641118 0
0 0.00437134 0
0 0.00247898 0
0 0.00078778 0
0 0.00233779 0
0 0.00663735 0
0 0.0102964 0
0 0.0134883 0
0 0.0163103 0
0 0.0188195 0
0 0.0210508 0
0 0.0230264 0
0 0.0247619 0
0 0.0262686 0
0 0.0275553 0
0 0.0286295 0
0 0.0294979 0
0 0.0301664 0
0 0.0306409 0
0 0.0309267 0
0 0.0310291 0
0 0.0309532 0
0 0.0307041 0
0 0.0302868 0
0 0.0297066 0
0 0.028969 0
0 0.0280799 0
0 0.0270457 0
0 0.0258738 0
0 0.0245723 0
0 0.0231503 0
0 0.0216183 0
0 0.0199881 0
0 0.018273 0
0 0.016488 0
0 0.0146494 0
0 0.0127757 0
0 0.0108867 0
0 0.00900454 0
0 0.00715321 0
0 0.00535952 0
0 0.00365383 0
0 0.00207191 0
0 0.000658392 0
0 0.00195109 0
0 0.00553957 0
0 0.0085938 0
0 0.0112586 0
0 0.0136152 0
0 0.0157112 0
0 0.0175757 0
0 0.0192272 0
0 0.0206785 0
0 0.0219387 0
0 0.0230153 0
0 0.0239142 0
0 0.0246408 0
0 0.0252001 0
0 0.0255965 0
0 0.0258346 0
0 0.0259187 0
0 0.025853 0
0 0.0256419 0
0 0.0252896 0
0 0.0248006 0
0 0.0241798 0
0 0.0234322 0
0 0.0225634 0
0 0.0215797 0
0 0.0204882 0
0 0.0192966 0
0 0.0180141 0
0 0.0166505 0
0 0.0152171 0
0 0.0137265 0
0 0.0121925 0
0 0.0106302 0
0 0.00905626 0
0 0.00748895 0
0 0.00594815 0
0 0.00445598 0
0 0.00303751 0
0 0.0017223 0
0 0.000547275 0
0 0.00161686 0
0 0.00459071 0
0 0.00712205 0
0 0.00933095 0
0 0.0112849 0
0 0.0130232 0
0 0.0145699 0
0 0.0159403 0
0 0.017145 0
0 0.0181914 0
0 0.0190855 0
0 0.0198321 0
0 0.0204355 0
0 0.0208997 0
0 0.0212285 0
0 0.0214254 0
0 0.021494 0
0 0.0214378 0
0 0.0212604 0
0 0.0209655 0
0 0.0205568 0
0 0.0200384 0
0 0.0194148 0
0 0.0186906 0
0 0.0178714 0
0 0.016963 0
0 0.0159722 0
0 0.0149065 0
0 0.0137743 0
0 0.0125851 0
0 0.0113494 0
0 0.0100785 0
0 0.008785 0
0 0.00748271 0
0 0.00618657 0
0 0.00491295 0
0 0.00368 0
0 0.0025083 0
0 0.00142215 0
0 0.000451884 0
0 0.00132789 0
0 0.0037703 0
0 0.00584945 0
0 0.007664 0
0 0.00926939 0
0 0.0106979 0
0 0.0119694 0
0 0.0130962 0
0 0.014087 0
0 0.0149478 0
0 0.0156834 0
0 0.0162977 0
0 0.0167941 0
0 0.0171759 0
0 0.017446 0
0 0.0176073 0
0 0.0176628 0
0 0.0176154 0
0 0.0174679 0
0 0.0172235 0
0 0.0168853 0
0 0.0164568 0
0 0.0159416 0
0 0.0153439 0
0 0.0146681 0
0 0.0139193 0
0 0.0131032 0
0 0.012226 0
0 0.0112947 0
0 0.0103171 0
0 0.00930188 0
0 0.00825844 0
0 0.0071971 0
0 0.00612908 0
0 0.00506659 0
0 0.00402298 0
0 0.00301304 0
0 0.00205353 0
0 0.00116423 0
0 0.000369922 0
0 0.00107751 0
0 0.00305942 0
0 0.00474668 0
0 0.00621939 0
0 0.00752253 0
0 0.00868236 0
0 0.00971483 0
0 0.0106301 0
0 0.011435 0
0 0.0121344 0
0 0.0127322 0
0 0.0132314 0
0 0.0136349 0
0 0.013945 0
0 0.0141642 0
0 0.0142948 0
0 0.0143392 0
0 0.0142997 0
0 0.0141788 0
0 0.0139789 0
0 0.0137027 0
0 0.013353 0
0 0.0129328 0
0 0.0124457 0
0 0.0118953 0
0 0.0112858 0
0 0.0106219 0
0 0.00990867 0
0 0.00915197 0
0 0.00835813 0
0 0.00753417 0
0 0.00668775 0
0 0.00582724 0
0 0.00496171 0
0 0.00410101 0
0 0.0032559 0
0 0.00243829 0
0 0.00166169 0
0 0.000942037 0
0 0.000299315 0
0 0.000859536 0
0 0.00244055 0
0 0.0037866 0
0 0.00496158 0
0 0.00600143 0
0 0.00692706 0
0 0.00775118 0
0 0.00848189 0
0 0.0091246 0
0 0.00968319 0
0 0.0101606 0
0 0.0105594 0
0 0.0108815 0
0 0.0111291 0
0 0.011304 0
0 0.011408 0
0 0.0114429 0
0 0.0114108 0
0 0.0113134 0
0 0.0111528 0
0 0.0109313 0
0 0.0106509 0
0 0.0103144 0
0 0.00992434 0
0 0.00948389 0
0 0.0089964 0
0 0.00846564 0
0 0.00789579 0
0 0.00729149 0
0 0.00665785 0
0 0.00600048 0
0 0.0053255 0
0 0.00463958 0
0 0.00394991 0
0 0.00326433 0
0 0.00259138 0
0 0.00194048 0
0 0.00132235 0
0 0.000749631 0
0 0.000238176 0
0 0.000668239 0
0 0.0018974 0
0 0.00294393 0
0 0.00385754 0
0 0.00466616 0
0 0.00538605 0
0 0.00602709 0
0 0.00659554 0
0 0.00709561 0
0 0.00753027 0
0 0.00790182 0
0 0.00821212 0
0 0.00846281 0
0 0.0086554 0
0 0.00879133 0
0 0.00887203 0
0 0.00889892 0
0 0.00887347 0
0 0.00879718 0
0 0.00867164 0
0 0.00849855 0
0 0.00827973 0
0 0.00801715 0
0 0.00771299 0
0 0.00736967 0
0 0.00698985 0
0 0.00657649 0
0 0.00613288 0
0 0.00566265 0
0 0.0051698 0
0 0.00465869 0
0 0.00413409 0
0 0.00360117 0
0 0.00306551 0
0 0.00253318 0
0 0.00201079 0
0 0.00150562 0
0 0.00102596 0
0 0.000581589 0
0 0.000184782 0
0 0.000498245 0
0 0.00141473 0
0 0.00219507 0
0 0.00287634 0
0 0.00347937 0
0 0.00401628 0
0 0.00449444 0
0 0.0049185 0
0 0.00529159 0
0 0.00561591 0
0 0.00589315 0
0 0.00612469 0
0 0.00631174 0
0 0.0064554 0
0 0.00655673 0
0 0.0066168 0
0 0.00663667 0
0 0.00661741 0
0 0.00656018 0
0 0.00646615 0
0 0.0063366 0
0 0.00617291 0
0 0.00597657 0
0 0.00574924 0
0 0.00549272 0
0 0.00520903 0
0 0.00490039 0
0 0.00456929 0
0 0.00421844 0
0 0.00385083 0
0 0.00346972 0