# vtk DataFile Version 2.0
Presion
ASCII

DATASET STRUCTURED_GRID
DIMENSIONS   40   40   20

POINTS   32000   double
0.0125   0.0125   0.025
0.0375   0.0125   0.025
0.0625   0.0125   0.025
0.0875   0.0125   0.025
0.1125   0.0125   0.025
0.1375   0.0125   0.025
0.1625   0.0125   0.025
0.1875   0.0125   0.025
0.2125   0.0125   0.025
0.2375   0.0125   0.025
0.2625   0.0125   0.025
0.2875   0.0125   0.025
0.3125   0.0125   0.025
0.3375   0.0125   0.025
0.3625   0.0125   0.025
0.3875   0.0125   0.025
0.4125   0.0125   0.025
0.4375   0.0125   0.025
0.4625   0.0125   0.025
0.4875   0.0125   0.025
0.5125   0.0125   0.025
0.5375   0.0125   0.025
0.5625   0.0125   0.025
0.5875   0.0125   0.025
0.6125   0.0125   0.025
0.6375   0.0125   0.025
0.6625   0.0125   0.025
0.6875   0.0125   0.025
0.7125   0.0125   0.025
0.7375   0.0125   0.025
0.7625   0.0125   0.025
0.7875   0.0125   0.025
0.8125   0.0125   0.025
0.8375   0.0125   0.025
0.8625   0.0125   0.025
0.8875   0.0125   0.025
0.9125   0.0125   0.025
0.9375   0.0125   0.025
0.9625   0.0125   0.025
0.9875   0.0125   0.025
0.0125   0.0375   0.025
0.0375   0.0375   0.025
0.0625   0.0375   0.025
0.0875   0.0375   0.025
0.1125   0.0375   0.025
0.1375   0.0375   0.025
0.1625   0.0375   0.025
0.1875   0.0375   0.025
0.2125   0.0375   0.025
0.2375   0.0375   0.025
0.2625   0.0375   0.025
0.2875   0.0375   0.025
0.3125   0.0375   0.025
0.3375   0.0375   0.025
0.3625   0.0375   0.025
0.3875   0.0375   0.025
0.4125   0.0375   0.025
0.4375   0.0375   0.025
0.4625   0.0375   0.025
0.4875   0.0375   0.025
0.5125   0.0375   0.025
0.5375   0.0375   0.025
0.5625   0.0375   0.025
0.5875   0.0375   0.025
0.6125   0.0375   0.025
0.6375   0.0375   0.025
0.6625   0.0375   0.025
0.6875   0.0375   0.025
0.7125   0.0375   0.025
0.7375   0.0375   0.025
0.7625   0.0375   0.025
0.7875   0.0375   0.025
0.8125   0.0375   0.025
0.8375   0.0375   0.025
0.8625   0.0375   0.025
0.8875   0.0375   0.025
0.9125   0.0375   0.025
0.9375   0.0375   0.025
0.9625   0.0375   0.025
0.9875   0.0375   0.025
0.0125   0.0625   0.025
0.0375   0.0625   0.025
0.0625   0.0625   0.025
0.0875   0.0625   0.025
0.1125   0.0625   0.025
0.1375   0.0625   0.025
0.1625   0.0625   0.025
0.1875   0.0625   0.025
0.2125   0.0625   0.025
0.2375   0.0625   0.025
0.2625   0.0625   0.025
0.2875   0.0625   0.025
0.3125   0.0625   0.025
0.3375   0.0625   0.025
0.3625   0.0625   0.025
0.3875   0.0625   0.025
0.4125   0.0625   0.025
0.4375   0.0625   0.025
0.4625   0.0625   0.025
0.4875   0.0625   0.025
0.5125   0.0625   0.025
0.5375   0.0625   0.025
0.5625   0.0625   0.025
0.5875   0.0625   0.025
0.6125   0.0625   0.025
0.6375   0.0625   0.025
0.6625   0.0625   0.025
0.6875   0.0625   0.025
0.7125   0.0625   0.025
0.7375   0.0625   0.025
0.7625   0.0625   0.025
0.7875   0.0625   0.025
0.8125   0.0625   0.025
0.8375   0.0625   0.025
0.8625   0.0625   0.025
0.8875   0.0625   0.025
0.9125   0.0625   0.025
0.9375   0.0625   0.025
0.9625   0.0625   0.025
0.9875   0.0625   0.025
0.0125   0.0875   0.025
0.0375   0.0875   0.025
0.0625   0.0875   0.025
0.0875   0.0875   0.025
0.1125   0.0875   0.025
0.1375   0.0875   0.025
0.1625   0.0875   0.025
0.1875   0.0875   0.025
0.2125   0.0875   0.025
0.2375   0.0875   0.025
0.2625   0.0875   0.025
0.2875   0.0875   0.025
0.3125   0.0875   0.025
0.3375   0.0875   0.025
0.3625   0.0875   0.025
0.3875   0.0875   0.025
0.4125   0.0875   0.025
0.4375   0.0875   0.025
0.4625   0.0875   0.025
0.4875   0.0875   0.025
0.5125   0.0875   0.025
0.5375   0.0875   0.025
0.5625   0.0875   0.025
0.5875   0.0875   0.025
0.6125   0.0875   0.025
0.6375   0.0875   0.025
0.6625   0.0875   0.025
0.6875   0.0875   0.025
0.7125   0.0875   0.025
0.7375   0.0875   0.025
0.7625   0.0875   0.025
0.7875   0.0875   0.025
0.8125   0.0875   0.025
0.8375   0.0875   0.025
0.8625   0.0875   0.025
0.8875   0.0875   0.025
0.9125   0.0875   0.025
0.9375   0.0875   0.025
0.9625   0.0875   0.025
0.9875   0.0875   0.025
0.0125   0.1125   0.025
0.0375   0.1125   0.025
0.0625   0.1125   0.025
0.0875   0.1125   0.025
0.1125   0.1125   0.025
0.1375   0.1125   0.025
0.1625   0.1125   0.025
0.1875   0.1125   0.025
0.2125   0.1125   0.025
0.2375   0.1125   0.025
0.2625   0.1125   0.025
0.2875   0.1125   0.025
0.3125   0.1125   0.025
0.3375   0.1125   0.025
0.3625   0.1125   0.025
0.3875   0.1125   0.025
0.4125   0.1125   0.025
0.4375   0.1125   0.025
0.4625   0.1125   0.025
0.4875   0.1125   0.025
0.5125   0.1125   0.025
0.5375   0.1125   0.025
0.5625   0.1125   0.025
0.5875   0.1125   0.025
0.6125   0.1125   0.025
0.6375   0.1125   0.025
0.6625   0.1125   0.025
0.6875   0.1125   0.025
0.7125   0.1125   0.025
0.7375   0.1125   0.025
0.7625   0.1125   0.025
0.7875   0.1125   0.025
0.8125   0.1125   0.025
0.8375   0.1125   0.025
0.8625   0.1125   0.025
0.8875   0.1125   0.025
0.9125   0.1125   0.025
0.9375   0.1125   0.025
0.9625   0.1125   0.025
0.9875   0.1125   0.025
0.0125   0.1375   0.025
0.0375   0.1375   0.025
0.0625   0.1375   0.025
0.0875   0.1375   0.025
0.1125   0.1375   0.025
0.1375   0.1375   0.025
0.1625   0.1375   0.025
0.1875   0.1375   0.025
0.2125   0.1375   0.025
0.2375   0.1375   0.025
0.2625   0.1375   0.025
0.2875   0.1375   0.025
0.3125   0.1375   0.025
0.3375   0.1375   0.025
0.3625   0.1375   0.025
0.3875   0.1375   0.025
0.4125   0.1375   0.025
0.4375   0.1375   0.025
0.4625   0.1375   0.025
0.4875   0.1375   0.025
0.5125   0.1375   0.025
0.5375   0.1375   0.025
0.5625   0.1375   0.025
0.5875   0.1375   0.025
0.6125   0.1375   0.025
0.6375   0.1375   0.025
0.6625   0.1375   0.025
0.6875   0.1375   0.025
0.7125   0.1375   0.025
0.7375   0.1375   0.025
0.7625   0.1375   0.025
0.7875   0.1375   0.025
0.8125   0.1375   0.025
0.8375   0.1375   0.025
0.8625   0.1375   0.025
0.8875   0.1375   0.025
0.9125   0.1375   0.025
0.9375   0.1375   0.025
0.9625   0.1375   0.025
0.9875   0.1375   0.025
0.0125   0.1625   0.025
0.0375   0.1625   0.025
0.0625   0.1625   0.025
0.0875   0.1625   0.025
0.1125   0.1625   0.025
0.1375   0.1625   0.025
0.1625   0.1625   0.025
0.1875   0.1625   0.025
0.2125   0.1625   0.025
0.2375   0.1625   0.025
0.2625   0.1625   0.025
0.2875   0.1625   0.025
0.3125   0.1625   0.025
0.3375   0.1625   0.025
0.3625   0.1625   0.025
0.3875   0.1625   0.025
0.4125   0.1625   0.025
0.4375   0.1625   0.025
0.4625   0.1625   0.025
0.4875   0.1625   0.025
0.5125   0.1625   0.025
0.5375   0.1625   0.025
0.5625   0.1625   0.025
0.5875   0.1625   0.025
0.6125   0.1625   0.025
0.6375   0.1625   0.025
0.6625   0.1625   0.025
0.6875   0.1625   0.025
0.7125   0.1625   0.025
0.7375   0.1625   0.025
0.7625   0.1625   0.025
0.7875   0.1625   0.025
0.8125   0.1625   0.025
0.8375   0.1625   0.025
0.8625   0.1625   0.025
0.8875   0.1625   0.025
0.9125   0.1625   0.025
0.9375   0.1625   0.025
0.9625   0.1625   0.025
0.9875   0.1625   0.025
0.0125   0.1875   0.025
0.0375   0.1875   0.025
0.0625   0.1875   0.025
0.0875   0.1875   0.025
0.1125   0.1875   0.025
0.1375   0.1875   0.025
0.1625   0.1875   0.025
0.1875   0.1875   0.025
0.2125   0.1875   0.025
0.2375   0.1875   0.025
0.2625   0.1875   0.025
0.2875   0.1875   0.025
0.3125   0.1875   0.025
0.3375   0.1875   0.025
0.3625   0.1875   0.025
0.3875   0.1875   0.025
0.4125   0.1875   0.025
0.4375   0.1875   0.025
0.4625   0.1875   0.025
0.4875   0.1875   0.025
0.5125   0.1875   0.025
0.5375   0.1875   0.025
0.5625   0.1875   0.025
0.5875   0.1875   0.025
0.6125   0.1875   0.025
0.6375   0.1875   0.025
0.6625   0.1875   0.025
0.6875   0.1875   0.025
0.7125   0.1875   0.025
0.7375   0.1875   0.025
0.7625   0.1875   0.025
0.7875   0.1875   0.025
0.8125   0.1875   0.025
0.8375   0.1875   0.025
0.8625   0.1875   0.025
0.8875   0.1875   0.025
0.9125   0.1875   0.025
0.9375   0.1875   0.025
0.9625   0.1875   0.025
0.9875   0.1875   0.025
0.0125   0.2125   0.025
0.0375   0.2125   0.025
0.0625   0.2125   0.025
0.0875   0.2125   0.025
0.1125   0.2125   0.025
0.1375   0.2125   0.025
0.1625   0.2125   0.025
0.1875   0.2125   0.025
0.2125   0.2125   0.025
0.2375   0.2125   0.025
0.2625   0.2125   0.025
0.2875   0.2125   0.025
0.3125   0.2125   0.025
0.3375   0.2125   0.025
0.3625   0.2125   0.025
0.3875   0.2125   0.025
0.4125   0.2125   0.025
0.4375   0.2125   0.025
0.4625   0.2125   0.025
0.4875   0.2125   0.025
0.5125   0.2125   0.025
0.5375   0.2125   0.025
0.5625   0.2125   0.025
0.5875   0.2125   0.025
0.6125   0.2125   0.025
0.6375   0.2125   0.025
0.6625   0.2125   0.025
0.6875   0.2125   0.025
0.7125   0.2125   0.025
0.7375   0.2125   0.025
0.7625   0.2125   0.025
0.7875   0.2125   0.025
0.8125   0.2125   0.025
0.8375   0.2125   0.025
0.8625   0.2125   0.025
0.8875   0.2125   0.025
0.9125   0.2125   0.025
0.9375   0.2125   0.025
0.9625   0.2125   0.025
0.9875   0.2125   0.025
0.0125   0.2375   0.025
0.0375   0.2375   0.025
0.0625   0.2375   0.025
0.0875   0.2375   0.025
0.1125   0.2375   0.025
0.1375   0.2375   0.025
0.1625   0.2375   0.025
0.1875   0.2375   0.025
0.2125   0.2375   0.025
0.2375   0.2375   0.025
0.2625   0.2375   0.025
0.2875   0.2375   0.025
0.3125   0.2375   0.025
0.3375   0.2375   0.025
0.3625   0.2375   0.025
0.3875   0.2375   0.025
0.4125   0.2375   0.025
0.4375   0.2375   0.025
0.4625   0.2375   0.025
0.4875   0.2375   0.025
0.5125   0.2375   0.025
0.5375   0.2375   0.025
0.5625   0.2375   0.025
0.5875   0.2375   0.025
0.6125   0.2375   0.025
0.6375   0.2375   0.025
0.6625   0.2375   0.025
0.6875   0.2375   0.025
0.7125   0.2375   0.025
0.7375   0.2375   0.025
0.7625   0.2375   0.025
0.7875   0.2375   0.025
0.8125   0.2375   0.025
0.8375   0.2375   0.025
0.8625   0.2375   0.025
0.8875   0.2375   0.025
0.9125   0.2375   0.025
0.9375   0.2375   0.025
0.9625   0.2375   0.025
0.9875   0.2375   0.025
0.0125   0.2625   0.025
0.0375   0.2625   0.025
0.0625   0.2625   0.025
0.0875   0.2625   0.025
0.1125   0.2625   0.025
0.1375   0.2625   0.025
0.1625   0.2625   0.025
0.1875   0.2625   0.025
0.2125   0.2625   0.025
0.2375   0.2625   0.025
0.2625   0.2625   0.025
[...]
POINT_DATA   32000
SCALARS Presion double
LOOKUP_TABLE   Presion

0 0 0 0 0 0 0 0 0 0 0 0 0 0 0 0 0 0 0 0 0 0 0 0 0 0 0 0 0 0 0 0 0 0 0 0 0 0 0 0 -0.003253 -0.00364522 -0.00421433 -0.00477123 -0.00526071 -0.00566122 -0.00596209 -0.006158 -0.00624724 -0.00623077 -0.00611141 -0.00589421 -0.00558461 -0.00518898 -0.00471421 -0.00416751 -0.00355642 -0.00288878 -0.00217282 -0.00141725 -0.000630697 0.000175623 0.000991492 0.00180531 0.00260463 0.00337617 0.00410596 0.00477951 0.00538205 0.00589891 0.00631606 0.0066198 0.00679832 0.00684133 0.00674053 0.00648987 0.00608639 0.00553501 0.00487373 0.00430635 -0.00399523 -0.00409103 -0.00441827 -0.00482174 -0.0052199 -0.00556923 -0.00584543 -0.00603483 -0.0061303 -0.00612906 -0.00603098 -0.00583938 -0.00555791 -0.00519169 -0.00474661 -0.00422911 -0.00364609 -0.00300488 -0.00231325 -0.0015795 -0.000811452 -2.0662e-05 0.000783375 0.00158944 0.00238544 0.00315849 0.00389499 0.00458079 0.00520155 0.00574305 0.00619203 0.00653543 0.00676299 0.0068668 0.00684272 0.00669213 0.00642584 0.00607351 0.00570954 0.00552097 -0.00425095 -0.00432786 -0.00456797 -0.00488781 -0.00522394 -0.00553344 -0.00578838 -0.00597116 -0.00607127 -0.00608318 -0.00600431 -0.00583646 -0.00558161 -0.00524359 -0.0048272 -0.00433796 -0.00378197 -0.00316584 -0.0024967 -0.00178224 -0.00102934 -0.000249714 0.000547937 0.00135281 0.00215318 0.00293641 0.00368906 0.00439711 0.00504623 0.00562224 0.00611214 0.00650291 0.00678511 0.00695215 0.00700206 0.00693955 0.0067796 0.00655429 0.00632616 0.00620904 -0.00427273 -0.00441562 -0.00465454 -0.00494877 -0.00525696 -0.00554521 -0.00578829 -0.00596857 -0.00607446 -0.00609902 -0.00603798 -0.00589214 -0.00566199 -0.0053502 -0.00496049 -0.00449742 -0.00396616 -0.0033725 -0.00272278 -0.00202394 -0.00128183 -0.000508185 0.000289128 0.00109973 0.0019122 0.00271403 0.00349175 0.00423114 0.00491753 0.0055363 0.00607413 0.00651732 0.00685634 0.00708457 0.00720023 0.007208 0.0071215 0.00696687 0.00678771 0.00664778 -0.0041947 -0.00442237 -0.00470008 -0.00500628 -0.00531463 -0.00560042 -0.00584321 -0.00602747 -0.00614221 -0.00618025 -0.00613646 -0.00601116 -0.00580372 -0.00551582 -0.00515022 -0.00471051 -0.00420095 -0.0036264 -0.00299233 -0.00230487 -0.00156875 -0.000795616 7.51177e-06 0.000830686 0.00166271 0.00249112 0.00330221 0.00408127 0.00481292 0.00548162 0.0060732 0.00657253 0.0069691 0.00725519 0.00742776 0.0074897 0.00745128 0.0073316 0.00715961 0.00697159 -0.00408996 -0.0044005 -0.00473302 -0.00507259 -0.00540091 -0.0056998 -0.00595332 -0.00614864 -0.0062762 -0.00632939 -0.00630291 -0.00619703 -0.0060104 -0.00574398 -0.00539968 -0.00498024 -0.004489 -0.0039299 -0.0033075 -0.00262703 -0.00189204 -0.00111404 -0.000299157 0.000543101 0.00140175 0.00226423 0.00311646 0.00394301 0.00472745 0.00545288 0.00610372 0.00666275 0.00711777 0.00745913 0.00768168 0.00778579 0.00777817 0.00767227 0.0074877 0.00724705 -0.00400035 -0.00438685 -0.00477917 -0.0051633 -0.0055243 -0.00584781 -0.00612117 -0.00633401 -0.00647842 -0.00654876 -0.00653996 -0.00645269 -0.00628518 -0.00603791 -0.00571216 -0.0053099 -0.00483362 -0.00428636 -0.00367175 -0.00299405 -0.00225562 -0.00146773 -0.000635566 0.000231838 0.0011237 0.00202734 0.00292817 0.00380983 0.00465453 0.00544365 0.0061597 0.00678276 0.00729831 0.00769411 0.0079624 0.00810082 0.00811293 0.00800823 0.00780117 0.00750828 -0.00395112 -0.00440694 -0.00485965 -0.00529379 -0.00569518 -0.00605121 -0.00635128 -0.00658691 -0.00675167 -0.00684102 -0.0068504 -0.00678111 -0.00663125 -0.00640104 -0.0060913 -0.00570337 -0.00523897 -0.00470027 -0.00408993 -0.00341126 -0.00266531 -0.00186305 -0.00100863 -0.000110561 0.000820645 0.00177219 0.0027289 0.00367336 0.00458616 0.00544656 0.00623476 0.00692751 0.00750737 0.00795898 0.00827154 0.00843984 0.00846481 0.00835346 0.00811791 0.00777302 -0.00395847 -0.00447881 -0.00499125 -0.00547803 -0.00592433 -0.00631806 -0.00664967 -0.00691198 -0.0070998 -0.00720966 -0.00723763 -0.00718578 -0.0070523 -0.00683734 -0.00654144 -0.0061654 -0.00571027 -0.00517736 -0.00456839 -0.00388565 -0.00312879 -0.00230839 -0.00142745 -0.000493803 0.000482394 0.00148829 0.00250813 0.00352333 0.00451267 0.00545295 0.00632161 0.00709142 0.00774144 0.00825256 0.0086105 0.00880703 0.00884079 0.00871737 0.00844849 0.00805002 -0.00403363 -0.00461586 -0.00518757 -0.00572844 -0.00622239 -0.00665707 -0.00702341 -0.00731504 -0.0075278 -0.00765918 -0.00770593 -0.00767101 -0.00755284 -0.00735167 -0.00706787 -0.00670183 -0.00625398 -0.00572482 -0.0051151 -0.00442601 -0.00365572 -0.00281428 -0.00190336 -0.000929949 9.63357e-05 0.00116272 0.00225295 0.00334722 0.00442234 0.00545234 0.00641142 0.0072677 0.00799604 0.00857285 0.00897975 0.00920519 0.0092456 0.00910584 0.0087986 0.00834261 -0.00418527 -0.00482876 -0.00546007 -0.00605626 -0.00659969 -0.00707741 -0.00748044 -0.00780301 -0.00804178 -0.00819518 -0.00826068 -0.00824218 -0.00813846 -0.00794998 -0.00767706 -0.00731977 -0.00687797 -0.00635137 -0.00573971 -0.00504302 -0.00425783 -0.00339349 -0.00245015 -0.00143366 -0.000352875 0.000779732 0.00194757 0.00312966 0.00430071 0.00543167 0.00649308 0.00744755 0.00826496 0.00891632 0.00937833 0.00963552 0.00968195 0.0095221 0.00917057 0.00865047 -0.00442094 -0.00512688 -0.00581914 -0.0064721 -0.00706649 -0.00758863 -0.00802949 -0.0083838 -0.00864902 -0.00882448 -0.00890849 -0.00890589 -0.00881597 -0.00863949 -0.00837681 -0.00802776 -0.00759166 -0.00706743 -0.00645375 -0.00574941 -0.00494911 -0.00406132 -0.00308433 -0.00202258 -0.000883797 0.000320179 0.00157266 0.00285166 0.00412973 0.00537446 0.00655224 0.00761929 0.00853949 0.00927734 0.00980345 0.0100975 0.0101508 0.00996729 0.00956428 0.00897051 -0.00474808 -0.00551927 -0.00627485 -0.00698651 -0.00763332 -0.00820087 -0.00868014 -0.00906639 -0.00935794 -0.00955515 -0.00965722 -0.00967006 -0.00959353 -0.00942882 -0.00917638 -0.00883588 -0.00840612 -0.00788523 -0.00727078 -0.00656016 -0.00574608 -0.00483585 -0.00382557 -0.00271784 -0.00151882 -0.000239251 0.00110448 0.00248963 0.00388669 0.00525965 0.00657026 0.00776733 0.00880757 0.00964747 0.0102501 0.010589 0.0106514 0.010441 0.00997776 0.00929745 -0.00517473 -0.00601535 -0.00683764 -0.00761048 -0.0083113 -0.00892506 -0.00944292 -0.00986083 -0.0101782 -0.0103965 -0.0105161 -0.0105439 -0.0104807 -0.010328 -0.0100865 -0.00975582 -0.00933419 -0.00881893 -0.00820646 -0.00749265 -0.006668 -0.00573831 -0.00469709 -0.00354462 -0.00228487 -0.000926899 0.000513806 0.0020142 0.00354292 0.00506028 0.00652286 0.00787097 0.00905271 0.0100147 0.0107105 0.0111055 0.0111818 0.0109415 0.0104078 0.00962426 -0.00570999 -0.00662553 -0.00751888 -0.00835594 -0.00911254 -0.00977321 -0.0103295 -0.0107784 -0.0111206 -0.0113591 -0.0114955 -0.0115381 -0.0114883 -0.0113485 -0.0111195 -0.0108009 -0.0103904 -0.00988465 -0.0092787 -0.00856681 -0.00773705 -0.00679334 -0.00572612 -0.00453272 -0.00321419 -0.00177709 -0.000235196 0.00138886 0.00306234 0.0047419 0.00637853 0.00790289 0.00925271 0.0103625 0.0111736 0.0116407 0.0117386 0.0114664 0.0108503 0.00994271 -0.0063645 -0.00736166 -0.00833135 -0.00923621 -0.0100505 -0.0107586 -0.0113529 -0.0118316 -0.0121974 -0.0124548 -0.0126072 -0.0126643 -0.0126286 -0.0125031 -0.012289 -0.0119859 -0.0115911 -0.0111004 -0.0105075 -0.00980506 -0.00897841 -0.00802915 -0.00694414 -0.005717 -0.00434498 -0.00283104 -0.00118612 0.000568591 0.00239977 0.00426078 0.0060967 0.00782738 0.00937816 0.0106685 0.0116242 0.0121858 0.0123174 0.0120132 0.0113015 0.0102443 -0.00715076 -0.00823753 -0.00928972 -0.0102664 -0.0111405 -0.0118963 -0.0125275 -0.0130345 -0.0134219 -0.0136967 -0.0138642 -0.0139356 -0.0139148 -0.0138056 -0.0136098 -0.0133268 -0.0129538 -0.0124856 -0.0119148 -0.011232 -0.01042 -0.00947731 -0.00838677 -0.00713745 -0.00572162 -0.00413733 -0.00239117 -0.000501352 0.00149948 0.00356218 0.00562582 0.00759847 0.00939066 0.0109034 0.0120424 0.0127293 0.0129132 0.0125802 0.0117589 0.0105213 -0.00808352 -0.00926922 -0.010411 -0.0114641 -0.0123997 -0.013203 -0.0138695 -0.0144023 -0.0148088 -0.0150988 -0.0152801 -0.0153657 -0.0153609 -0.0152707 -0.0150973 -0.0148403 -0.0144967 -0.0140607 -0.0135235 -0.0128738 -0.0120915 -0.0111719 -0.0100931 -0.00883849 -0.00739425 -0.00575173 -0.00391123 -0.00188589 0.000294271 0.00257898 0.00490172 0.00715804 0.0092411 0.0110292 0.0124023 0.0132569 0.013521 0.0131676 0.0122233 0.0107695 -0.00918025 -0.0104757 -0.0117152 -0.0128492 -0.013848 -0.0146978 -0.0153968 -0.0159517 -0.0163737 -0.016676 -0.0168692 -0.0169685 -0.016981 -0.0169127 -0.0167667 -0.0165428 -0.016238 -0.0158458 -0.0153563 -0.0147563 -0.0140232 -0.013148 -0.0121036 -0.0108671 -0.00941683 -0.00773542 -0.0058144 -0.00365907 -0.00129403 0.00123163 0.00384692 0.0064348 0.00886839 0.0109983 0.0126721 0.0137521 0.0141371 0.0137802 0.0127013 0.0109902 -0.0104616 -0.0118796 -0.0132257 -0.0144455 -0.0155082 -0.0164019 -0.017129 -0.0177007 -0.018133 -0.0184432 -0.0186455 -0.0187575 -0.0187882 -0.0187451 -0.0186319 -0.0184492 -0.0181938 -0.0178589 -0.0174338 -0.0169035 -0.0162428 -0.0154383 -0.0144573 -0.0132693 -0.0118433 -0.010151 -0.00817209 -0.00590043 -0.00335145 -0.000569505 0.00237217 0.0053449 0.00819945 0.0107535 0.0128132 0.0141965 0.0147608 0.0144294 0.0132092 0.0111957 -0.0119522 -0.0135076 -0.0149704 -0.0162806 -0.0174064 -0.0183395 -0.0190877 -0.0196683 -0.0201033 -0.0204151 -0.0206222 -0.0207447 -0.0207939 -0.0207787 -0.020704 -0.0205708 -0.0203764 -0.0201137 -0.0197715 -0.0193333 -0.018772 -0.018069 -0.017186 -0.0160841 -0.0147211 -0.0130554 -0.0110515 -0.00868747 -0.00596463 -0.00291768 0.000381771 0.00379596 0.00715199 0.0102292 0.0127827 0.0145719 0.0153975 0.0151384 0.0137786 0.0114144 -0.0136816 -0.0153921 -0.0169828 -0.0183869 -0.019573 -0.0205375 -0.021296 -0.0218739 -0.0223007 -0.0226049 -0.0228102 -0.0229391 -0.0230056 -0.0230201 -0.0229887 -0.0229132 -0.0227912 -0.0226161 -0.0223762 -0.0220542 -0.0216214 -0.021054 -0.0203081 -0.0193355 -0.0180818 -0.0164894 -0.014504 -0.0120832 -0.00920811 -0.00589744 -0.00221524 0.00169648 0.00564184 0.00935761 0.012537 0.0148645 0.0160633 0.0159477 0.0144634 0.0116999 -0.0156855 -0.0175723 -0.0193032 -0.0208033 -0.0220428 -0.0230259 -0.0237784 -0.0243368 -0.0247398 -0.0250232 -0.0252164 -0.0253449 -0.0254252 -0.0254694 -0.0254845 -0.0254732 -0.0254339 -0.0253606 -0.0252418 -0.0250595 -0.0247844 -0.0243875 -0.0238194 -0.0230225 -0.021929 -0.0204634 -0.0185491 -0.0161182 -0.0131254 -0.00956527 -0.00548632 -0.00102709 0.0035974 0.00807957 0.012041 0.015072 0.0167923 0.0169235 0.01535 0.0121418 -0.0180077 -0.020097 -0.021981 -0.0235762 -0.0248566 -0.0258377 -0.0265603 -0.0270748 -0.0274318 -0.0276757 -0.0278422 -0.0279595 -0.0280467 -0.0281173 -0.0281792 -0.0282361 -0.0282871 -0.0283271 -0.0283451 -0.0283231 -0.028232 -0.0280375 -0.0276854 -0.027109 -0.0262262 -0.0249425 -0.0231563 -0.0207699 -0.0177049 -0.0139234 -0.00944852 -0.00440443 0.000983005 0.00636453 0.0112833 0.0152162 0.0176483 0.0181702 0.0165713 0.0128807 -0.0207031 -0.023027 -0.0250778 -0.026762 -0.0280614 -0.0290093 -0.0296668 -0.0301032 -0.0303834 -0.0305617 -0.0306806 -0.0307707 -0.0308535 -0.030943 -0.031048 -0.0311728 -0.0313173 -0.0314772 -0.0316423 -0.0317952 -0.0319074 -0.0319398 -0.031834 -0.0315144 -0.0308852 -0.0298321 -0.0282272 -0.0259398 -0.0228534 -0.0188896 -0.0140354 -0.00838705 -0.00216807 0.00423987 0.0103009 0.0153627 0.0187406 0.0198461 0.0183236 0.0141277 -0.0238418 -0.0264409 -0.0286712 -0.0304295 -0.031712 -0.0325793 -0.0331214 -0.0334318 -0.033593 -0.0336706 -0.0337137 -0.0337544 -0.0338155 -0.0339115 -0.0340507 -0.0342377 -0.0344729 -0.0347526 -0.0350676 -0.0354008 -0.035725 -0.0359962 -0.0361526 -0.0361104 -0.0357607 -0.03497 -0.033584 -0.0314381 -0.0283749 -0.0242696 -0.0190634 -0.01281 -0.0057133 0.00182975 0.0092137 0.0156489 0.0202485 0.0221856 0.0208904 0.0161891 -0.0275154 -0.0304418 -0.0328614 -0.0346636 -0.0358717 -0.036588 -0.0369431 -0.0370621 -0.0370484 -0.0369791 -0.0369094 -0.0368714 -0.0368878 -0.0369717 -0.0371305 -0.0373679 -0.037684 -0.0380755 -0.0385334 -0.0390407 -0.0395716 -0.0400768 -0.0404913 -0.0407238 -0.0406532 -0.040128 -0.0389693 -0.0369798 -0.0339612 -0.0297403 -0.0242065 -0.0173581 -0.00936008 -0.000600609 0.00826701 0.0163224 0.0224523 0.0255281 0.0246725 0.0194982 -0.0318479 -0.0351688 -0.0377794 -0.0395697 -0.0406125 -0.0410744 -0.0411428 -0.0409829 -0.0407216 -0.0404472 -0.0402185 -0.0400653 -0.0400078 -0.0400559 -0.0402141 -0.0404839 -0.0408643 -0.041351 -0.0419344 -0.0425968 -0.0433132 -0.0440276 -0.0446721 -0.0451477 -0.0453219 -0.0450268 -0.0440612 -0.0421986 -0.039203 -0.0348552 -0.0289923 -0.0215494 -0.0126362 -0.00260455 0.00787801 0.0177861 0.0257751 0.0303553 0.0302258 0.0246563 -0.0370134 -0.0408156 -0.0436001 -0.0452792 -0.0460146 -0.0460721 -0.045717 -0.0451637 -0.0445638 -0.0440134 -0.0435712 -0.0432603 -0.0430951 -0.0430794 -0.0432126 -0.0434923 -0.0439144 -0.0444723 -0.0451544 -0.0459406 -0.0468051 -0.047684 -0.0485051 -0.0491612 -0.0495082 -0.0493631 -0.0485049 -0.0466817 -0.0436256 -0.0390777 -0.0328281 -0.0247494 -0.014887 -0.00353209 0.0086738 0.0206459 0.0308309 0.0373389 0.0383127 0.032487 -0.0432668 -0.04766 -0.0505608 -0.0519546 -0.0521623 -0.0516006 -0.0506387 -0.049547 -0.0484984 -0.0475905 -0.0468742 -0.0463599 -0.0460515 -0.0459427 -0.0460251 -0.0462898 -0.0467277 -0.0473278 -0.0480745 -0.0489432 -0.0499051 -0.050886 -0.0518078 -0.0525529 -0.052965 -0.0528457 -0.0519558 -0.0500212 -0.0467478 -0.0418448 -0.0350654 -0.0262277 -0.0153153 -0.00254531 0.0115041 0.0257475 0.0384777 0.0474001 0.0499693 0.0441136 -0.051001 -0.0561146 -0.0589869 -0.0597935 -0.0591353 -0.0576523 -0.0558443 -0.0540371 -0.0524138 -0.0510602 -0.0500079 -0.0492464 -0.048762 -0.0485339 -0.0485422 -0.0487687 -0.0491969 -0.0498089 -0.0505826 -0.0514866 -0.0524864 -0.0534947 -0.0544244 -0.0551456 -0.0554871 -0.055234 -0.0541281 -0.0518744 -0.0481556 -0.0426548 -0.0350979 -0.0252605 -0.0130766 0.00130923 0.0174052 0.0341836 0.0498623 0.0617828 0.066603 0.0610783 -0.0608563 -0.0668113 -0.0693278 -0.0690258 -0.0669884 -0.0641697 -0.0612145 -0.0584865 -0.0561537 -0.054268 -0.0528246 -0.0517807 -0.0510968 -0.0507319 -0.0506504 -0.050822 -0.0512197 -0.0518166 -0.0525814 -0.053473 -0.0544486 -0.0554048 -0.0562428 -0.0568168 -0.0569383 -0.0563728 -0.0548405 -0.0520235 -0.0475797 -0.0411663 -0.032484 -0.0212743 -0.00743361 0.00895343 0.027486 0.0472372 0.0664362 0.0821382 0.0901363 0.0855461 -0.0739407 -0.080747 -0.0821963 -0.0798929 -0.0757132 -0.071009 -0.0665467 -0.0626764 -0.059505 -0.057016 -0.0551452 -0.0538025 -0.052913 -0.0524094 -0.0522362 -0.0523478 -0.0527042 -0.0532671 -0.0539938 -0.0548314 -0.0557257 -0.0565551 -0.0572062 -0.0575149 -0.0572718 -0.0562197 -0.0540535 -0.0504269 -0.0449667 -0.0372956 -0.0270797 -0.0140182 0.00203254 0.0210438 0.0427035 0.0662132 0.0898929 0.110604 0.12323 0.120672 -0.0922965 -0.099526 -0.0983942 -0.0925832 -0.0851616 -0.0778781 -0.0715094 -0.0662863 -0.0621783 -0.0590518 -0.0567532 -0.0551276 -0.0540546 -0.0534343 -0.0531877 -0.0532512 -0.0535705 -0.054094 -0.0547662 -0.0555208 -0.0562902 -0.0569339 -0.0573218 -0.0572695 -0.0565452 -0.0548659 -0.0518974 -0.0472592 -0.0405366 -0.0313025 -0.0191636 -0.00374675 0.0151695 0.0376468 0.063492 0.092082 0.121928 0.149809 0.169618 0.171285 -0.119942 -0.125729 -0.11885 -0.107061 -0.0948875 -0.0842144 -0.0755562 -0.0688361 -0.0637715 -0.0600464 -0.0573822 -0.0555414 -0.0543487 -0.0536674 -0.0533933 -0.0534443 -0.053751 -0.0542486 -0.0548689 -0.055532 -0.0561561 -0.0565832 -0.0566661 -0.0562004 -0.0549316 -0.0525509 -0.0486932 -0.0429393 -0.0348243 -0.0238529 -0.00953919 0.00861425 0.0309877 0.0578393 0.0892199 0.124835 0.163629 0.202596 0.234532 0.245144 -0.16532 -0.163319 -0.144246 -0.122614 -0.103774 -0.0889173 -0.0777508 -0.06958 -0.0637086 -0.0595602 -0.0566972 -0.0547877 -0.0535986 -0.0529579 -0.0527383 -0.0528419 -0.0531869 -0.0536976 -0.0542947 -0.0548871 -0.0553798 -0.0556017 -0.05539 -0.0545232 -0.0527275 -0.0496714 -0.0449615 -0.0381413 -0.0286924 -0.0160409 0.00042014 0.0213673 0.0474484 0.0793009 0.117495 0.16246 0.214196 0.270929 0.324919 0.355248 -0.247247 -0.217358 -0.173576 -0.136531 -0.109103 -0.0897946 -0.0764757 -0.067366 -0.0611751 -0.0570134 -0.0542798 -0.0525602 -0.0515776 -0.0511371 -0.0510989 -0.0513572 -0.0518242 -0.0524189 -0.053056 -0.0536377 -0.0540595 -0.0541442 -0.0537182 -0.0525487 -0.0503495 -0.0467741 -0.0414094 -0.0337704 -0.0232949 -0.00933652 0.00883542 0.0320977 0.061444 0.0980793 0.143488 0.199542 0.268601 0.352818 0.448104 0.524444 -0.408303 -0.289451 -0.198329 -0.140243 -0.104703 -0.0828675 -0.0692366 -0.0606147 -0.0551428 -0.0517133 -0.0496478 -0.0485134 -0.048033 -0.0480191 -0.0483401 -0.0488973 -0.0496088 -0.050397 -0.0511791 -0.0518581 -0.0523261 -0.0524111 -0.0519346 -0.0506622 -0.0483055 -0.0445147 -0.0388712 -0.0308791 -0.019955 -0.00541117 0.0135668 0.0380019 0.0691856 0.108896 0.159749 0.225847 0.31395 0.435273 0.603487 0.796386 -0.747522 -0.33976 -0.181389 -0.113323 -0.0803837 -0.0629703 -0.0532546 -0.0477172 -0.044611 -0.0429978 -0.0423414 -0.0423164 -0.0427217 -0.043424 -0.0443312 -0.0453734 -0.0464903 -0.0476212 -0.0486966 -0.0496315 -0.0503231 -0.0506174 -0.0503401 -0.0492671 -0.0471204 -0.0435613 -0.0381826 -0.0305005 -0.0199424 -0.00582954 0.0126536 0.0365356 0.0671623 0.106471 0.157578 0.226193 0.324258 0.478806 0.747851 1.2473 0 0 0 0 0 0 0 0 0 0 0 0 0 0 0 0 0 0 0 0 0 0 0 0 0 0 0 0 0 0 0 0 0 0 0 0 0 0 0 0 -0.00321538 -0.00361702 -0.0041337 -0.00459932 -0.00497747 -0.00525996 -0.00544536 -0.00553457 -0.00552984 -0.00543454 -0.005253 -0.00499026 -0.00465193 -0.00424409 -0.00377322 -0.00324617 -0.00267015 -0.00205277 -0.00140209 -0.000726651 -3.55946e-05 0.000661431 0.00135433 0.00203244 0.00268472 0.00329983 0.00386636 0.004373 0.00480885 0.00516367 0.0054282 0.00559446 0.00565607 0.00560838 0.00544862 0.0051761 0.00479306 0.00430938 0.00376542 0.00333939 -0.00398409 -0.00408973 -0.004368 -0.00467766 -0.00495454 -0.00516995 -0.0053109 -0.00537176 -0.00535089 -0.00524899 -0.00506844 -0.00481273 -0.0044862 -0.00409388 -0.00364142 -0.00313497 -0.00258121 -0.00198736 -0.00136114 -0.00071088 -4.55511e-05 0.000625361 0.00129197 0.00194383 0.00257016 0.00316003 0.00370254 0.00418708 0.00460366 0.00494323 0.00519801 0.00536192 0.00543104 0.00540408 0.00528314 0.00507525 0.00479578 0.00447688 0.00418793 0.0040788 -0.00432251 -0.00438896 -0.00456965 -0.00478748 -0.00499194 -0.00515361 -0.0052562 -0.00529113 -0.00525437 -0.00514483 -0.00496338 -0.00471222 -0.00439452 -0.00401435 -0.00357648 -0.00308635 -0.00255001 -0.00197416 -0.00136615 -0.000733964 -8.6372e-05 0.000567322 0.0012174 0.00185355 0.0024651 0.00304127 0.00357138 0.00404517 0.00445316 0.00478701 0.00503997 0.00520734 0.00528714 0.00528059 0.00519316 0.00503617 0.00482964 0.00460734 0.00442426 0.00436111 -0.00446756 -0.00457296 -0.00473237 -0.00490916 -0.00507154 -0.005197 -0.00527119 -0.0052855 -0.00523531 -0.00511865 -0.0049355 -0.0046871 -0.00437571 -0.00400451 -0.00357747 -0.00309929 -0.00257538 -0.00201189 -0.00141571 -0.000794483 -0.000156741 0.000488365 0.00113123 0.00176152 0.00236854 0.00294142 0.00346942 0.00394228 0.00435065 0.00468651 0.00494364 0.00511824 0.00520954 0.0052203 0.00515766 0.00503417 0.0048691 0.00468991 0.00453219 0.00443383 -0.00453964 -0.00470308 -0.00487672 -0.00504457 -0.00518867 -0.0052942 -0.00535054 -0.00535076 -0.00529077 -0.00516855 -0.0049837 -0.0047369 -0.0044297 -0.00406457 -0.00364473 -0.00317419 -0.00265774 -0.00210095 -0.00151025 -0.000892907 -0.000257268 0.000387641 0.00103224 0.00166607 0.00227819 0.00285744 0.00339274 0.00387351 0.00429016 0.00463458 0.00490068 0.005085 0.00518738 0.00521124 0.00516414 0.00505812 0.00490976 0.00473953 0.00456926 0.00441606 -0.00460259 -0.00482483 -0.00502766 -0.00520482 -0.00534701 -0.00544547 -0.00549333 -0.00548585 -0.00542003 -0.00529429 -0.00510827 -0.00486235 -0.0045576 -0.00419591 -0.00377987 -0.00331284 -0.00279899 -0.00224334 -0.00165187 -0.00103149 -0.000390362 0.000262548 0.000917592 0.00156405 0.00219059 0.00278