# vtk DataFile Version 2.0
Velocidades
ASCII

DATASET STRUCTURED_GRID
DIMENSIONS   40   40   20

POINTS   32000   double
0.0125   0.0125   0.025
0.0125   0.0375   0.025
0.0125   0.0625   0.025
0.0125   0.0875   0.025
0.0125   0.1125   0.025
0.0125   0.1375   0.025
0.0125   0.1625   0.025
0.0125   0.1875   0.025
0.0125   0.2125   0.025
0.0125   0.2375   0.025
0.0125   0.2625   0.025
0.0125   0.2875   0.025
0.0125   0.3125   0.025
0.0125   0.3375   0.025
0.0125   0.3625   0.025
0.0125   0.3875   0.025
0.0125   0.4125   0.025
0.0125   0.4375   0.025
0.0125   0.4625   0.025
0.0125   0.4875   0.025
0.0125   0.5125   0.025
0.0125   0.5375   0.025
0.0125   0.5625   0.025
0.0125   0.5875   0.025
0.0125   0.6125   0.025
0.0125   0.6375   0.025
0.0125   0.6625   0.025
0.0125   0.6875   0.025
0.0125   0.7125   0.025
0.0125   0.7375   0.025
0.0125   0.7625   0.025
0.0125   0.7875   0.025
0.0125   0.8125   0.025
0.0125   0.8375   0.025
0.0125   0.8625   0.025
0.0125   0.8875   0.025
0.0125   0.9125   0.025
0.0125   0.9375   0.025
0.0125   0.9625   0.025
0.0125   0.9875   0.025
0.0375   0.0125   0.025
0.0375   0.0375   0.025
0.0375   0.0625   0.025
0.0375   0.0875   0.025
0.0375   0.1125   0.025
0.0375   0.1375   0.025
0.0375   0.1625   0.025
0.0375   0.1875   0.025
0.0375   0.2125   0.025
0.0375   0.2375   0.025
0.0375   0.2625   0.025
0.0375   0.2875   0.025
0.0375   0.3125   0.025
0.0375   0.3375   0.025
0.0375   0.3625   0.025
0.0375   0.3875   0.025
0.0375   0.4125   0.025
0.0375   0.4375   0.025
0.0375   0.4625   0.025
0.0375   0.4875   0.025
0.0375   0.5125   0.025
0.0375   0.5375   0.025
0.0375   0.5625   0.025
0.0375   0.5875   0.025
0.0375   0.6125   0.025
0.0375   0.6375   0.025
0.0375   0.6625   0.025
0.0375   0.6875   0.025
0.0375   0.7125   0.025
0.0375   0.7375   0.025
0.0375   0.7625   0.025
0.0375   0.7875   0.025
0.0375   0.8125   0.025
0.0375   0.8375   0.025
0.0375   0.8625   0.025
0.0375   0.8875   0.025
0.0375   0.9125   0.025
0.0375   0.9375   0.025
0.0375   0.9625   0.025
0.0375   0.9875   0.025
0.0625   0.0125   0.025
0.0625   0.0375   0.025
0.0625   0.0625   0.025
0.0625   0.0875   0.025
0.0625   0.1125   0.025
0.0625   0.1375   0.025
0.0625   0.1625   0.025
0.0625   0.1875   0.025
0.0625   0.2125   0.025
0.0625   0.2375   0.025
0.0625   0.2625   0.025
0.0625   0.2875   0.025
0.0625   0.3125   0.025
0.0625   0.3375   0.025
0.0625   0.3625   0.025
0.0625   0.3875   0.025
0.0625   0.4125   0.025
0.0625   0.4375   0.025
0.0625   0.4625   0.025
0.0625   0.4875   0.025
0.0625   0.5125   0.025
0.0625   0.5375   0.025
0.0625   0.5625   0.025
0.0625   0.5875   0.025
0.0625   0.6125   0.025
0.0625   0.6375   0.025
0.0625   0.6625   0.025
0.0625   0.6875   0.025
0.0625   0.7125   0.025
0.0625   0.7375   0.025
0.0625   0.7625   0.025
0.0625   0.7875   0.025
0.0625   0.8125   0.025
0.0625   0.8375   0.025
0.0625   0.8625   0.025
0.0625   0.8875   0.025
0.0625   0.9125   0.025
0.0625   0.9375   0.025
0.0625   0.9625   0.025
0.0625   0.9875   0.025
0.0875   0.0125   0.025
0.0875   0.0375   0.025
0.0875   0.0625   0.025
0.0875   0.0875   0.025
0.0875   0.1125   0.025
0.0875   0.1375   0.025
0.0875   0.1625   0.025
0.0875   0.1875   0.025
0.0875   0.2125   0.025
0.0875   0.2375   0.025
0.0875   0.2625   0.025
0.0875   0.2875   0.025
0.0875   0.3125   0.025
0.0875   0.3375   0.025
0.0875   0.3625   0.025
0.0875   0.3875   0.025
0.0875   0.4125   0.025
0.0875   0.4375   0.025
0.0875   0.4625   0.025
0.0875   0.4875   0.025
0.0875   0.5125   0.025
0.0875   0.5375   0.025
0.0875   0.5625   0.025
0.0875   0.5875   0.025
0.0875   0.6125   0.025
0.0875   0.6375   0.025
0.0875   0.6625   0.025
0.0875   0.6875   0.025
0.0875   0.7125   0.025
0.0875   0.7375   0.025
0.0875   0.7625   0.025
0.0875   0.7875   0.025
0.0875   0.8125   0.025
0.0875   0.8375   0.025
0.0875   0.8625   0.025
0.0875   0.8875   0.025
0.0875   0.9125   0.025
0.0875   0.9375   0.025
0.0875   0.9625   0.025
0.0875   0.9875   0.025
0.1125   0.0125   0.025
0.1125   0.0375   0.025
0.1125   0.0625   0.025
0.1125   0.0875   0.025
0.1125   0.1125   0.025
0.1125   0.1375   0.025
0.1125   0.1625   0.025
0.1125   0.1875   0.025
0.1125   0.2125   0.025
0.1125   0.2375   0.025
0.1125   0.2625   0.025
0.1125   0.2875   0.025
0.1125   0.3125   0.025
0.1125   0.3375   0.025
0.1125   0.3625   0.025
0.1125   0.3875   0.025
0.1125   0.4125   0.025
0.1125   0.4375   0.025
0.1125   0.4625   0.025
0.1125   0.4875   0.025
0.1125   0.5125   0.025
0.1125   0.5375   0.025
0.1125   0.5625   0.025
0.1125   0.5875   0.025
0.1125   0.6125   0.025
0.1125   0.6375   0.025
0.1125   0.6625   0.025
0.1125   0.6875   0.025
0.1125   0.7125   0.025
0.1125   0.7375   0.025
0.1125   0.7625   0.025
0.1125   0.7875   0.025
0.1125   0.8125   0.025
0.1125   0.8375   0.025
0.1125   0.8625   0.025
0.1125   0.8875   0.025
0.1125   0.9125   0.025
0.1125   0.9375   0.025
0.1125   0.9625   0.025
0.1125   0.9875   0.025
0.1375   0.0125   0.025
0.1375   0.0375   0.025
0.1375   0.0625   0.025
0.1375   0.0875   0.025
0.1375   0.1125   0.025
0.1375   0.1375   0.025
0.1375   0.1625   0.025
0.1375   0.1875   0.025
0.1375   0.2125   0.025
0.1375   0.2375   0.025
0.1375   0.2625   0.025
0.1375   0.2875   0.025
0.1375   0.3125   0.025
0.1375   0.3375   0.025
0.1375   0.3625   0.025
0.1375   0.3875   0.025
0.1375   0.4125   0.025
0.1375   0.4375   0.025
0.1375   0.4625   0.025
0.1375   0.4875   0.025
0.1375   0.5125   0.025
0.1375   0.5375   0.025
0.1375   0.5625   0.025
0.1375   0.5875   0.025
0.1375   0.6125   0.025
0.1375   0.6375   0.025
0.1375   0.6625   0.025
0.1375   0.6875   0.025
0.1375   0.7125   0.025
0.1375   0.7375   0.025
0.1375   0.7625   0.025
0.1375   0.7875   0.025
0.1375   0.8125   0.025
0.1375   0.8375   0.025
0.1375   0.8625   0.025
0.1375   0.8875   0.025
0.1375   0.9125   0.025
0.1375   0.9375   0.025
0.1375   0.9625   0.025
0.1375   0.9875   0.025
0.1625   0.0125   0.025
0.1625   0.0375   0.025
0.1625   0.0625   0.025
0.1625   0.0875   0.025
0.1625   0.1125   0.025
0.1625   0.1375   0.025
0.1625   0.1625   0.025
0.1625   0.1875   0.025
0.1625   0.2125   0.025
0.1625   0.2375   0.025
0.1625   0.2625   0.025
0.1625   0.2875   0.025
0.1625   0.3125   0.025
0.1625   0.3375   0.025
0.1625   0.3625   0.025
0.1625   0.3875   0.025
0.1625   0.4125   0.025
0.1625   0.4375   0.025
0.1625   0.4625   0.025
0.1625   0.4875   0.025
0.1625   0.5125   0.025
0.1625   0.5375   0.025
0.1625   0.5625   0.025
0.1625   0.5875   0.025
0.1625   0.6125   0.025
0.1625   0.6375   0.025
0.1625   0.6625   0.025
0.1625   0.6875   0.025
0.1625   0.7125   0.025
0.1625   0.7375   0.025
0.1625   0.7625   0.025
0.1625   0.7875   0.025
0.1625   0.8125   0.025
0.1625   0.8375   0.025
0.1625   0.8625   0.025
0.1625   0.8875   0.025
0.1625   0.9125   0.025
0.1625   0.9375   0.025
0.1625   0.9625   0.025
0.1625   0.9875   0.025
0.1875   0.0125   0.025
0.1875   0.0375   0.025
0.1875   0.0625   0.025
0.1875   0.0875   0.025
0.1875   0.1125   0.025
0.1875   0.1375   0.025
0.1875   0.1625   0.025
0.1875   0.1875   0.025
0.1875   0.2125   0.025
0.1875   0.2375   0.025
0.1875   0.2625   0.025
0.1875   0.2875   0.025
0.1875   0.3125   0.025
0.1875   0.3375   0.025
0.1875   0.3625   0.025
0.1875   0.3875   0.025
0.1875   0.4125   0.025
0.1875   0.4375   0.025
0.1875   0.4625   0.025
0.1875   0.4875   0.025
0.1875   0.5125   0.025
0.1875   0.5375   0.025
0.1875   0.5625   0.025
0.1875   0.5875   0.025
0.1875   0.6125   0.025
0.1875   0.6375   0.025
0.1875   0.6625   0.025
0.1875   0.6875   0.025
0.1875   0.7125   0.025
0.1875   0.7375   0.025
0.1875   0.7625   0.025
0.1875   0.7875   0.025
0.1875   0.8125   0.025
0.1875   0.8375   0.025
0.1875   0.8625   0.025
0.1875   0.8875   0.025
0.1875   0.9125   0.025
0.1875   0.9375   0.025
0.1875   0.9625   0.025
0.1875   0.9875   0.025
0.2125   0.0125   0.025
0.2125   0.0375   0.025
0.2125   0.0625   0.025
0.2125   0.0875   0.025
0.2125   0.1125   0.025
0.2125   0.1375   0.025
0.2125   0.1625   0.025
0.2125   0.1875   0.025
0.2125   0.2125   0.025
0.2125   0.2375   0.025
0.2125   0.2625   0.025
0.2125   0.2875   0.025
0.2125   0.3125   0.025
0.2125   0.3375   0.025
0.2125   0.3625   0.025
0.2125   0.3875   0.025
0.2125   0.4125   0.025
0.2125   0.4375   0.025
0.2125   0.4625   0.025
0.2125   0.4875   0.025
0.2125   0.5125   0.025
0.2125   0.5375   0.025
0.2125   0.5625   0.025
0.2125   0.5875   0.025
0.2125   0.6125   0.025
0.2125   0.6375   0.025
0.2125   0.6625   0.025
0.2125   0.6875   0.025
0.2125   0.7125   0.025
0.2125   0.7375   0.025
0.2125   0.7625   0.025
0.2125   0.7875   0.025
0.2125   0.8125   0.025
0.2125   0.8375   0.025
0.2125   0.8625   0.025
0.2125   0.8875   0.025
0.2125   0.9125   0.025
0.2125   0.9375   0.025
0.2125   0.9625   0.025
0.2125   0.9875   0.025
0.2375   0.0125   0.025
0.2375   0.0375   0.025
0.2375   0.0625   0.025
0.2375   0.0875   0.025
0.2375   0.1125   0.025
0.2375   0.1375   0.025
0.2375   0.1625   0.025
0.2375   0.1875   0.025
0.2375   0.2125   0.025
0.2375   0.2375   0.025
0.2375   0.2625   0.025
0.2375   0.2875   0.025
0.2375   0.3125   0.025
0.2375   0.3375   0.025
0.2375   0.3625   0.025
0.2375   0.3875   0.025
0.2375   0.4125   0.025
0.2375   0.4375   0.025
0.2375   0.4625   0.025
0.2375   0.4875   0.025
0.2375   0.5125   0.025
0.2375   0.5375   0.025
0.2375   0.5625   0.025
0.2375   0.5875   0.025
0.2375   0.6125   0.025
0.2375   0.6375   0.025
0.2375   0.6625   0.025
0.2375   0.6875   0.025
0.2375   0.7125   0.025
0.2375   0.7375   0.025
0.2375   0.7625   0.025
0.2375   0.7875   0.025
0.2375   0.8125   0.025
0.2375   0.8375   0.025
0.2375   0.8625   0.025
0.2375   0.8875   0.025
0.2375   0.9125   0.025
0.2375   0.9375   0.025
0.2375   0.9625   0.025
0.2375   0.9875   0.025
0.2625   0.0125   0.025
0.2625   0.0375   0.025
0.2625   0.0625   0.025
0.2625   0.0875   0.025
0.2625   0.1125   0.025
0.2625   0.1375   0.025
0.2625   0.1625   0.025
0.2625   0.1875   0.025
0.2625   0.2125   0.025
0.2625   0.2375   0.025
0.2625   0.2625   0.025
[...]
POINT_DATA   32000
VECTORS Velocidades double

4.07387e-05 0 0
0.000122223 0 0
0.000203852 0 0
0.000285841 0 0
0.000368467 0 0
0.000452064 0 0
0.000537015 0 0
0.000623755 0 0
0.000712769 0 0
0.000804603 0 0
0.000899871 0 0
0.000999269 0 0
0.0011036 0 0
0.00121377 0 0
0.00133088 0 0
0.0014562 0 0
0.00159126 0 0
0.0017379 0 0
0.00189839 0 0
0.00207549 0 0
0.00227265 0 0
0.00249417 0 0
0.00274545 0 0
0.0030334 0 0
0.00336686 0 0
0.0037574 0 0
0.00422037 0 0
0.00477655 0 0
0.0054548 0 0
0.00629622 0 0
0.00736126 0 0
0.00874216 0 0
0.0105861 0 0
0.0131414 0 0
0.0168568 0 0
0.022619 0 0
0.032394 0 0
0.0512447 0 0
0.0949524 0 0
0.225921 0 0
0.000116028 0 0
0.000348116 0 0
0.000580645 0 0
0.000814236 0 0
0.00104969 0 0
0.00128796 0 0
0.00153014 0 0
0.00177748 0 0
0.00203137 0 0
0.00229337 0 0
0.00256523 0 0
0.00284894 0 0
0.00314679 0 0
0.00346142 0 0
0.00379591 0 0
0.00415394 0 0
0.00453987 0 0
0.004959 0 0
0.00541779 0 0
0.00592417 0 0
0.006488 0 0
0.00712163 0 0
0.00784058 0 0
0.00866464 0 0
0.00961925 0 0
0.0107376 0 0
0.0120638 0 0
0.0136576 0 0
0.0156018 0 0
0.0180144 0 0
0.0210687 0 0
0.0250284 0 0
0.030313 0 0
0.0376247 0 0
0.0482176 0 0
0.064517 0 0
0.0917018 0 0
0.142285 0 0
0.251407 0 0
0.53661 0 0
0.000181138 0 0
0.000543495 0 0
0.000906614 0 0
0.0012715 0 0
0.00163941 0 0
0.00201187 0 0
0.0023906 0 0
0.00277756 0 0
0.00317494 0 0
0.00358519 0 0
0.00401106 0 0
0.0044557 0 0
0.00492269 0 0
0.00541618 0 0
0.00594105 0 0
0.00650304 0 0
0.00710904 0 0
0.00776739 0 0
0.00848824 0 0
0.00928412 0 0
0.0101705 0 0
0.011167 0 0
0.012298 0 0
0.0135949 0 0
0.0150978 0 0
0.0168594 0 0
0.0189491 0 0
0.0214616 0 0
0.0245274 0 0
0.0283326 0 0
0.0331495 0 0
0.0393906 0 0
0.0477068 0 0
0.0591749 0 0
0.0756798 0 0
0.10075 0 0
0.141529 0 0
0.213824 0 0
0.355917 0 0
0.665393 0 0
0.000239525 0 0
0.000718727 0 0
0.00119906 0 0
0.00168189 0 0
0.00216894 0 0
0.00266225 0 0
0.00316414 0 0
0.00367721 0 0
0.00420439 0 0
0.00474896 0 0
0.00531459 0 0
0.00590547 0 0
0.00652637 0 0
0.00718284 0 0
0.00788138 0 0
0.00862966 0 0
0.00943688 0 0
0.0103141 0 0
0.011275 0 0
0.0123361 0 0
0.0135183 0 0
0.0148476 0 0
0.0163569 0 0
0.0180879 0 0
0.0200948 0 0
0.0224477 0 0
0.0252399 0 0
0.0285974 0 0
0.0326948 0 0
0.0377794 0 0
0.0442115 0 0
0.0525338 0 0
0.0635935 0 0
0.0787717 0 0
0.100432 0 0
0.132851 0 0
0.18426 0 0
0.271509 0 0
0.430681 0 0
0.735726 0 0
0.000293195 0 0
0.000879835 0 0
0.00146801 0 0
0.00205949 0 0
0.00265645 0 0
0.0032614 0 0
0.00387726 0 0
0.00450725 0 0
0.00515499 0 0
0.00582453 0 0
0.00652042 0 0
0.00724782 0 0
0.00801265 0 0
0.00882175 0 0
0.00968315 0 0
0.0106063 0 0
0.0116027 0 0
0.0126858 0 0
0.0138725 0 0
0.0151834 0 0
0.0166441 0 0
0.0182868 0 0
0.0201521 0 0
0.022292 0 0
0.0247733 0 0
0.0276828 0 0
0.0311356 0 0
0.0352873 0 0
0.0403522 0 0
0.0466331 0 0
0.0545689 0 0
0.064815 0 0
0.0783835 0 0
0.0968973 0 0
0.123072 0 0
0.161668 0 0
0.221428 0 0
0.319078 0 0
0.486825 0 0
0.779241 0 0
0.000343365 0 0
0.00103046 0 0
0.00171956 0 0
0.00241283 0 0
0.00311289 0 0
0.00382279 0 0
0.00454597 0 0
0.00528628 0 0
0.00604801 0 0
0.00683594 0 0
0.00765547 0 0
0.0085127 0 0
0.00941462 0 0
0.0103693 0 0
0.0113863 0 0
0.0124768 0 0
0.0136542 0 0
0.0149346 0 0
0.0163378 0 0
0.0178881 0 0
0.0196157 0 0
0.0215586 0 0
0.0237647 0 0
0.0262956 0 0
0.02923 0 0
0.0326707 0 0
0.0367531 0 0
0.0416596 0 0
0.0476413 0 0
0.0550509 0 0
0.0643968 0 0
0.0764314 0 0
0.0923029 0 0
0.113824 0 0
0.143962 0 0
0.187764 0 0
0.25412 0 0
0.359029 0 0
0.530522 0 0
0.80843 0 0
0.000390787 0 0
0.00117287 0 0
0.00195747 0 0
0.00274719 0 0
0.00354512 0 0
0.00435481 0 0
0.00518027 0 0
0.00602594 0 0
0.00689676 0 0
0.00779826 0 0
0.00873663 0 0
0.00971888 0 0
0.0107531 0 0
0.0118485 0 0
0.013016 0 0
0.0142685 0 0
0.0156214 0 0
0.0170933 0 0
0.0187068 0 0
0.0204895 0 0
0.0224761 0 0
0.0247099 0 0
0.0272458 0 0
0.0301544 0 0
0.0335261 0 0
0.0374782 0 0
0.0421649 0 0
0.0477938 0 0
0.054649 0 0
0.0631282 0 0
0.0738008 0 0
0.0875019 0 0
0.105491 0 0
0.129727 0 0
0.16335 0 0
0.211553 0 0
0.283138 0 0
0.393092 0 0
0.565496 0 0
0.829225 0 0
0.000435939 0 0
0.00130849 0 0
0.00218413 0 0
0.00306593 0 0
0.00395746 0 0
0.00486281 0 0
0.00578652 0 0
0.00673364 0 0
0.00770978 0 0
0.00872115 0 0
0.00977473 0 0
0.0108784 0 0
0.0120413 0 0
0.0132738 0 0
0.0145883 0 0
0.0159992 0 0
0.0175239 0 0
0.0191832 0 0
0.0210026 0 0
0.0230131 0 0
0.0252534 0 0
0.0277718 0 0
0.0306297 0 0
0.0339061 0 0
0.0377026 0 0
0.04215 0 0
0.0474201 0 0
0.053743 0 0
0.0614333 0 0
0.0709287 0 0
0.0828516 0 0
0.0981073 0 0
0.118046 0 0
0.144735 0 0
0.181426 0 0
0.233359 0 0
0.309101 0 0
0.422508 0 0
0.594135 0 0
0.844761 0 0
0.000479118 0 0
0.00143821 0 0
0.00240105 0 0
0.00337116 0 0
0.00435266 0 0
0.00535015 0 0
0.00636876 0 0
0.00741413 0 0
0.0084925 0 0
0.00961079 0 0
0.0107768 0 0
0.0119992 0 0
0.0132881 0 0
0.0146551 0 0
0.0161138 0 0
0.0176804 0 0
0.0193741 0 0
0.0212181 0 0
0.0232405 0 0
0.0254757 0 0
0.0279665 0 0
0.0307657 0 0
0.0339406 0 0
0.0375776 0 0
0.0417895 0 0
0.0467193 0 0
0.0525547 0 0
0.0595469 0 0
0.0680376 0 0
0.0785002 0 0
0.0916031 0 0
0.10831 0 0
0.130044 0 0
0.158951 0 0
0.198348 0 0
0.253446 0 0
0.332492 0 0
0.448195 0 0
0.61804 0 0
0.856825 0 0
0.000520502 0 0
0.00156257 0 0
0.0026091 0 0
0.00366416 0 0
0.00473237 0 0
0.00581891 0 0
0.00692948 0 0
0.00807034 0 0
0.00924836 0 0
0.0104711 0 0
0.0117472 0 0
0.0130861 0 0
0.0144989 0 0
0.0159984 0 0
0.0175994 0 0
0.0193197 0 0
0.0211803 0 0
0.0232068 0 0
0.0254301 0 0
0.0278881 0 0
0.0306276 0 0
0.0337074 0 0
0.0372017 0 0
0.0412095 0 0
0.0458329 0 0
0.0512354 0 0
0.0576217 0 0
0.0652627 0 0
0.0745249 0 0
0.0859131 0 0
0.100135 0 0
0.118203 0 0
0.141596 0 0
0.172515 0 0
0.214302 0 0
0.272091 0 0
0.353753 0 0
0.470891 0 0
0.638358 0 0
0.866511 0 0
0.000560175 0 0
0.00168183 0 0
0.00280875 0 0
0.00394554 0 0
0.00509742 0 0
0.00627015 0 0
0.00747002 0 0
0.00870389 0 0
0.00997926 0 0
0.0113044 0 0
0.0126886 0 0
0.0141422 0 0
0.0156773 0 0
0.0173075 0 0
0.0190492 0 0
0.0209214 0 0
0.0229473 0 0
0.0251544 0 0
0.0275765 0 0
0.0302551 0 0
0.0332414 0 0
0.0365995 0 0
0.0404112 0 0
0.0447822 0 0
0.0498122 0 0
0.0556785 0 0
0.062602 0 0
0.0708723 0 0
0.0808785 0 0
0.093153 0 0
0.108438 0 0
0.127784 0 0
0.152714 0 0
0.185463 0 0
0.22937 0 0
0.289453 0 0
0.373183 0 0
0.49112 0 0
0.655875 0 0
0.874493 0 0
0.000598151 0 0
0.00179603 0 0
0.00300005 0 0
0.00421545 0 0
0.00544804 0 0
0.00670418 0 0
0.00799079 0 0
0.00931533 0 0
0.0106859 0 0
0.0121116 0 0
0.0136022 0 0
0.015169 0 0
0.0168248 0 0
0.0185844 0 0
0.0204653 0 0
0.0224882 0 0
0.0246776 0 0
0.0270635 0 0
0.0296821 0 0
0.0325781 0 0
0.0358066 0 0
0.0394361 0 0
0.0435524 0 0
0.0482612 0 0
0.0536851 0 0
0.060003 0 0
0.067448 0 0
0.0763262 0 0
0.087047 0 0
0.100167 0 0
0.116458 0 0
0.137004 0 0
0.163358 0 0
0.197773 0 0
0.243565 0 0
0.30561 0 0
0.390973 0 0
0.509243 0 0
0.671131 0 0
0.881193 0 0
0.000634387 0 0
0.00190505 0 0
0.00318283 0 0
0.00447363 0 0
0.00578392 0 0
0.00712071 0 0
0.00849152 0 0
0.00990445 0 0
0.0113683 0 0
0.0128926 0 0
0.0144881 0 0
0.0161666 0 0
0.0179419 0 0
0.0198298 0 0
0.0218488 0 0
0.0240209 0 0
0.0263724 0 0
0.0289351 0 0
0.0317476 0 0
0.0348574 0 0
0.0383228 0 0
0.042216 0 0
0.0466265 0 0
0.0516649 0 0
0.0574691 0 0
0.0642246 0 0
0.0721745 0 0
0.0816395 0 0
0.0930468 0 0
0.106975 0 0
0.124219 0 0
0.145891 0 0
0.173565 0 0
0.2095 0 0
0.256969 0 0
0.320695 0 0
0.407334 0 0
0.52559 0 0
0.684559 0 0
0.886917 0 0
0.00066879 0 0
0.00200861 0 0
0.00335663 0 0
0.00471949 0 0
0.00610435 0 0
0.00751889 0 0
0.0089713 0 0
0.0104703 0 0
0.0120253 0 0
0.0136466 0 0
0.0153454 0 0
0.0171344 0 0
0.0190281 0 0
0.0210432 0 0
0.0231993 0 0
0.0255195 0 0
0.0280317 0 0
0.0307694 0 0
0.0337734 0 0
0.0370935 0 0
0.0407911 0 0
0.0449419 0 0
0.0496395 0 0
0.055001 0 0
0.0611746 0 0
0.0683541 0 0
0.0767929 0 0
0.0868241 0 0
0.0988909 0 0
0.113591 0 0
0.131739 0 0
0.154469 0 0
0.183368 0 0
0.220691 0 0
0.269656 0 0
0.334819 0 0
0.422444 0 0
0.540424 0 0
0.696487 0 0
0.891881 0 0
0.000701217 0 0
0.00210628 0 0
0.00352076 0 0
0.00495207 0 0
0.00640814 0 0
0.00789736 0 0
0.0094286 0 0
0.0110113 0 0
0.0126554 0 0
0.0143718 0 0
0.0161725 0 0
0.0180708 0 0
0.0200819 0 0
0.0222233 0 0
0.0245156 0 0
0.026983 0 0
0.0296548 0 0
0.032566 0 0
0.0357594 0 0
0.039287 0 0
0.043213 0 0
0.0476166 0 0
0.0525959 0 0
0.0582742 0 0
0.064808 0 0
0.0723995 0 0
0.0813116 0 0
0.0918895 0 0
0.10459 0 0
0.120027 0 0
0.139034 0 0
0.162758 0 0
0.192795 0 0
0.231388 0 0
0.281687 0 0
0.34808 0 0
0.436452 0 0
0.55396 0 0
0.707169 0 0
0.896237 0 0
0.000731479 0 0
0.00219751 0 0
0.0036743 0 0
0.00517012 0 0
0.00669373 0 0
0.00825427 0 0
0.00986133 0 0
0.011525 0 0
0.0132559 0 0
0.0150656 0 0
0.0169667 0 0
0.0189731 0 0
0.0211007 0 0
0.0233677 0 0
0.0257956 0 0
0.0284097 0 0
0.0312403 0 0
0.0343239 0 0
0.037705 0 0
0.041438 0 0
0.0455896 0 0
0.0502424 0 0
0.0554989 0 0
0.0614883 0 0
0.0683741 0 0
0.0763664 0 0
0.0857376 0 0
0.0968434 0 0
0.110154 0 0
0.126296 0 0
0.146117 0 0
0.170777 0 0
0.201873 0 0
0.241626 0 0
0.293118 0 0
0.360562 0 0
0.449483 0 0
0.566373 0 0
0.716804 0 0
0.900102 0 0
0.000759342 0 0
0.00228159 0 0
0.00381608 0 0
0.00537205 0 0
0.0069591 0 0
0.00858723 0 0
0.0102668 0 0
0.0120085 0 0
0.0138238 0 0
0.0157248 0 0
0.0177246 0 0
0.0198379 0 0
0.0220811 0 0
0.0244732 0 0
0.0270363 0 0
0.0297967 0 0
0.0327857 0 0
0.0360412 0 0
0.0396093 0 0
0.0435463 0 0
0.0479215 0 0
0.0528207 0 0
0.0583508 0 0
0.0646459 0 0
0.0718763 0 0
0.0802596 0 0
0.0900764 0 0
0.101693 0 0
0.115589 0 0
0.132405 0 0
0.153001 0 0
0.178541 0 0
0.210623 0 0
0.251439 0 0
0.303997 0 0
0.372337 0 0
0.461643 0 0
0.577806 0 0
0.72555 0 0
0.90356 0 0
0.000784521 0 0
0.00235767 0 0
0.00394472 0 0
0.00555591 0 0
0.00720182 0 0
0.00889332 0 0
0.0106416 0 0
0.0124581 0 0
0.014355 0 0
0.0163449 0 0
0.0184418 0 0
0.0206607 0 0
0.0230187 0 0
0.0255354 0 0
0.0282336 0 0
0.0311403 0 0
0.0342879 0 0
0.0377153 0 0
0.0414701 0 0
0.0456106 0 0
0.0502083 0 0
0.055352 0 0
0.0611526 0 0
0.0677491 0 0
0.0753176 0 0
0.0840826 0 0
0.0943328 0 0
0.106443 0 0
0.120904 0 0
0.138366 0 0
0.159696 0 0
0.186066 0 0
0.219066 0 0
0.260857 0 0
0.314367 0 0
0.38347 0 0
0.473024 0 0
0.58838 0 0
0.733533 0 0
0.906679 0 0
0.000806686 0 0
0.00242477 0 0
0.00405856 0 0
0.00571943 0 0
0.00741899 0 0
0.00916906 0 0
0.0109817 0 0
0.0128692 0 0
0.0148444 0 0
0.0169207 0 0
0.0191125 0 0
0.0214356 0 0
0.0239076 0 0
0.0265485 0 0
0.0293819 0 0
0.0324354 0 0
0.0357421 0 0
0.0393421 0 0
0.0432843 0 0
0.0476284 0 0
0.0524484 0 0
0.0578358 0 0
0.0639049 0 0
0.0707992 0 0
0.0787003 0 0
0.087839 0 0
0.0985111 0 0
0.1111 0 0
0.126105 0 0
0.144185 0 0
0.166214 0 0
0.193367 0 0
0.227222 0 0
0.269907 0 0
0.324269 0 0
0.394016 0 0
0.483705 0 0
0.598197 0 0
0.740858 0 0
0.909511 0 0
0.000825461 0 0
0.00248176 0 0
0.00415575 0 0
0.00586 0 0
0.00760726 0 0
0.00941038 0 0
0.0112824 0 0
0.0132364 0 0
0.0152861 0 0
0.0174456 0 0
0.01973 0 0
0.0221556 0 0
0.0247405 0 0
0.0275054 0 0
0.0304742 0 0
0.0336752 0 0
0.0371422 0 0
0.0409161 0 0
0.0450469 0 0
0.0495959 0 0
0.054639 0 0
0.0602704 0 0
0.0666077 0 0
0.0737991 0 0
0.0820289 0 0
0.0915346 0 0
0.102619 0 0
0.115673 0 0
0.131203 0 0
0.149876 0 0
0.172572 0 0
0.200463 0 0
0.235116 0 0
0.278622 0 0
0.333744 0 0
0.404033 0 0
0.49376 0 0
0.607345 0 0
0.747613 0 0
0.9121 0 0
0.000840419 0 0
0.00252736 0 0
0.00423413 0 0
0.00597461 0 0
0.00776276 0 0
0.00961257 0 0
0.0115381 0 0
0.0135534 0 0
0.0156731 0 0
0.017912 0 0
0.0202859 0 0
0.0228118 0 0
0.0255084 0 0
0.0283968 0 0
0.0315015 0 0
0.034851 0 0
0.0384799 0 0
0.0424296 0 0
0.0467512 0 0
0.0515072 0 0
0.0567752 0 0
0.0626518 0 0
0.0692575 0 0
0.0767444 0 0
0.0852998 0 0
0.095167 0 0
0.106655 0 0
0.120161 0 0
0.1362 0 0
0.155443 0 0
0.178774 0 0
0.207363 0 0
0.242761 0 0
0.28702 0 0
0.342823 0 0
0.413564 0 0
0.503249 0 0
0.615897 0 0
0.753867 0 0
0.914478 0 0
0.000851087 0 0
0.00256014 0 0
0.00429131 0 0
0.00605989 0 0
0.00788112 0 0
0.0097702 0 0
0.0117423 0 0
0.0138127 0 0
0.0159968 0 0
0.0183104 0 0
0.0207701 0 0
0.0233935 0 0
0.0262 0 0
0.0292112 0 0
0.0324519 0 0
0.0359512 0 0
0.039744 0 0
0.0438723 0 0
0.0483876 0 0
0.0533537 0 0
0.0588493 0 0
0.0649729 0 0
0.0718475 0 0
0.0796273 0 0
0.0885054 0 0
0.0987287 0 0
0.110612 0 0
0.124558 0 0
0.141089 0 0
0.16088 0 0
0.184817 0 0
0.214066 0 0
0.250161 0 0
0.295114 0 0
0.351525 0 0
0.422639 0 0
0.512216 0 0
0.623912 0 0
0.759678 0 0
0.916671 0 0
0.000856957 0 0
0.00257857 0 0
0.00432472 0 0
0.00611215 0 0
0.00795751 0 0
0.00987729 0 0
0.0118879 0 0
0.0140058 0 0
0.0162475 0 0
0.0186299 0 0
0.0211704 0 0
0.0238876 0 0
0.0268015 0 0
0.0299341 0 0
0.0333109 0 0
0.0369613 0 0
0.0409203 0 0
0.0452303 0 0
0.0499434 0 0
0.0551236 0 0
0.0608509 0 0
0.0672249 0 0
0.0743704 0 0
0.0824441 0 0
0.0916433 0 0
0.102219 0 0
0.114491 0 0
0.128867 0 0
0.145874 0 0
0.166192 0 0
0.190709 0 0
0.220583 0 0
0.257329 0 0
0.30292 0 0
0.359874 0 0
0.431295 0 0
0.520708 0 0
0.631441 0 0
0.765093 0 0
0.918702 0 0
0.000857493 0 0
0.00258103 0 0
0.00433159 0 0
0.00612745 0 0
0.0079867 0 0
0.00992722 0 0
0.0119668 0 0
0.0141232 0 0
0.0164141 0 0
0.0188578 0 0
0.0214727 0 0
0.0242785 0 0
0.0272959 0 0
0.0305478 0 0
0.03406 0 0
0.0378624 0 0
0.0419901 0 0
0.0464857 0 0
0.0514013 0 0
0.0568014 0 0
0.062766 0 0
0.0693958 0 0
0.0768167 0 0
0.0851875 0 0
0.0947087 0 0
0.105635 0 0
0.11829 0 0
0.133087 0 0
0.150557 0 0
0.171384 0 0
0.196455 0 0
0.226921 0 0
0.264278 0 0
0.310456 0 0
0.367895 0 0
0.439561 0 0
0.528764 0 0
0.638533 0 0
0.770156 0 0
0.92059 0 0
0.000852145 0 0
0.00256585 0 0
0.00430908 0 0
0.00610166 0 0
0.00796316 0 0
0.00991293 0 0
0.0119702 0 0
0.0141542 0 0
0.0164841 0 0
0.0189796 0 0
0.0216605 0 0
0.0245476 0 0
0.027663 0 0
0.0310303 0 0
0.0346761 0 0
0.0386306 0 0
0.0429292 0 0
0.0476145 0 0
0.0527385 0 0
0.0583653 0 0
0.0645751 0 0
0.0714685 0 0
0.0791722 0 0
0.0878462 0 0
0.0976931 0 0
0.108971 0 0
0.122006 0 0
0.137218 0 0
0.15514 0 0
0.176459 0 0
0.20206 0 0
0.233088 0 0
0.271018 0 0
0.317738 0 0
0.375609 0 0
0.447468 0 0
0.536421 0 0
0.645226 0 0
0.774904 0 0
0.922351 0 0
0.000840374 0 0
0.00253137 0 0
0.00425433 0 0
0.0060306 0 0
0.0078812 0 0
0.009827 0 0
0.0118888 0 0
0.0140873 0 0
0.0164436 0 0
0.0189788 0 0
0.0217146 0 0
0.0246733 0 0
0.0278783 0 0
0.0313549 0 0
0.0351303 0 0
0.0392356 0 0
0.0437064 0 0
0.0485853 0 0
0.0539239 0 0
0.0597859 0 0
0.0662507 0 0
0.0734186 0 0
0.0814158 0 0
0.0904026 0 0
0.100583 0 0
0.112216 0 0
0.125633 0 0
0.141255 0 0
0.159621 0 0
0.181417 0 0
0.207529 0 0
0.239092 0 0
0.27756 0 0
0.324778 0 0
0.383035 0 0
0.455039 0 0
0.54371 0 0
0.651558 0 0
0.779367 0 0
0.923998 0 0
0.000821672 0 0
0.00247605 0 0
0.00416465 0 0
0.00591022 0 0
0.00773523 0 0
0.00966201 0 0
0.0117129 0 0
0.0139106 0 0
0.0162777 0 0
0.0188374 0 0
0.0216135 0 0
0.0246303 0 0
0.0279133 0 0
0.0314893 0 0
0.0353872 0 0
0.0396391 0 0
0.0442814 0 0
0.0493566 0 0
0.054916 0 0
0.0610225 0 0
0.0677544 0 0
0.0752105 0 0
0.0835161 0 0
0.0928303 0 0
0.103356 0 0
0.115355 0 0
0.129159 0 0
0.145192 0 0
0.163996 0 0
0.186259 0 0
0.212864 0 0
0.244937 0 0
0.283912 0 0
0.331591 0 0
0.390189 0 0
0.462298 0 0
0.550659 0 0
0.657559 0 0
0.783572 0 0
0.925543 0 0
0.000795607 0 0
0.00239853 0 0
0.00403763 0 0
0.00573688 0 0
0.00752004 0 0
0.00941086 0 0
0.0114333 0 0
0.0136117 0 0
0.0159709 0 0
0.0185362 0 0
0.0213339 0 0
0.0243907 0 0
0.0277348 0 0
0.0313955 0 0
0.0354038 0 0
0.0397937 0 0
0.0446028 0 0
0.0498743 0 0
0.0556591 0 0
0.0620192 0 0
0.0690316 0 0
0.0767929 0 0
0.0854261 0 0
0.0950878 0 0
0.105979 0 0
0.118359 0 0
0.132561 0 0
0.149013 0 0
0.168255 0 0
0.190979 0 0
0.218064 0 0
0.250627 0 0
0.29008 0 0
0.338186 0 0
0.397089 0 0
0.469265 0 0
0.557295 0 0
0.663257 0 0
0.787544 0 0
0.926997 0 0
0.000761853 0 0
0.00229779 0 0
0.0038714 0 0
0.00550762 0 0
0.00723126 0 0
0.00906733 0 0
0.0110413 0 0
0.0131792 0 0
0.015508 0 0
0.0180555 0 0
0.0208508 0 0
0.0239237 0 0
0.0273056 0 0
0.0310292 0 0
0.0351287 0 0
0.039641 0 0
0.0446059 0 0
0.0500681 0 0
0.056079 0 0
0.0626998 0 0
0.0700057 0 0
0.0780907 0 0
0.0870749 0 0
0.0971107 0 0
0.108393 0 0
0.12118 0 0
0.135802 0 0
0.152687 0 0
0.172378 0 0
0.195564 0 0
0.223122 0 0
0.25616 0 0
0.296069 0 0
0.344572 0 0
0.403746 0 0
0.47596 0 0
0.563638 0 0
0.668673 0 0
0.791299 0 0
0.928366 0 0
0.00072025 0 0
0.0021733 0 0
0.00366489 0 0
0.00522056 0 0
0.00686586 0 0
0.00862671 0 0
0.0105298 0 0
0.012603 0 0
0.0148751 0 0
0.0173767 0 0
0.0201396 0 0
0.0231975 0 0
0.0265857 0 0
0.0303411 0 0
0.0345026 0 0
0.0391112 0 0
0.0442107 0 0
0.0498487 0 0
0.0560783 0 0
0.0629608 0 0
0.0705694 0 0
0.0789941 0 0
0.0883477 0 0
0.0987697 0 0
0.110477 0 0
0.123707 0 0
0.138785 0 0
0.156132 0 0
0.176289 0 0
0.199946 0 0
0.227976 0 0
0.26148 0 0
0.301828 0 0
0.350706 0 0
0.410125 0 0
0.482353 0 0
0.56967 0 0
0.673799 0 0
0.79483 0 0
0.929639 0 0
0.000670839 0 0
0.00202512 0 0
0.00341805 0 0
0.00487528 0 0
0.00642262 0 0
0.00808654 0 0
0.00989463 0 0
0.0118759 0 0
0.0140613 0 0
0.0164835 0 0
0.0191777 0 0
0.0221814 0 0
0.0255343 0 0
0.0292788 0 0
0.0334595 0 0
0.0381236 0 0
0.0433209 0 0
0.0491043 0 0
0.0555312 0 0
0.062665 0 0
0.0705783 0 0
0.0793571 0 0
0.0891068 0 0
0.0999588 0 0
0.112137 0 0
0.125864 0 0
0.14145 0 0
0.159306 0 0
0.179967 0 0
0.204118 0 0
0.23263 0 0
0.266595 0 0
0.307368 0 0
0.3566 0 0
0.41624 0 0
0.488462 0 0
0.575412 0 0
0.678655 0 0
0.798161 0 0
0.930832 0 0
0.000613915 0 0
0.0018541 0 0
0.00313214 0 0
0.00447321 0 0
0.00590282 0 0
0.00744743 0 0
0.00913492 0 0
0.0109951 0 0
0.0130602 0 0
0.015365 0 0
0.0179475 0 0
0.0208489 0 0
0.0241139 0 0
0.0277906 0 0
0.0319309 0 0
0.0365899 0 0
0.0418258 0 0
0.0477006 0 0
0.0542795 0 0
0.0616325 0 0
0.0698361 0 0
0.078977 0 0
0.0891589 0 0
0.100514 0 0
0.113234 0 0
0.127536 0 0
0.143713 0 0
0.162159 0 0
0.183394 0 0
0.208092 0 0
0.237117 0 0
0.271556 0 0
0.312748 0 0
0.362315 0 0
0.422154 0 0
0.494348 0 0
0.580919 0 0
0.683292 0 0
0.801325 0 0
0.931966 0 0
0.000550076 0 0
0.001662 0 0
0.00280998 0 0
0.00401806 0 0
0.00531081 0 0
0.00671395 0 0
0.00825496 0 0
0.00996363 0 0
0.0118727 0 0
0.0140182 0 0
0.0164401 0 0
0.0191829 0 0
0.0222957 0 0
0.0258326 0 0
0.029853 0 0
0.0344214 0 0
0.0396072 0 0
0.0454846 0 0
0.0521322 0 0
0.0596329 0 0
0.0680747 0 0
0.0775531 0 0
0.088176 0 0
0.100074 0 0
0.113412 0 0
0.128395 0 0
0.14529 0 0
0.16446 0 0
0.186396 0 0
0.211749 0 0
0.241366 0 0
0.276324 0 0
0.317953 0 0
0.367852 0 0
0.427873 0 0
0.500021 0 0
0.58621 0 0
0.687733 0 0
0.804357 0 0
0.933059 0 0
0.00048025 0 0
0.0014516 0 0
0.00245615 0 0
0.00351616 0 0
0.00465451 0 0
0.00589539 0 0
0.00726498 0 0
0.00879208 0 0
0.0105088 0 0
0.0124512 0 0
0.01466 0 0
0.0171814 0 0
0.0200678 0 0
0.023378 0 0
0.0271784 0 0
0.0315429 0 0
0.0365534 0 0
0.0422993 0 0
0.0488774 0 0
0.0563908 0 0
0.0649491 0 0
0.0746681 0 0
0.085672 0 0
0.0980981 0 0
0.112104 0 0
0.127876 0 0
0.14565 0 0
0.165745 0 0
0.188601 0 0
0.214818 0 0
0.245202 0 0
0.280804 0 0
0.32294 0 0
0.373197 0 0
0.433399 0 0
0.50549 0 0
0.591283 0 0
0.691954 0 0
0.807188 0 0
0.934047 0 0
0.000405716 0 0
0.00122674 0 0
0.00207713 0 0
0.00297664 0 0
0.00394575 0 0
0.00500629 0 0
0.00618216 0 0
0.00749998 0 0
0.00898992 0 0
0.0106864 0 0
0.0126291 0 0
0.0148637 0 0
0.0174433 0 0
0.0204292 0 0
0.0238922 0 0
0.0279133 0 0
0.0325854 0 0
0.0380131 0 0
0.0443135 0 0
0.0516159 0 0
0.0600609 0 0
0.069799 0 0
0.0809898 0 0
0.0938011 0 0
0.10841 0 0
0.125005 0 0
0.143804 0 0
0.165077 0 0
0.189189 0 0
0.216646 0 0
0.248163 0 0
0.284712 0 0
0.327565 0 0
0.378295 0 0
0.438722 0 0
0.51077 0 0
0.596198 0 0
0.696113 0 0
0.810131 0 0
0.935204 0 0
0.000328103 0 0
0.000992351 0 0
0.00168126 0 0
0.0024115 0 0
0.00320043 0 0
0.00406673 0 0
0.00503104 0 0
0.00611666 0 0
0.00735029 0 0
0.00876288 0 0
0.0103907 0 0
0.0122762 0 0
0.0144699 0 0
0.0170312 0 0
0.0200307 0 0
0.0235516 0 0
0.027692 0 0
0.0325667 0 0
0.0383094 0 0
0.0450738 0 0
0.0530347 0 0
0.0623876 0 0
0.0733468 0 0
0.0861423 0 0
0.101014 0 0
0.118208 0 0
0.137974 0 0
0.160577 0 0
0.186322 0 0
0.215597 0 0
0.248945 0 0
0.287148 0 0
0.331312 0 0
0.382914 0 0
0.443759 0 0
0.515801 0 0
0.600778 0 0
0.699654 0 0
0.811994 0 0