# vtk DataFile Version 2.0
Velocidades
ASCII

DATASET STRUCTURED_GRID
DIMENSIONS   40   40   20

POINTS   32000   double
0.0125   0.0125   0.025
0.0125   0.0375   0.025
0.0125   0.0625   0.025
0.0125   0.0875   0.025
0.0125   0.1125   0.025
0.0125   0.1375   0.025
0.0125   0.1625   0.025
0.0125   0.1875   0.025
0.0125   0.2125   0.025
0.0125   0.2375   0.025
0.0125   0.2625   0.025
0.0125   0.2875   0.025
0.0125   0.3125   0.025
0.0125   0.3375   0.025
0.0125   0.3625   0.025
0.0125   0.3875   0.025
0.0125   0.4125   0.025
0.0125   0.4375   0.025
0.0125   0.4625   0.025
0.0125   0.4875   0.025
0.0125   0.5125   0.025
0.0125   0.5375   0.025
0.0125   0.5625   0.025
0.0125   0.5875   0.025
0.0125   0.6125   0.025
0.0125   0.6375   0.025
0.0125   0.6625   0.025
0.0125   0.6875   0.025
0.0125   0.7125   0.025
0.0125   0.7375   0.025
0.0125   0.7625   0.025
0.0125   0.7875   0.025
0.0125   0.8125   0.025
0.0125   0.8375   0.025
0.0125   0.8625   0.025
0.0125   0.8875   0.025
0.0125   0.9125   0.025
0.0125   0.9375   0.025
0.0125   0.9625   0.025
0.0125   0.9875   0.025
0.0375   0.0125   0.025
0.0375   0.0375   0.025
0.0375   0.0625   0.025
0.0375   0.0875   0.025
0.0375   0.1125   0.025
0.0375   0.1375   0.025
0.0375   0.1625   0.025
0.0375   0.1875   0.025
0.0375   0.2125   0.025
0.0375   0.2375   0.025
0.0375   0.2625   0.025
0.0375   0.2875   0.025
0.0375   0.3125   0.025
0.0375   0.3375   0.025
0.0375   0.3625   0.025
0.0375   0.3875   0.025
0.0375   0.4125   0.025
0.0375   0.4375   0.025
0.0375   0.4625   0.025
0.0375   0.4875   0.025
0.0375   0.5125   0.025
0.0375   0.5375   0.025
0.0375   0.5625   0.025
0.0375   0.5875   0.025
0.0375   0.6125   0.025
0.0375   0.6375   0.025
0.0375   0.6625   0.025
0.0375   0.6875   0.025
0.0375   0.7125   0.025
0.0375   0.7375   0.025
0.0375   0.7625   0.025
0.0375   0.7875   0.025
0.0375   0.8125   0.025
0.0375   0.8375   0.025
0.0375   0.8625   0.025
0.0375   0.8875   0.025
0.0375   0.9125   0.025
0.0375   0.9375   0.025
0.0375   0.9625   0.025
0.0375   0.9875   0.025
0.0625   0.0125   0.025
0.0625   0.0375   0.025
0.0625   0.0625   0.025
0.0625   0.0875   0.025
0.0625   0.1125   0.025
0.0625   0.1375   0.025
0.0625   0.1625   0.025
0.0625   0.1875   0.025
0.0625   0.2125   0.025
0.0625   0.2375   0.025
0.0625   0.2625   0.025
0.0625   0.2875   0.025
0.0625   0.3125   0.025
0.0625   0.3375   0.025
0.0625   0.3625   0.025
0.0625   0.3875   0.025
0.0625   0.4125   0.025
0.0625   0.4375   0.025
0.0625   0.4625   0.025
0.0625   0.4875   0.025
0.0625   0.5125   0.025
0.0625   0.5375   0.025
0.0625   0.5625   0.025
0.0625   0.5875   0.025
0.0625   0.6125   0.025
0.0625   0.6375   0.025
0.0625   0.6625   0.025
0.0625   0.6875   0.025
0.0625   0.7125   0.025
0.0625   0.7375   0.025
0.0625   0.7625   0.025
0.0625   0.7875   0.025
0.0625   0.8125   0.025
0.0625   0.8375   0.025
0.0625   0.8625   0.025
0.0625   0.8875   0.025
0.0625   0.9125   0.025
0.0625   0.9375   0.025
0.0625   0.9625   0.025
0.0625   0.9875   0.025
0.0875   0.0125   0.025
0.0875   0.0375   0.025
0.0875   0.0625   0.025
0.0875   0.0875   0.025
0.0875   0.1125   0.025
0.0875   0.1375   0.025
0.0875   0.1625   0.025
0.0875   0.1875   0.025
0.0875   0.2125   0.025
0.0875   0.2375   0.025
0.0875   0.2625   0.025
0.0875   0.2875   0.025
0.0875   0.3125   0.025
0.0875   0.3375   0.025
0.0875   0.3625   0.025
0.0875   0.3875   0.025
0.0875   0.4125   0.025
0.0875   0.4375   0.025
0.0875   0.4625   0.025
0.0875   0.4875   0.025
0.0875   0.5125   0.025
0.0875   0.5375   0.025
0.0875   0.5625   0.025
0.0875   0.5875   0.025
0.0875   0.6125   0.025
0.0875   0.6375   0.025
0.0875   0.6625   0.025
0.0875   0.6875   0.025
0.0875   0.7125   0.025
0.0875   0.7375   0.025
0.0875   0.7625   0.025
0.0875   0.7875   0.025
0.0875   0.8125   0.025
0.0875   0.8375   0.025
0.0875   0.8625   0.025
0.0875   0.8875   0.025
0.0875   0.9125   0.025
0.0875   0.9375   0.025
0.0875   0.9625   0.025
0.0875   0.9875   0.025
0.1125   0.0125   0.025
0.1125   0.0375   0.025
0.1125   0.0625   0.025
0.1125   0.0875   0.025
0.1125   0.1125   0.025
0.1125   0.1375   0.025
0.1125   0.1625   0.025
0.1125   0.1875   0.025
0.1125   0.2125   0.025
0.1125   0.2375   0.025
0.1125   0.2625   0.025
0.1125   0.2875   0.025
0.1125   0.3125   0.025
0.1125   0.3375   0.025
0.1125   0.3625   0.025
0.1125   0.3875   0.025
0.1125   0.4125   0.025
0.1125   0.4375   0.025
0.1125   0.4625   0.025
0.1125   0.4875   0.025
0.1125   0.5125   0.025
0.1125   0.5375   0.025
0.1125   0.5625   0.025
0.1125   0.5875   0.025
0.1125   0.6125   0.025
0.1125   0.6375   0.025
0.1125   0.6625   0.025
0.1125   0.6875   0.025
0.1125   0.7125   0.025
0.1125   0.7375   0.025
0.1125   0.7625   0.025
0.1125   0.7875   0.025
0.1125   0.8125   0.025
0.1125   0.8375   0.025
0.1125   0.8625   0.025
0.1125   0.8875   0.025
0.1125   0.9125   0.025
0.1125   0.9375   0.025
0.1125   0.9625   0.025
0.1125   0.9875   0.025
0.1375   0.0125   0.025
0.1375   0.0375   0.025
0.1375   0.0625   0.025
0.1375   0.0875   0.025
0.1375   0.1125   0.025
0.1375   0.1375   0.025
0.1375   0.1625   0.025
0.1375   0.1875   0.025
0.1375   0.2125   0.025
0.1375   0.2375   0.025
0.1375   0.2625   0.025
0.1375   0.2875   0.025
0.1375   0.3125   0.025
0.1375   0.3375   0.025
0.1375   0.3625   0.025
0.1375   0.3875   0.025
0.1375   0.4125   0.025
0.1375   0.4375   0.025
0.1375   0.4625   0.025
0.1375   0.4875   0.025
0.1375   0.5125   0.025
0.1375   0.5375   0.025
0.1375   0.5625   0.025
0.1375   0.5875   0.025
0.1375   0.6125   0.025
0.1375   0.6375   0.025
0.1375   0.6625   0.025
0.1375   0.6875   0.025
0.1375   0.7125   0.025
0.1375   0.7375   0.025
0.1375   0.7625   0.025
0.1375   0.7875   0.025
0.1375   0.8125   0.025
0.1375   0.8375   0.025
0.1375   0.8625   0.025
0.1375   0.8875   0.025
0.1375   0.9125   0.025
0.1375   0.9375   0.025
0.1375   0.9625   0.025
0.1375   0.9875   0.025
0.1625   0.0125   0.025
0.1625   0.0375   0.025
0.1625   0.0625   0.025
0.1625   0.0875   0.025
0.1625   0.1125   0.025
0.1625   0.1375   0.025
0.1625   0.1625   0.025
0.1625   0.1875   0.025
0.1625   0.2125   0.025
0.1625   0.2375   0.025
0.1625   0.2625   0.025
0.1625   0.2875   0.025
0.1625   0.3125   0.025
0.1625   0.3375   0.025
0.1625   0.3625   0.025
0.1625   0.3875   0.025
0.1625   0.4125   0.025
0.1625   0.4375   0.025
0.1625   0.4625   0.025
0.1625   0.4875   0.025
0.1625   0.5125   0.025
0.1625   0.5375   0.025
0.1625   0.5625   0.025
0.1625   0.5875   0.025
0.1625   0.6125   0.025
0.1625   0.6375   0.025
0.1625   0.6625   0.025
0.1625   0.6875   0.025
0.1625   0.7125   0.025
0.1625   0.7375   0.025
0.1625   0.7625   0.025
0.1625   0.7875   0.025
0.1625   0.8125   0.025
0.1625   0.8375   0.025
0.1625   0.8625   0.025
0.1625   0.8875   0.025
0.1625   0.9125   0.025
0.1625   0.9375   0.025
0.1625   0.9625   0.025
0.1625   0.9875   0.025
0.1875   0.0125   0.025
0.1875   0.0375   0.025
0.1875   0.0625   0.025
0.1875   0.0875   0.025
0.1875   0.1125   0.025
0.1875   0.1375   0.025
0.1875   0.1625   0.025
0.1875   0.1875   0.025
0.1875   0.2125   0.025
0.1875   0.2375   0.025
0.1875   0.2625   0.025
0.1875   0.2875   0.025
0.1875   0.3125   0.025
0.1875   0.3375   0.025
0.1875   0.3625   0.025
0.1875   0.3875   0.025
0.1875   0.4125   0.025
0.1875   0.4375   0.025
0.1875   0.4625   0.025
0.1875   0.4875   0.025
0.1875   0.5125   0.025
0.1875   0.5375   0.025
0.1875   0.5625   0.025
0.1875   0.5875   0.025
0.1875   0.6125   0.025
0.1875   0.6375   0.025
0.1875   0.6625   0.025
0.1875   0.6875   0.025
0.1875   0.7125   0.025
0.1875   0.7375   0.025
0.1875   0.7625   0.025
0.1875   0.7875   0.025
0.1875   0.8125   0.025
0.1875   0.8375   0.025
0.1875   0.8625   0.025
0.1875   0.8875   0.025
0.1875   0.9125   0.025
0.1875   0.9375   0.025
0.1875   0.9625   0.025
0.1875   0.9875   0.025
0.2125   0.0125   0.025
0.2125   0.0375   0.025
0.2125   0.0625   0.025
0.2125   0.0875   0.025
0.2125   0.1125   0.025
0.2125   0.1375   0.025
0.2125   0.1625   0.025
0.2125   0.1875   0.025
0.2125   0.2125   0.025
0.2125   0.2375   0.025
0.2125   0.2625   0.025
0.2125   0.2875   0.025
0.2125   0.3125   0.025
0.2125   0.3375   0.025
0.2125   0.3625   0.025
0.2125   0.3875   0.025
0.2125   0.4125   0.025
0.2125   0.4375   0.025
0.2125   0.4625   0.025
0.2125   0.4875   0.025
0.2125   0.5125   0.025
0.2125   0.5375   0.025
0.2125   0.5625   0.025
0.2125   0.5875   0.025
0.2125   0.6125   0.025
0.2125   0.6375   0.025
0.2125   0.6625   0.025
0.2125   0.6875   0.025
0.2125   0.7125   0.025
0.2125   0.7375   0.025
0.2125   0.7625   0.025
0.2125   0.7875   0.025
0.2125   0.8125   0.025
0.2125   0.8375   0.025
0.2125   0.8625   0.025
0.2125   0.8875   0.025
0.2125   0.9125   0.025
0.2125   0.9375   0.025
0.2125   0.9625   0.025
0.2125   0.9875   0.025
0.2375   0.0125   0.025
0.2375   0.0375   0.025
0.2375   0.0625   0.025
0.2375   0.0875   0.025
0.2375   0.1125   0.025
0.2375   0.1375   0.025
0.2375   0.1625   0.025
0.2375   0.1875   0.025
0.2375   0.2125   0.025
0.2375   0.2375   0.025
0.2375   0.2625   0.025
0.2375   0.2875   0.025
0.2375   0.3125   0.025
0.2375   0.3375   0.025
0.2375   0.3625   0.025
0.2375   0.3875   0.025
0.2375   0.4125   0.025
0.2375   0.4375   0.025
0.2375   0.4625   0.025
0.2375   0.4875   0.025
0.2375   0.5125   0.025
0.2375   0.5375   0.025
0.2375   0.5625   0.025
0.2375   0.5875   0.025
0.2375   0.6125   0.025
0.2375   0.6375   0.025
0.2375   0.6625   0.025
0.2375   0.6875   0.025
0.2375   0.7125   0.025
0.2375   0.7375   0.025
0.2375   0.7625   0.025
0.2375   0.7875   0.025
0.2375   0.8125   0.025
0.2375   0.8375   0.025
0.2375   0.8625   0.025
0.2375   0.8875   0.025
0.2375   0.9125   0.025
0.2375   0.9375   0.025
0.2375   0.9625   0.025
0.2375   0.9875   0.025
0.2625   0.0125   0.025
0.2625   0.0375   0.025
0.2625   0.0625   0.025
0.2625   0.0875   0.025
0.2625   0.1125   0.025
0.2625   0.1375   0.025
0.2625   0.1625   0.025
0.2625   0.1875   0.025
0.2625   0.2125   0.025
0.2625   0.2375   0.025
0.2625   0.2625   0.025
[...]
POINT_DATA   32000
VECTORS Velocidades double

2.22644e-05 0 0
6.71863e-05 0 0
0.000113348 0 0
0.000161601 0 0
0.000212789 0 0
0.000267741 0 0
0.000327259 0 0
0.000392122 0 0
0.000463079 0 0
0.000540853 0 0
0.000626153 0 0
0.000719683 0 0
0.000822162 0 0
0.00093435 0 0
0.00105709 0 0
0.00119135 0 0
0.00133828 0 0
0.00149931 0 0
0.00167622 0 0
0.00187131 0 0
0.00208751 0 0
0.00232863 0 0
0.00259961 0 0
0.00290691 0 0
0.00325897 0 0
0.00366703 0 0
0.00414615 0 0
0.00471691 0 0
0.00540803 0 0
0.00626055 0 0
0.00733491 0 0
0.0087234 0 0
0.0105733 0 0
0.0131332 0 0
0.0168518 0 0
0.0226162 0 0
0.0323927 0 0
0.0512441 0 0
0.0949522 0 0
0.225921 0 0
6.33963e-05 0 0
0.000191313 0 0
0.000322771 0 0
0.000460204 0 0
0.000606023 0 0
0.00076259 0 0
0.000932204 0 0
0.00111709 0 0
0.00131938 0 0
0.00154116 0 0
0.00178445 0 0
0.00205128 0 0
0.0023437 0 0
0.00266391 0 0
0.00301431 0 0
0.00339768 0 0
0.00381734 0 0
0.00427738 0 0
0.00478291 0 0
0.00534051 0 0
0.00595862 0 0
0.00664814 0 0
0.00742328 0 0
0.00830256 0 0
0.00931028 0 0
0.0104787 0 0
0.011851 0 0
0.0134865 0 0
0.0154675 0 0
0.0179119 0 0
0.0209928 0 0
0.0249744 0 0
0.0302761 0 0
0.0376008 0 0
0.0482032 0 0
0.0645091 0 0
0.091698 0 0
0.142283 0 0
0.251406 0 0
0.53661 0 0
9.89264e-05 0 0
0.000298546 0 0
0.000503727 0 0
0.000718286 0 0
0.000946006 0 0
0.0011906 0 0
0.00145566 0 0
0.0017447 0 0
0.00206108 0 0
0.00240807 0 0
0.00278888 0 0
0.00320669 0 0
0.00366476 0 0
0.00416655 0 0
0.00471589 0 0
0.00531715 0 0
0.00597559 0 0
0.00669764 0 0
0.00749142 0 0
0.00836727 0 0
0.00933852 0 0
0.0104224 0 0
0.0116414 0 0
0.0130248 0 0
0.014611 0 0
0.016451 0 0
0.0186132 0 0
0.0211912 0 0
0.0243149 0 0
0.0281702 0 0
0.0330291 0 0
0.0393046 0 0
0.047648 0 0
0.0591367 0 0
0.0756566 0 0
0.100737 0 0
0.141522 0 0
0.213821 0 0
0.355916 0 0
0.665392 0 0
0.000130729 0 0
0.000394543 0 0
0.000665768 0 0
0.000949482 0 0
0.00125072 0 0
0.00157442 0 0
0.00192539 0 0
0.0023083 0 0
0.00272764 0 0
0.00318779 0 0
0.00369304 0 0
0.00424767 0 0
0.00485605 0 0
0.00552284 0 0
0.00625316 0 0
0.00705291 0 0
0.0079291 0 0
0.00889037 0 0
0.00994757 0 0
0.0111145 0 0
0.0124091 0 0
0.0138543 0 0
0.0154802 0 0
0.0173262 0 0
0.0194438 0 0
0.0219011 0 0
0.0247898 0 0
0.0282347 0 0
0.0324093 0 0
0.0375607 0 0
0.0440491 0 0
0.0524174 0 0
0.0635137 0 0
0.0787196 0 0
0.1004 0 0
0.132833 0 0
0.184251 0 0
0.271505 0 0
0.430679 0 0
0.735726 0 0
0.000159895 0 0
0.000482594 0 0
0.000814445 0 0
0.00116171 0 0
0.00153061 0 0
0.00192722 0 0
0.00235751 0 0
0.00282722 0 0
0.00334193 0 0
0.00390708 0 0
0.00452799 0 0
0.00520998 0 0
0.0059585 0 0
0.00677933 0 0
0.00767887 0 0
0.00866442 0 0
0.00974472 0 0
0.0109304 0 0
0.012235 0 0
0.0136755 0 0
0.015274 0 0
0.017059 0 0
0.0190678 0 0
0.0213491 0 0
0.0239666 0 0
0.0270048 0 0
0.0305767 0 0
0.0348362 0 0
0.0399966 0 0
0.0463602 0 0
0.0543658 0 0
0.0646691 0 0
0.0782829 0 0
0.0968314 0 0
0.123032 0 0
0.161645 0 0
0.221416 0 0
0.319073 0 0
0.486824 0 0
0.779241 0 0
0.00018708 0 0
0.000564683 0 0
0.000953108 0 0
0.00135976 0 0
0.00179197 0 0
0.00225695 0 0
0.00276174 0 0
0.00331314 0 0
0.0039178 0 0
0.00458214 0 0
0.00531251 0 0
0.00611524 0 0
0.00699682 0 0
0.00796416 0 0
0.00902486 0 0
0.0101876 0 0
0.0114628 0 0
0.012863 0 0
0.0144042 0 0
0.0161064 0 0
0.0179958 0 0
0.0201059 0 0
0.0224808 0 0
0.0251781 0 0
0.0282733 0 0
0.0318658 0 0
0.0360887 0 0
0.0411227 0 0
0.0472174 0 0
0.054725 0 0
0.0641536 0 0
0.0762561 0 0
0.0921818 0 0
0.113744 0 0
0.143913 0 0
0.187735 0 0
0.254105 0 0
0.359022 0 0
0.53052 0 0
0.80843 0 0
0.000212691 0 0
0.000642036 0 0
0.00108383 0 0
0.00154658 0 0
0.00203872 0 0
0.00256854 0 0
0.00314413 0 0
0.00377336 0 0
0.00446385 0 0
0.00522307 0 0
0.00605833 0 0
0.00697696 0 0
0.00798651 0 0
0.00909495 0 0
0.0103111 0 0
0.011645 0 0
0.0131086 0 0
0.0147165 0 0
0.0164868 0 0
0.0184427 0 0
0.0206139 0 0
0.0230388 0 0
0.0257678 0 0
0.028867 0 0
0.0324228 0 0
0.036549 0 0
0.0413971 0 0
0.0471723 0 0
0.0541576 0 0
0.0627497 0 0
0.0735177 0 0
0.0872973 0 0
0.105349 0 0
0.129633 0 0
0.163291 0 0
0.211519 0 0
0.283121 0 0
0.393083 0 0
0.565493 0 0
0.829225 0 0
0.000236982 0 0
0.000715424 0 0
0.00120791 0 0
0.00172404 0 0
0.00227332 0 0
0.0028651 0 0
0.00350851 0 0
0.00421246 0 0
0.00498557 0 0
0.00583628 0 0
0.00677291 0 0
0.00780377 0 0
0.00893744 0 0
0.010183 0 0
0.0115503 0 0
0.013051 0 0
0.0146984 0 0
0.0165091 0 0
0.0185034 0 0
0.0207074 0 0
0.0231542 0 0
0.0258867 0 0
0.0289611 0 0
0.0324514 0 0
0.0364548 0 0
0.0410981 0 0
0.0465498 0 0
0.0530377 0 0
0.0608747 0 0
0.0704975 0 0
0.0825283 0 0
0.097873 0 0
0.117883 0 0
0.144627 0 0
0.181358 0 0
0.233319 0 0
0.30908 0 0
0.422498 0 0
0.594131 0 0
0.84476 0 0
0.00026011 0 0
0.000785317 0 0
0.00132615 0 0
0.00189328 0 0
0.00249728 0 0
0.00314855 0 0
0.00385727 0 0
0.00463333 0 0
0.00548639 0 0
0.00642585 0 0
0.00746101 0 0
0.00860119 0 0
0.00985595 0 0
0.0112355 0 0
0.0127509 0 0
0.0144149 0 0
0.0162427 0 0
0.0182526 0 0
0.0204673 0 0
0.0229155 0 0
0.0256338 0 0
0.0286694 0 0
0.0320836 0 0
0.0359573 0 0
0.0403982 0 0
0.0455451 0 0
0.0515821 0 0
0.0587575 0 0
0.0674114 0 0
0.0780159 0 0
0.0912392 0 0
0.108046 0 0
0.129859 0 0
0.158828 0 0
0.19827 0 0
0.2534 0 0
0.332467 0 0
0.448183 0 0
0.618035 0 0
0.856824 0 0
0.000282177 0 0
0.000852025 0 0
0.00143908 0 0
0.00205506 0 0
0.00271162 0 0
0.00342019 0 0
0.00419197 0 0
0.0050379 0 0
0.0059686 0 0
0.00699448 0 0
0.0081258 0 0
0.00937287 0 0
0.0107463 0 0
0.0122572 0 0
0.0139181 0 0
0.0157429 0 0
0.0177484 0 0
0.0199546 0 0
0.0223868 0 0
0.0250765 0 0
0.0280641 0 0
0.0314017 0 0
0.0351572 0 0
0.0394232 0 0
0.0442973 0 0
0.049938 0 0
0.0565456 0 0
0.0643881 0 0
0.0738299 0 0
0.0853745 0 0
0.0997293 0 0
0.117907 0 0
0.141388 0 0
0.172375 0 0
0.214213 0 0
0.272038 0 0
0.353723 0 0
0.470877 0 0
0.638352 0 0
0.86651 0 0
0.00030322 0 0
0.000915663 0 0
0.00154688 0 0
0.00220967 0 0
0.00291672 0 0
0.00368052 0 0
0.00451331 0 0
0.00542702 0 0
0.00643328 0 0
0.00754348 0 0
0.00876886 0 0
0.0101207 0 0
0.0116106 0 0
0.0132509 0 0
0.015055 0 0
0.0170383 0 0
0.019219 0 0
0.0216191 0 0
0.0242661 0 0
0.0271946 0 0
0.0304487 0 0
0.0340855 0 0
0.0381796 0 0
0.04283 0 0
0.0481321 0 0
0.0542571 0 0
0.0614216 0 0
0.0699116 0 0
0.0801137 0 0
0.0925591 0 0
0.107989 0 0
0.127456 0 0
0.152483 0 0
0.185307 0 0
0.22927 0 0
0.289393 0 0
0.37315 0 0
0.491103 0 0
0.655868 0 0
0.874491 0 0
0.000323226 0 0
0.000976189 0 0
0.00164951 0 0
0.00235704 0 0
0.00311252 0 0
0.00392951 0 0
0.00482125 0 0
0.00580071 0 0
0.00688053 0 0
0.00807307 0 0
0.00939057 0 0
0.0108453 0 0
0.0124498 0 0
0.0142174 0 0
0.0161627 0 0
0.0183025 0 0
0.0206562 0 0
0.0232477 0 0
0.0261066 0 0
0.0292701 0 0
0.0327857 0 0
0.0367144 0 0
0.0411343 0 0
0.0461443 0 0
0.0518613 0 0
0.0584583 0 0
0.0661635 0 0
0.0752792 0 0
0.0862121 0 0
0.0995177 0 0
0.115966 0 0
0.136643 0 0
0.163102 0 0
0.1976 0 0
0.243453 0 0
0.305542 0 0
0.390935 0 0
0.509224 0 0
0.671123 0 0
0.881191 0 0
0.000342165 0 0
0.00103352 0 0
0.00174681 0 0
0.00249697 0 0
0.00329879 0 0
0.00416688 0 0
0.00511553 0 0
0.00615872 0 0
0.00731011 0 0
0.00858307 0 0
0.00999079 0 0
0.0115465 0 0
0.0132638 0 0
0.015157 0 0
0.0172417 0 0
0.0195359 0 0
0.0220605 0 0
0.0248409 0 0
0.0279085 0 0
0.031303 0 0
0.0350746 0 0
0.0392872 0 0
0.0440224 0 0
0.0493835 0 0
0.0555017 0 0
0.0625564 0 0
0.0707856 0 0
0.0805058 0 0
0.0921413 0 0
0.106269 0 0
0.123684 0 0
0.145497 0 0
0.173285 0 0
0.209309 0 0
0.256845 0 0
0.320619 0 0
0.407291 0 0
0.525567 0 0
0.684549 0 0
0.886915 0 0
0.00035998 0 0
0.00108748 0 0
0.00183852 0 0
0.00262908 0 0
0.00347504 0 0
0.00439205 0 0
0.00539547 0 0
0.00650031 0 0
0.00772125 0 0
0.00907265 0 0
0.0105687 0 0
0.0122236 0 0
0.0140519 0 0
0.0160689 0 0
0.0182914 0 0
0.0207382 0 0
0.0234316 0 0
0.0263984 0 0
0.0296718 0 0
0.0332934 0 0
0.0373158 0 0
0.041806 0 0
0.0468493 0 0
0.0525547 0 0
0.0590632 0 0
0.066562 0 0
0.0752991 0 0
0.0856031 0 0
0.0979142 0 0
0.112828 0 0
0.131159 0 0
0.154041 0 0
0.183062 0 0
0.220482 0 0
0.269519 0 0
0.334735 0 0
0.422396 0 0
0.540399 0 0
0.696476 0 0
0.891877 0 0
0.00037659 0 0
0.00113783 0 0
0.00192421 0 0
0.0027528 0 0
0.00364053 0 0
0.00460414 0 0
0.00566004 0 0
0.00682431 0 0
0.00811265 0 0
0.00954046 0 0
0.0111229 0 0
0.0128752 0 0
0.0148128 0 0
0.016952 0 0
0.0193104 0 0
0.0219081 0 0
0.0247685 0 0
0.0279195 0 0
0.031396 0 0
0.0352414 0 0
0.0395106 0 0
0.0442734 0 0
0.0496191 0 0
0.0556624 0 0
0.0625518 0 0
0.0704827 0 0
0.0797121 0 0
0.0905804 0 0
0.103541 0 0
0.119207 0 0
0.138409 0 0
0.162295 0 0
0.192464 0 0
0.23116 0 0
0.281537 0 0
0.347987 0 0
0.436398 0 0
0.553932 0 0
0.707156 0 0
0.896234 0 0
0.000391889 0 0
0.00118425 0 0
0.00200337 0 0
0.00286738 0 0
0.00379431 0 0
0.00480198 0 0
0.00590788 0 0
0.00712916 0 0
0.00848258 0 0
0.00998459 0 0
0.0116514 0 0
0.0134991 0 0
0.0155442 0 0
0.0178039 0 0
0.0202969 0 0
0.023044 0 0
0.0260696 0 0
0.0294031 0 0
0.0330805 0 0
0.0371471 0 0
0.0416598 0 0
0.0466913 0 0
0.0523347 0 0
0.0587099 0 0
0.065972 0 0
0.0743239 0 0
0.0840314 0 0
0.0954453 0 0
0.109032 0 0
0.125416 0 0
0.145446 0 0
0.170278 0 0
0.201515 0 0
0.241379 0 0
0.292955 0 0
0.36046 0 0
0.449423 0 0
0.566341 0 0
0.716789 0 0
0.900097 0 0
0.000405748 0 0
0.00122636 0 0
0.00207533 0 0
0.00297191 0 0
0.0039352 0 0
0.00498412 0 0
0.00613726 0 0
0.00741286 0 0
0.0088288 0 0
0.0104026 0 0
0.0121514 0 0
0.0140926 0 0
0.0162434 0 0
0.018622 0 0
0.0212479 0 0
0.024143 0 0
0.0273327 0 0
0.0308472 0 0
0.034724 0 0
0.0390098 0 0
0.0437635 0 0
0.0490607 0 0
0.0549979 0 0
0.0616996 0 0
0.0693271 0 0
0.0780899 0 0
0.0882621 0 0
0.100204 0 0
0.114393 0 0
0.131467 0 0
0.152282 0 0
0.178007 0 0
0.210238 0 0
0.251173 0 0
0.30382 0 0
0.372226 0 0
0.461577 0 0
0.57777 0 0
0.725533 0 0
0.903555 0 0
0.000418016 0 0
0.00126369 0 0
0.00213934 0 0
0.0030653 0 0
0.00406179 0 0
0.0051488 0 0
0.00634608 0 0
0.007673 0 0
0.00914855 0 0
0.0107914 0 0
0.0126198 0 0
0.014652 0 0
0.0169065 0 0
0.0194023 0 0
0.0221598 0 0
0.0252018 0 0
0.0285544 0 0
0.0322491 0 0
0.0363242 0 0
0.040828 0 0
0.0458212 0 0
0.0513818 0 0
0.0576096 0 0
0.0646334 0 0
0.0726196 0 0
0.0817842 0 0
0.092409 0 0
0.104863 0 0
0.119633 0 0
0.137366 0 0
0.15893 0 0
0.185495 0 0
0.218654 0 0
0.260571 0 0
0.314176 0 0
0.383349 0 0
0.472952 0 0
0.588341 0 0
0.733514 0 0
0.906674 0 0
0.00042852 0 0
0.00129572 0 0
0.00219452 0 0
0.00314631 0 0
0.00417243 0 0
0.00529399 0 0
0.00653189 0 0
0.00790667 0 0
0.00943852 0 0
0.0111472 0 0
0.0130523 0 0
0.0151731 0 0
0.0175291 0 0
0.0201402 0 0
0.0230279 0 0
0.0262157 0 0
0.0297306 0 0
0.0336049 0 0
0.0378779 0 0
0.0425992 0 0
0.0478311 0 0
0.0536538 0 0
0.06017 0 0
0.0675121 0 0
0.0758515 0 0
0.08541 0 0
0.0964761 0 0
0.109427 0 0
0.124757 0 0
0.143123 0 0
0.165399 0 0
0.192758 0 0
0.226781 0 0
0.269599 0 0
0.324063 0 0
0.393885 0 0
0.483626 0 0
0.598153 0 0
0.740837 0 0
0.909505 0 0
0.000437087 0 0
0.00132194 0 0
0.00223997 0 0
0.00321367 0 0
0.00426545 0 0
0.00541757 0 0
0.0066921 0 0
0.00811081 0 0
0.00969513 0 0
0.0114661 0 0
0.0134445 0 0
0.0156509 0 0
0.0181058 0 0
0.0208302 0 0
0.0238466 0 0
0.0271792 0 0
0.0308558 0 0
0.0349095 0 0
0.0393807 0 0
0.0443196 0 0
0.0497904 0 0
0.055875 0 0
0.0626787 0 0
0.0703381 0 0
0.0790269 0 0
0.0889728 0 0
0.100471 0 0
0.113904 0 0
0.129777 0 0
0.148751 0 0
0.171707 0 0
0.199815 0 0
0.234646 0 0
0.278292 0 0
0.333523 0 0
0.403891 0 0
0.493675 0 0
0.607297 0 0
0.74759 0 0
0.912093 0 0
0.000443505 0 0
0.0013417 0 0
0.00227462 0 0
0.0032658 0 0
0.00433874 0 0
0.00551687 0 0
0.00682344 0 0
0.0082815 0 0
0.0099138 0 0
0.0117428 0 0
0.0137905 0 0
0.0160788 0 0
0.0186295 0 0
0.0214648 0 0
0.024608 0 0
0.0280844 0 0
0.0319225 0 0
0.0361559 0 0
0.0408258 0 0
0.0459834 0 0
0.0516939 0 0
0.058041 0 0
0.0651322 0 0
0.073107 0 0
0.0821421 0 0
0.0924699 0 0
0.104391 0 0
0.118296 0 0
0.134693 0 0
0.154253 0 0
0.177857 0 0
0.206675 0 0
0.242261 0 0
0.286669 0 0
0.342586 0 0
0.413411 0 0
0.503156 0 0
0.615845 0 0
0.753842 0 0
0.914471 0 0
0.000447522 0 0
0.00135423 0 0
0.00229715 0 0
0.00330082 0 0
0.00438983 0 0
0.00558872 0 0
0.00692199 0 0
0.008414 0 0
0.0100889 0 0
0.0119707 0 0
0.0140828 0 0
0.0164485 0 0
0.0190912 0 0
0.0220344 0 0
0.0253022 0 0
0.0289211 0 0
0.0329202 0 0
0.0373339 0 0
0.0422038 0 0
0.0475817 0 0
0.0535337 0 0
0.0601444 0 0
0.0675233 0 0
0.0758113 0 0
0.0851897 0 0
0.0958942 0 0
0.10823 0 0
0.122594 0 0
0.139501 0 0
0.159624 0 0
0.183848 0 0
0.213338 0 0
0.24963 0 0
0.294739 0 0
0.351271 0 0
0.422475 0 0
0.512116 0 0
0.623855 0 0
0.75965 0 0
0.916663 0 0
0.000448903 0 0
0.00135883 0 0
0.00230633 0 0
0.00331694 0 0
0.00441624 0 0
0.00562992 0 0
0.00698373 0 0
0.00850339 0 0
0.0102146 0 0
0.0121428 0 0
0.0143132 0 0
0.0167509 0 0
0.0194807 0 0
0.0225276 0 0
0.0259171 0 0
0.0296767 0 0
0.0338363 0 0
0.0384309 0 0
0.0435024 0 0
0.0491031 0 0
0.0552993 0 0
0.0621763 0 0
0.0698445 0 0
0.0784465 0 0
0.0881667 0 0
0.0992444 0 0
0.111989 0 0
0.126802 0 0
0.144203 0 0
0.164869 0 0
0.189686 0 0
0.219812 0 0
0.256766 0 0
0.302522 0 0
0.359604 0 0
0.431119 0 0
0.5206 0 0
0.63138 0 0
0.765063 0 0
0.918693 0 0
0.000447404 0 0
0.00135473 0 0
0.00230088 0 0
0.00331225 0 0
0.00441539 0 0
0.00563708 0 0
0.00700429 0 0
0.00854421 0 0
0.0102841 0 0
0.0122511 0 0
0.0144725 0 0
0.016975 0 0
0.0197855 0 0
0.0229307 0 0
0.0264378 0 0
0.0303353 0 0
0.0346543 0 0
0.0394304 0 0
0.0447056 0 0
0.0505322 0 0
0.0569767 0 0
0.0641242 0 0
0.0720856 0 0
0.0810046 0 0
0.0910677 0 0
0.102517 0 0
0.115666 0 0
0.130919 0 0
0.1488 0 0
0.169991 0 0
0.195376 0 0
0.226107 0 0
0.263682 0 0
0.310034 0 0
0.367607 0 0
0.439373 0 0
0.528648 0 0
0.638466 0 0
0.770123 0 0
0.92058 0 0
0.000442784 0 0
0.00134121 0 0
0.00227951 0 0
0.00328483 0 0
0.0043846 0 0
0.0056066 0 0
0.00697905 0 0
0.00853056 0 0
0.0102901 0 0
0.0122867 0 0
0.0145497 0 0
0.0171081 0 0
0.0199909 0 0
0.023227 0 0
0.0268456 0 0
0.030877 0 0
0.0353533 0 0
0.0403107 0 0
0.0457917 0 0
0.0518484 0 0
0.0585465 0 0
0.065971 0 0
0.0742321 0 0
0.0834737 0 0
0.0938836 0 0
0.105706 0 0
0.119256 0 0
0.134943 0 0
0.153295 0 0
0.174995 0 0
0.200925 0 0
0.23223 0 0
0.270388 0 0
0.31729 0 0
0.375303 0 0
0.447267 0 0
0.536296 0 0
0.645155 0 0
0.774868 0 0
0.92234 0 0
0.000434816 0 0
0.00131756 0 0
0.00224098 0 0
0.00323281 0 0
0.00432121 0 0
0.00553489 0 0
0.00690321 0 0
0.00845623 0 0
0.0102246 0 0
0.0122396 0 0
0.0145326 0 0
0.0171353 0 0
0.0200794 0 0
0.0233965 0 0
0.0271182 0 0
0.0312768 0 0
0.0359063 0 0
0.0410438 0 0
0.0467322 0 0
0.0530233 0 0
0.0599819 0 0
0.0676919 0 0
0.0762621 0 0
0.0858356 0 0
0.0965997 0 0
0.108799 0 0
0.122753 0 0
0.138871 0 0
0.157686 0 0
0.17988 0 0
0.206335 0 0
0.238188 0 0
0.276895 0 0
0.324305 0 0
0.382709 0 0
0.454825 0 0
0.543576 0 0
0.651481 0 0
0.779328 0 0
0.923986 0 0
0.000423298 0 0
0.00128316 0 0
0.00218417 0 0
0.00315447 0 0
0.00422274 0 0
0.00541846 0 0
0.00677204 0 0
0.00831491 0 0
0.0100795 0 0
0.0120992 0 0
0.0144079 0 0
0.0170404 0 0
0.0200314 0 0
0.0234156 0 0
0.0272281 0 0
0.0315039 0 0
0.0362793 0 0
0.0415933 0 0
0.0474892 0 0
0.0540186 0 0
0.0612455 0 0
0.0692517 0 0
0.0781438 0 0
0.0880626 0 0
0.0991934 0 0
0.111781 0 0
0.126143 0 0
0.142694 0 0
0.161967 0 0
0.184646 0 0
0.21161 0 0
0.243987 0 0
0.283211 0 0
0.33109 0 0
0.389845 0 0
0.46207 0 0
0.550517 0 0
0.657476 0 0
0.78353 0 0
0.925531 0 0
0.000408075 0 0
0.00123752 0 0
0.00210818 0 0
0.00304835 0 0
0.00408701 0 0
0.00525417 0 0
0.0065811 0 0
0.00810048 0 0
0.00984645 0 0
0.0118545 0 0
0.0141616 0 0
0.0168053 0 0
0.0198242 0 0
0.0232571 0 0
0.0271429 0 0
0.0315206 0 0
0.03643 0 0
0.0419123 0 0
0.0480126 0 0
0.0547826 0 0
0.0622851 0 0
0.0705997 0 0
0.07983 0 0
0.0901125 0 0
0.101628 0 0
0.11462 0 0
0.129404 0 0
0.146396 0 0
0.166129 0 0
0.189287 0 0
0.216748 0 0
0.249628 0 0
0.289343 0 0
0.337658 0 0
0.396724 0 0
0.469024 0 0
0.557143 0 0
0.663168 0 0
0.787498 0 0
0.926984 0 0
0.000389051 0 0
0.00118031 0 0
0.00201241 0 0
0.00291343 0 0
0.00391237 0 0
0.00503949 0 0
0.00632663 0 0
0.00780749 0 0
0.00951774 0 0
0.0114951 0 0
0.0137791 0 0
0.0164111 0 0
0.0194336 0 0
0.0228902 0 0
0.0268249 0 0
0.0312819 0 0
0.0363057 0 0
0.0419415 0 0
0.0482371 0 0
0.0552453 0 0
0.0630284 0 0
0.0716634 0 0
0.0812504 0 0
0.0919205 0 0
0.103847 0 0
0.117267 0 0
0.132497 0 0
0.149946 0 0
0.170149 0 0
0.193789 0 0
0.22174 0 0
0.25511 0 0
0.295293 0 0
0.344016 0 0
0.40336 0 0
0.475703 0 0
0.563476 0 0
0.668578 0 0
0.791251 0 0
0.928351 0 0
0.000366229 0 0
0.00111154 0 0
0.00189674 0 0
0.0027494 0 0
0.00369811 0 0
0.004773 0 0
0.00600613 0 0
0.00743187 0 0
0.00908711 0 0
0.0110115 0 0
0.0132472 0 0
0.0158392 0 0
0.0188346 0 0
0.0222823 0 0
0.0262325 0 0
0.030736 0 0
0.0358437 0 0
0.0416072 0 0
0.048079 0 0
0.0553146 0 0
0.0633763 0 0
0.0723382 0 0
0.0822933 0 0
0.0933586 0 0
0.105727 0 0
0.119613 0 0
0.135322 0 0
0.153258 0 0
0.173952 0 0
0.198085 0 0
0.226527 0 0
0.260377 0 0
0.301012 0 0
0.35012 0 0
0.409718 0 0
0.482081 0 0
0.569498 0 0
0.673697 0 0
0.794779 0 0
0.929623 0 0
0.000339696 0 0
0.00103143 0 0
0.00176152 0 0
0.00255655 0 0
0.00344432 0 0
0.00445435 0 0
0.00561845 0 0
0.00697113 0 0
0.00855003 0 0
0.0103962 0 0
0.0125543 0 0
0.0150726 0 0
0.0180027 0 0
0.0213996 0 0
0.0253203 0 0
0.0298239 0 0
0.0349703 0 0
0.0408197 0 0
0.0474324 0 0
0.05487 0 0
0.0631975 0 0
0.0724874 0 0
0.0828261 0 0
0.0943223 0 0
0.107173 0 0
0.121576 0 0
0.137818 0 0
0.156291 0 0
0.177514 0 0
0.202165 0 0
0.231109 0 0
0.265438 0 0
0.306511 0 0
0.355983 0 0
0.415812 0 0
0.488176 0 0
0.57523 0 0
0.678548 0 0
0.798105 0 0
0.930815 0 0
0.000309643 0 0
0.000940557 0 0
0.00160763 0 0
0.00233604 0 0
0.00315226 0 0
0.00408471 0 0
0.00516431 0 0
0.0064251 0 0
0.00790473 0 0
0.009645 0 0
0.0116922 0 0
0.0140974 0 0
0.0169165 0 0
0.02021 0 0
0.024043 0 0
0.0284837 0 0
0.033603 0 0
0.0394732 0 0
0.0461671 0 0
0.0537572 0 0
0.0623172 0 0
0.0719243 0 0
0.0826657 0 0
0.0946519 0 0
0.108046 0 0
0.123039 0 0
0.139896 0 0
0.158987 0 0
0.180813 0 0
0.206038 0 0
0.235519 0 0
0.27034 0 0
0.311847 0 0
0.361668 0 0
0.421703 0 0
0.494045 0 0
0.580727 0 0
0.683178 0 0
0.801267 0 0
0.931948 0 0
0.000276419 0 0
0.000839954 0 0
0.00143679 0 0
0.00209021 0 0
0.00282487 0 0
0.00366744 0 0
0.00464731 0 0
0.00579722 0 0
0.00715395 0 0
0.00875898 0 0
0.0106591 0 0
0.0129072 0 0
0.0155621 0 0
0.0186895 0 0
0.0223616 0 0
0.0266566 0 0
0.0316578 0 0
0.0374528 0 0
0.0441314 0 0
0.0517843 0 0
0.0605025 0 0
0.0703774 0 0
0.0815059 0 0
0.0939991 0 0
0.107998 0 0
0.123675 0 0
0.141268 0 0
0.16111 0 0
0.183669 0 0
0.20958 0 0
0.239681 0 0
0.275045 0 0
0.317006 0 0
0.367171 0 0
0.427398 0 0
0.499703 0 0
0.586006 0 0
0.687612 0 0
0.804295 0 0
0.93304 0 0
0.000240516 0 0
0.00073111 0 0
0.0012515 0 0
0.00182262 0 0
0.00246676 0 0
0.00320824 0 0
0.00407413 0 0
0.00509499 0 0
0.00630561 0 0
0.00774587 0 0
0.0094616 0 0
0.0115055 0 0
0.0139377 0 0
0.0168272 0 0
0.0202514 0 0
0.0242974 0 0
0.0290608 0 0
0.0346459 0 0
0.0411634 0 0
0.0487291 0 0
0.0574612 0 0
0.067479 0 0
0.0789027 0 0
0.0918573 0 0
0.106479 0 0
0.122927 0 0
0.141403 0 0
0.162193 0 0
0.185704 0 0
0.212514 0 0
0.243415 0 0
0.279451 0 0
0.321941 0 0
0.372479 0 0
0.432898 0 0
0.505153 0 0
0.591068 0 0
0.691826 0 0
0.807122 0 0
0.934027 0 0
0.00020258 0 0
0.000615983 0 0
0.00105511 0 0
0.00153809 0 0
0.00208436 0 0
0.00271529 0 0
0.00345486 0 0
0.00433049 0 0
0.00537378 0 0
0.00662149 0 0
0.00811657 0 0
0.0099093 0 0
0.0120585 0 0
0.0146329 0 0
0.0177122 0 0
0.0213885 0 0
0.0257669 0 0
0.0309663 0 0
0.0371186 0 0
0.0443681 0 0
0.0528689 0 0
0.0627818 0 0
0.0742714 0 0
0.0875028 0 0
0.102641 0 0
0.119853 0 0
0.139327 0 0
0.161296 0 0
0.186087 0 0
0.214175 0 0
0.246249 0 0
0.283268 0 0
0.326504 0 0
0.377536 0 0
0.438194 0 0
0.510415 0 0
0.595971 0 0
0.695977 0 0
0.810061 0 0
0.935183 0 0
0.000163408 0 0
0.000497 0 0
0.000851775 0 0
0.00124272 0 0
0.00168596 0 0
0.00219938 0 0
0.00280321 0 0
0.00352076 0 0
0.00437927 0 0
0.00541078 0 0
0.00665333 0 0
0.00815214 0 0
0.0099612 0 0
0.0121449 0 0
0.01478 0 0
0.0179576 0 0
0.0217853 0 0
0.0263896 0 0
0.0319172 0 0
0.0385363 0 0
0.046437 0 0
0.0558292 0 0
0.0669395 0 0
0.0800052 0 0
0.0952668 0 0
0.11296 0 0
0.133317 0 0
0.156571 0 0
0.182987 0 0
0.212916 0 0