# vtk DataFile Version 2.0
Presion
ASCII

DATASET STRUCTURED_GRID
DIMENSIONS   40   40   20

POINTS   32000   double
0.0125   0.0125   0.025
0.0375   0.0125   0.025
0.0625   0.0125   0.025
0.0875   0.0125   0.025
0.1125   0.0125   0.025
0.1375   0.0125   0.025
0.1625   0.0125   0.025
0.1875   0.0125   0.025
0.2125   0.0125   0.025
0.2375   0.0125   0.025
0.2625   0.0125   0.025
0.2875   0.0125   0.025
0.3125   0.0125   0.025
0.3375   0.0125   0.025
0.3625   0.0125   0.025
0.3875   0.0125   0.025
0.4125   0.0125   0.025
0.4375   0.0125   0.025
0.4625   0.0125   0.025
0.4875   0.0125   0.025
0.5125   0.0125   0.025
0.5375   0.0125   0.025
0.5625   0.0125   0.025
0.5875   0.0125   0.025
0.6125   0.0125   0.025
0.6375   0.0125   0.025
0.6625   0.0125   0.025
0.6875   0.0125   0.025
0.7125   0.0125   0.025
0.7375   0.0125   0.025
0.7625   0.0125   0.025
0.7875   0.0125   0.025
0.8125   0.0125   0.025
0.8375   0.0125   0.025
0.8625   0.0125   0.025
0.8875   0.0125   0.025
0.9125   0.0125   0.025
0.9375   0.0125   0.025
0.9625   0.0125   0.025
0.9875   0.0125   0.025
0.0125   0.0375   0.025
0.0375   0.0375   0.025
0.0625   0.0375   0.025
0.0875   0.0375   0.025
0.1125   0.0375   0.025
0.1375   0.0375   0.025
0.1625   0.0375   0.025
0.1875   0.0375   0.025
0.2125   0.0375   0.025
0.2375   0.0375   0.025
0.2625   0.0375   0.025
0.2875   0.0375   0.025
0.3125   0.0375   0.025
0.3375   0.0375   0.025
0.3625   0.0375   0.025
0.3875   0.0375   0.025
0.4125   0.0375   0.025
0.4375   0.0375   0.025
0.4625   0.0375   0.025
0.4875   0.0375   0.025
0.5125   0.0375   0.025
0.5375   0.0375   0.025
0.5625   0.0375   0.025
0.5875   0.0375   0.025
0.6125   0.0375   0.025
0.6375   0.0375   0.025
0.6625   0.0375   0.025
0.6875   0.0375   0.025
0.7125   0.0375   0.025
0.7375   0.0375   0.025
0.7625   0.0375   0.025
0.7875   0.0375   0.025
0.8125   0.0375   0.025
0.8375   0.0375   0.025
0.8625   0.0375   0.025
0.8875   0.0375   0.025
0.9125   0.0375   0.025
0.9375   0.0375   0.025
0.9625   0.0375   0.025
0.9875   0.0375   0.025
0.0125   0.0625   0.025
0.0375   0.0625   0.025
0.0625   0.0625   0.025
0.0875   0.0625   0.025
0.1125   0.0625   0.025
0.1375   0.0625   0.025
0.1625   0.0625   0.025
0.1875   0.0625   0.025
0.2125   0.0625   0.025
0.2375   0.0625   0.025
0.2625   0.0625   0.025
0.2875   0.0625   0.025
0.3125   0.0625   0.025
0.3375   0.0625   0.025
0.3625   0.0625   0.025
0.3875   0.0625   0.025
0.4125   0.0625   0.025
0.4375   0.0625   0.025
0.4625   0.0625   0.025
0.4875   0.0625   0.025
0.5125   0.0625   0.025
0.5375   0.0625   0.025
0.5625   0.0625   0.025
0.5875   0.0625   0.025
0.6125   0.0625   0.025
0.6375   0.0625   0.025
0.6625   0.0625   0.025
0.6875   0.0625   0.025
0.7125   0.0625   0.025
0.7375   0.0625   0.025
0.7625   0.0625   0.025
0.7875   0.0625   0.025
0.8125   0.0625   0.025
0.8375   0.0625   0.025
0.8625   0.0625   0.025
0.8875   0.0625   0.025
0.9125   0.0625   0.025
0.9375   0.0625   0.025
0.9625   0.0625   0.025
0.9875   0.0625   0.025
0.0125   0.0875   0.025
0.0375   0.0875   0.025
0.0625   0.0875   0.025
0.0875   0.0875   0.025
0.1125   0.0875   0.025
0.1375   0.0875   0.025
0.1625   0.0875   0.025
0.1875   0.0875   0.025
0.2125   0.0875   0.025
0.2375   0.0875   0.025
0.2625   0.0875   0.025
0.2875   0.0875   0.025
0.3125   0.0875   0.025
0.3375   0.0875   0.025
0.3625   0.0875   0.025
0.3875   0.0875   0.025
0.4125   0.0875   0.025
0.4375   0.0875   0.025
0.4625   0.0875   0.025
0.4875   0.0875   0.025
0.5125   0.0875   0.025
0.5375   0.0875   0.025
0.5625   0.0875   0.025
0.5875   0.0875   0.025
0.6125   0.0875   0.025
0.6375   0.0875   0.025
0.6625   0.0875   0.025
0.6875   0.0875   0.025
0.7125   0.0875   0.025
0.7375   0.0875   0.025
0.7625   0.0875   0.025
0.7875   0.0875   0.025
0.8125   0.0875   0.025
0.8375   0.0875   0.025
0.8625   0.0875   0.025
0.8875   0.0875   0.025
0.9125   0.0875   0.025
0.9375   0.0875   0.025
0.9625   0.0875   0.025
0.9875   0.0875   0.025
0.0125   0.1125   0.025
0.0375   0.1125   0.025
0.0625   0.1125   0.025
0.0875   0.1125   0.025
0.1125   0.1125   0.025
0.1375   0.1125   0.025
0.1625   0.1125   0.025
0.1875   0.1125   0.025
0.2125   0.1125   0.025
0.2375   0.1125   0.025
0.2625   0.1125   0.025
0.2875   0.1125   0.025
0.3125   0.1125   0.025
0.3375   0.1125   0.025
0.3625   0.1125   0.025
0.3875   0.1125   0.025
0.4125   0.1125   0.025
0.4375   0.1125   0.025
0.4625   0.1125   0.025
0.4875   0.1125   0.025
0.5125   0.1125   0.025
0.5375   0.1125   0.025
0.5625   0.1125   0.025
0.5875   0.1125   0.025
0.6125   0.1125   0.025
0.6375   0.1125   0.025
0.6625   0.1125   0.025
0.6875   0.1125   0.025
0.7125   0.1125   0.025
0.7375   0.1125   0.025
0.7625   0.1125   0.025
0.7875   0.1125   0.025
0.8125   0.1125   0.025
0.8375   0.1125   0.025
0.8625   0.1125   0.025
0.8875   0.1125   0.025
0.9125   0.1125   0.025
0.9375   0.1125   0.025
0.9625   0.1125   0.025
0.9875   0.1125   0.025
0.0125   0.1375   0.025
0.0375   0.1375   0.025
0.0625   0.1375   0.025
0.0875   0.1375   0.025
0.1125   0.1375   0.025
0.1375   0.1375   0.025
0.1625   0.1375   0.025
0.1875   0.1375   0.025
0.2125   0.1375   0.025
0.2375   0.1375   0.025
0.2625   0.1375   0.025
0.2875   0.1375   0.025
0.3125   0.1375   0.025
0.3375   0.1375   0.025
0.3625   0.1375   0.025
0.3875   0.1375   0.025
0.4125   0.1375   0.025
0.4375   0.1375   0.025
0.4625   0.1375   0.025
0.4875   0.1375   0.025
0.5125   0.1375   0.025
0.5375   0.1375   0.025
0.5625   0.1375   0.025
0.5875   0.1375   0.025
0.6125   0.1375   0.025
0.6375   0.1375   0.025
0.6625   0.1375   0.025
0.6875   0.1375   0.025
0.7125   0.1375   0.025
0.7375   0.1375   0.025
0.7625   0.1375   0.025
0.7875   0.1375   0.025
0.8125   0.1375   0.025
0.8375   0.1375   0.025
0.8625   0.1375   0.025
0.8875   0.1375   0.025
0.9125   0.1375   0.025
0.9375   0.1375   0.025
0.9625   0.1375   0.025
0.9875   0.1375   0.025
0.0125   0.1625   0.025
0.0375   0.1625   0.025
0.0625   0.1625   0.025
0.0875   0.1625   0.025
0.1125   0.1625   0.025
0.1375   0.1625   0.025
0.1625   0.1625   0.025
0.1875   0.1625   0.025
0.2125   0.1625   0.025
0.2375   0.1625   0.025
0.2625   0.1625   0.025
0.2875   0.1625   0.025
0.3125   0.1625   0.025
0.3375   0.1625   0.025
0.3625   0.1625   0.025
0.3875   0.1625   0.025
0.4125   0.1625   0.025
0.4375   0.1625   0.025
0.4625   0.1625   0.025
0.4875   0.1625   0.025
0.5125   0.1625   0.025
0.5375   0.1625   0.025
0.5625   0.1625   0.025
0.5875   0.1625   0.025
0.6125   0.1625   0.025
0.6375   0.1625   0.025
0.6625   0.1625   0.025
0.6875   0.1625   0.025
0.7125   0.1625   0.025
0.7375   0.1625   0.025
0.7625   0.1625   0.025
0.7875   0.1625   0.025
0.8125   0.1625   0.025
0.8375   0.1625   0.025
0.8625   0.1625   0.025
0.8875   0.1625   0.025
0.9125   0.1625   0.025
0.9375   0.1625   0.025
0.9625   0.1625   0.025
0.9875   0.1625   0.025
0.0125   0.1875   0.025
0.0375   0.1875   0.025
0.0625   0.1875   0.025
0.0875   0.1875   0.025
0.1125   0.1875   0.025
0.1375   0.1875   0.025
0.1625   0.1875   0.025
0.1875   0.1875   0.025
0.2125   0.1875   0.025
0.2375   0.1875   0.025
0.2625   0.1875   0.025
0.2875   0.1875   0.025
0.3125   0.1875   0.025
0.3375   0.1875   0.025
0.3625   0.1875   0.025
0.3875   0.1875   0.025
0.4125   0.1875   0.025
0.4375   0.1875   0.025
0.4625   0.1875   0.025
0.4875   0.1875   0.025
0.5125   0.1875   0.025
0.5375   0.1875   0.025
0.5625   0.1875   0.025
0.5875   0.1875   0.025
0.6125   0.1875   0.025
0.6375   0.1875   0.025
0.6625   0.1875   0.025
0.6875   0.1875   0.025
0.7125   0.1875   0.025
0.7375   0.1875   0.025
0.7625   0.1875   0.025
0.7875   0.1875   0.025
0.8125   0.1875   0.025
0.8375   0.1875   0.025
0.8625   0.1875   0.025
0.8875   0.1875   0.025
0.9125   0.1875   0.025
0.9375   0.1875   0.025
0.9625   0.1875   0.025
0.9875   0.1875   0.025
0.0125   0.2125   0.025
0.0375   0.2125   0.025
0.0625   0.2125   0.025
0.0875   0.2125   0.025
0.1125   0.2125   0.025
0.1375   0.2125   0.025
0.1625   0.2125   0.025
0.1875   0.2125   0.025
0.2125   0.2125   0.025
0.2375   0.2125   0.025
0.2625   0.2125   0.025
0.2875   0.2125   0.025
0.3125   0.2125   0.025
0.3375   0.2125   0.025
0.3625   0.2125   0.025
0.3875   0.2125   0.025
0.4125   0.2125   0.025
0.4375   0.2125   0.025
0.4625   0.2125   0.025
0.4875   0.2125   0.025
0.5125   0.2125   0.025
0.5375   0.2125   0.025
0.5625   0.2125   0.025
0.5875   0.2125   0.025
0.6125   0.2125   0.025
0.6375   0.2125   0.025
0.6625   0.2125   0.025
0.6875   0.2125   0.025
0.7125   0.2125   0.025
0.7375   0.2125   0.025
0.7625   0.2125   0.025
0.7875   0.2125   0.025
0.8125   0.2125   0.025
0.8375   0.2125   0.025
0.8625   0.2125   0.025
0.8875   0.2125   0.025
0.9125   0.2125   0.025
0.9375   0.2125   0.025
0.9625   0.2125   0.025
0.9875   0.2125   0.025
0.0125   0.2375   0.025
0.0375   0.2375   0.025
0.0625   0.2375   0.025
0.0875   0.2375   0.025
0.1125   0.2375   0.025
0.1375   0.2375   0.025
0.1625   0.2375   0.025
0.1875   0.2375   0.025
0.2125   0.2375   0.025
0.2375   0.2375   0.025
0.2625   0.2375   0.025
0.2875   0.2375   0.025
0.3125   0.2375   0.025
0.3375   0.2375   0.025
0.3625   0.2375   0.025
0.3875   0.2375   0.025
0.4125   0.2375   0.025
0.4375   0.2375   0.025
0.4625   0.2375   0.025
0.4875   0.2375   0.025
0.5125   0.2375   0.025
0.5375   0.2375   0.025
0.5625   0.2375   0.025
0.5875   0.2375   0.025
0.6125   0.2375   0.025
0.6375   0.2375   0.025
0.6625   0.2375   0.025
0.6875   0.2375   0.025
0.7125   0.2375   0.025
0.7375   0.2375   0.025
0.7625   0.2375   0.025
0.7875   0.2375   0.025
0.8125   0.2375   0.025
0.8375   0.2375   0.025
0.8625   0.2375   0.025
0.8875   0.2375   0.025
0.9125   0.2375   0.025
0.9375   0.2375   0.025
0.9625   0.2375   0.025
0.9875   0.2375   0.025
0.0125   0.2625   0.025
0.0375   0.2625   0.025
0.0625   0.2625   0.025
0.0875   0.2625   0.025
0.1125   0.2625   0.025
0.1375   0.2625   0.025
0.1625   0.2625   0.025
0.1875   0.2625   0.025
0.2125   0.2625   0.025
0.2375   0.2625   0.025
0.2625   0.2625   0.025
[...]
POINT_DATA   32000
SCALARS Presion double
LOOKUP_TABLE   Presion

0 0 0 0 0 0 0 0 0 0 0 0 0 0 0 0 0 0 0 0 0 0 0 0 0 0 0 0 0 0 0 0 0 0 0 0 0 0 0 0 -0.00201121 -0.00238901 -0.00303039 -0.00376424 -0.00451169 -0.00522166 -0.00585669 -0.006389 -0.0067985 -0.00707136 -0.00719867 -0.0071755 -0.00700024 -0.00667424 -0.00620173 -0.00558987 -0.0048489 -0.00399227 -0.00303672 -0.00200215 -0.000911346 0.00021041 0.00133604 0.00243743 0.00348633 0.00445532 0.00531882 0.00605407 0.00664202 0.00706826 0.00732368 0.00740518 0.00731606 0.00706614 0.00667154 0.0061539 0.00553949 0.00486067 0.00417321 0.00366266 -0.00217954 -0.00239937 -0.00290217 -0.00354302 -0.00423062 -0.00490421 -0.00552126 -0.00605136 -0.00647284 -0.00677059 -0.00693452 -0.00695849 -0.00683964 -0.00657799 -0.00617628 -0.00564003 -0.00497762 -0.0042004 -0.00332277 -0.00236212 -0.00133864 -0.000274984 0.000804207 0.00187297 0.00290474 0.00387325 0.00475337 0.00552214 0.00615962 0.00664994 0.00698207 0.00715073 0.00715703 0.0070091 0.0067226 0.00632153 0.00584029 0.0053302 0.0048797 0.00467151 -0.00186006 -0.00214633 -0.00264409 -0.00326313 -0.00393046 -0.00459147 -0.00520611 -0.00574528 -0.00618792 -0.00651903 -0.0067281 -0.00680818 -0.00675516 -0.00656747 -0.00624594 -0.00579388 -0.00521717 -0.00452446 -0.00372729 -0.00284014 -0.00188035 -0.00086801 0.000174475 0.0012228 0.00225142 0.00323433 0.00414591 0.00496196 0.00566074 0.00622403 0.00663823 0.00689541 0.00699422 0.00694079 0.00674963 0.00644478 0.00606213 0.00565436 0.00530194 0.00513209 -0.00126976 -0.00170233 -0.00227365 -0.00292849 -0.00361493 -0.00429033 -0.00492174 -0.00548437 -0.00595979 -0.00633431 -0.00659781 -0.00674288 -0.00676429 -0.00665876 -0.00642493 -0.00606354 -0.00557756 -0.00497255 -0.00425685 -0.00344179 -0.00254179 -0.00157439 -0.000559987 0.000478407 0.00151576 0.0025257 0.00348142 0.00435674 0.00512729 0.00577179 0.00627333 0.00662064 0.00680925 0.00684255 0.00673269 0.00650168 0.00618291 0.0058238 0.00549022 0.00527014 -0.000549643 -0.00115146 -0.00183509 -0.00256325 -0.00329985 -0.00401412 -0.0046815 -0.00528298 -0.00580391 -0.0062328 -0.00656049 -0.00677942 -0.00688337 -0.00686736 -0.00672771 -0.00646236 -0.00607118 -0.00555638 -0.0049229 -0.0041788 -0.0033355 -0.00240799 -0.0014148 -0.00037783 0.000678094 0.00172585 0.00273695 0.00368265 0.0045353 0.00526981 0.00586518 0.00630599 0.0065838 0.00669832 0.00665836 0.00648269 0.0062009 0.00585447 0.00549794 0.00519797 0.000202852 -0.000568803 -0.00138009 -0.00220236 -0.00301017 -0.00378247 -0.00450257 -0.00515739 -0.00573639 -0.00623069 -0.00663234 -0.00693389 -0.00712824 -0.00720872 -0.00716933 -0.00700513 -0.00671276 -0.00629097 -0.00574119 -0.00506806 -0.00427992 -0.00338915 -0.00241237 -0.00137039 -0.000287923 0.000806973 0.00188381 0.00291087 0.00385662 0.00469145 0.0053894 0.00592998 0.00629979 0.00649391 0.00651701 0.00638407 0.00612085 0.00576426 0.00536211 0.00497138 0.000915003 -1.81966e-05 -0.000959591 -0.00188503 -0.0027763 -0.00361988 -0.00440579 -0.00512627 -0.00577473 -0.0063448 -0.00682982 -0.00722251 -0.00751495 -0.00769886 -0.00776591 -0.00770833 -0.00751946 -0.00719452 -0.00673132 -0.00613096 -0.00539852 -0.00454359 -0.00358068 -0.00252935 -0.00141412 -0.000263953 0.000888538 0.00200831 0.00305947 0.00400711 0.00481941 0.00546972 0.00593857 0.00621544 0.00630002 0.00620316 0.00594723 0.00556612 0.00510474 0.00461725 0.00152875 0.000445886 -0.000621076 -0.00165104 -0.00263118 -0.00355395 -0.00441482 -0.0052106 -0.00593806 -0.00659311 -0.00717019 -0.00766215 -0.0080603 -0.00835476 -0.00853497 -0.00859029 -0.00851081 -0.00828816 -0.00791637 -0.00739284 -0.0067191 -0.00590165 -0.00495253 -0.00388972 -0.00273719 -0.00152465 -0.000286819 0.000937751 0.0021083 0.00318391 0.00412586 0.00490014 0.00547994 0.0058479 0.00599784 0.00593604 0.00568175 0.00526721 0.00473704 0.0041468 0.00199533 0.000776217 -0.000407915 -0.00153884 -0.00260832 -0.00361375 -0.00455514 -0.00543304 -0.00624702 -0.0069948 -0.00767173 -0.00827064 -0.00878207 -0.00919459 -0.00949541 -0.00967113 -0.00970853 -0.00959557 -0.00932239 -0.00888236 -0.00827313 -0.00749762 -0.0065649 -0.00549079 -0.00429824 -0.00301732 -0.00168465 -0.000342372 0.000963484 0.0021852 0.00327605 0.00419329 0.00490126 0.00537426 0.00559907 0.00557665 0.00532312 0.0048699 0.00426313 0.00356237 0.00227239 0.000931226 -0.00035945 -0.00158462 -0.0027404 -0.00382857 -0.00485298 -0.00581726 -0.00672323 -0.00757001 -0.00835358 -0.00906666 -0.00969894 -0.0102375 -0.0106673 -0.0109723 -0.0111359 -0.0111423 -0.0109776 -0.0106306 -0.0100948 -0.00936882 -0.00845806 -0.00737547 -0.00614228 -0.0047883 -0.00335165 -0.00187802 -0.000419016 0.000970098 0.00223338 0.00331777 0.00417692 0.00477501 0.00509011 0.00511676 0.0048675 0.00437327 0.00368282 0.00286137 0.00232243 0.000873997 -0.00051122 -0.0018219 -0.00305852 -0.00422693 -0.00533438 -0.00638708 -0.00738863 -0.00833925 -0.00923528 -0.0100692 -0.0108299 -0.0115029 -0.0120712 -0.0125158 -0.0128169 -0.0129548 -0.0129111 -0.01267 -0.0122197 -0.0115542 -0.0106743 -0.00958914 -0.00831721 -0.00688725 -0.00533832 -0.0037193 -0.00208757 -0.000506649 0.000957046 0.00223835 0.00327808 0.00402798 0.0044553 0.00454647 0.00430948 0.0037746 0.00299377 0.002039 0.00211211 0.000571723 -0.0008951 -0.00228121 -0.00359152 -0.00483579 -0.00602435 -0.00716562 -0.00826469 -0.00932259 -0.0103359 -0.0112969 -0.0121935 -0.0130098 -0.0137268 -0.0143229 -0.0147747 -0.0150586 -0.0151513 -0.0150319 -0.0146829 -0.0140926 -0.0132562 -0.0121777 -0.0108721 -0.00936574 -0.00769769 -0.00591951 -0.00409427 -0.0022943 -0.000597789 0.00091604 0.00217265 0.00310851 0.00367724 0.00385483 0.00364307 0.00307088 0.00219349 0.00109033 0.00161201 -4.48458e-06 -0.00153932 -0.00298987 -0.00436555 -0.00567986 -0.006946 -0.00817438 -0.00937136 -0.0105387 -0.0116731 -0.0127665 -0.0138062 -0.0147749 -0.0156517 -0.0164121 -0.0170296 -0.017476 -0.0177233 -0.0177446 -0.0175162 -0.0170195 -0.0162432 -0.015185 -0.0138545 -0.0122747 -0.0104831 -0.00853328 -0.00649341 -0.00444502 -0.0024792 -0.000691348 0.000825765 0.00198988 0.00273744 0.00303074 0.00286299 0.00226037 0.0012811 1.23359e-05 0.000796717 -0.000879543 -0.00246834 -0.00397174 -0.00540358 -0.00678098 -0.0081198 -0.00943229 -0.010726 -0.0120034 -0.0132614 -0.0144919 -0.0156813 -0.0168112 -0.0178589 -0.0187974 -0.0195966 -0.020224 -0.0206461 -0.0208299 -0.0207446 -0.0203639 -0.0196685 -0.0186485 -0.0173067 -0.0156605 -0.0137449 -0.0116134 -0.00933882 -0.00701166 -0.00473684 -0.00262796 -0.000799258 0.000644225 0.00161722 0.00206408 0.001966 0.0013443 0.000259311 -0.00119407 -0.00035483 -0.0020742 -0.00370265 -0.00524692 -0.00672504 -0.00815752 -0.00956275 -0.0109548 -0.0123424 -0.0137288 -0.0151113 -0.0164818 -0.0178264 -0.0191256 -0.0203551 -0.0214852 -0.0224826 -0.0233103 -0.0239291 -0.0242993 -0.0243824 -0.0241434 -0.0235539 -0.0225949 -0.0212603 -0.0195604 -0.017525 -0.0152062 -0.0126797 -0.0100442 -0.00741899 -0.00493762 -0.00273915 -0.000956096 0.000299057 0.000947132 0.000952616 0.000328787 -0.00086344 -0.00252177 -0.00185897 -0.00360474 -0.00525856 -0.00683149 -0.00834538 -0.00982384 -0.0112877 -0.0127527 -0.0142292 -0.0157213 -0.0172271 -0.0187387 -0.0202419 -0.0217169 -0.0231375 -0.024472 -0.0256835 -0.0267306 -0.0275683 -0.0281499 -0.0284284 -0.0283596 -0.0279046 -0.0270337 -0.0257304 -0.0239954 -0.021851 -0.0193454 -0.0165547 -0.0135846 -0.0105681 -0.00766023 -0.00502786 -0.00283619 -0.0012315 -0.000323536 -0.000170896 -0.000772924 -0.00207052 -0.00395482 -0.00372688 -0.00548273 -0.00714798 -0.00873729 -0.0102758 -0.0117898 -0.0133024 -0.0148317 -0.0163893 -0.0179809 -0.0196056 -0.0212562 -0.0229189 -0.0245732 -0.0261919 -0.0277412 -0.029181 -0.0304651 -0.031543 -0.0323604 -0.0328618 -0.0329928 -0.0327034 -0.0319517 -0.0307088 -0.0289636 -0.0267284 -0.024044 -0.0209845 -0.0176597 -0.0142148 -0.0108265 -0.00769236 -0.00501535 -0.00298306 -0.00174459 -0.00139 -0.00193772 -0.00333415 -0.00546533 -0.0059642 -0.00771485 -0.00937832 -0.0109718 -0.0125229 -0.0140603 -0.0156095 -0.0171908 -0.0188181 -0.020499 -0.0222344 -0.0240181 -0.025837 -0.0276706 -0.0294907 -0.0312617 -0.0329402 -0.0344759 -0.0358123 -0.0368879 -0.0376382 -0.0379982 -0.037906 -0.0373066 -0.0361571 -0.0344326 -0.0321323 -0.0292865 -0.0259632 -0.0222726 -0.0183696 -0.0144511 -0.0107468 -0.00750232 -0.00495465 -0.00330267 -0.00267874 -0.00312936 -0.00461193 -0.00700982 -0.00857089 -0.0103029 -0.0119527 -0.0135384 -0.015089 -0.0166353 -0.0182054 -0.0198223 -0.0215033 -0.0232584 -0.025091 -0.0269967 -0.0289635 -0.0309712 -0.032991 -0.0349855 -0.0369085 -0.0387056 -0.0403143 -0.0416659 -0.0426871 -0.0433023 -0.0434373 -0.0430232 -0.0420021 -0.0403332 -0.0380002 -0.0350196 -0.0314486 -0.0273933 -0.0230136 -0.0185237 -0.0141849 -0.010289 -0.00713059 -0.0049701 -0.00399584 -0.00429451 -0.00584266 -0.00852483 -0.0115412 -0.013244 -0.0148701 -0.0164364 -0.0179721 -0.0195096 -0.0210803 -0.0227113 -0.0244237 -0.0262317 -0.0281418 -0.0301521 -0.0322523 -0.0344228 -0.0366344 -0.0388482 -0.0410152 -0.0430768 -0.0449651 -0.0466043 -0.0479123 -0.0488032 -0.0491905 -0.0489913 -0.0481322 -0.0465553 -0.0442266 -0.0411452 -0.0373538 -0.0329484 -0.0280881 -0.0229987 -0.0179705 -0.0133426 -0.00947394 -0.00669946 -0.0052798 -0.00535798 -0.00694142 -0.00992182 -0.0148642 -0.0165315 -0.0181265 -0.0196623 -0.0211664 -0.0226733 -0.0242186 -0.025835 -0.0275494 -0.0293813 -0.0313417 -0.0334321 -0.0356442 -0.0379593 -0.040348 -0.0427697 -0.0451728 -0.0474946 -0.0496617 -0.0515917 -0.0531939 -0.0543726 -0.0550293 -0.0550678 -0.0543989 -0.0529474 -0.0506602 -0.047517 -0.0435412 -0.0388136 -0.0334847 -0.0277851 -0.0220272 -0.0165957 -0.0119183 -0.00841682 -0.00644303 -0.00621704 -0.00779372 -0.0110811 -0.0185244 -0.0201557 -0.0217159 -0.0232101 -0.0246632 -0.026112 -0.0275984 -0.029163 -0.0308411 -0.0326593 -0.0346347 -0.0367727 -0.0390678 -0.0415021 -0.0440459 -0.0466568 -0.0492803 -0.0518495 -0.0542859 -0.0565002 -0.0583938 -0.0598616 -0.0607941 -0.0610822 -0.0606219 -0.0593211 -0.0571077 -0.0539402 -0.0498203 -0.044808 -0.0390381 -0.032736 -0.0262274 -0.0199358 -0.0143583 -0.0100134 -0.00736464 -0.00673466 -0.00824871 -0.0118451 -0.0225033 -0.024106 -0.0256321 -0.0270739 -0.0284521 -0.0298078 -0.0311922 -0.0326575 -0.0342506 -0.0360081 -0.0379542 -0.0400997 -0.0424415 -0.0449627 -0.0476328 -0.0504073 -0.0532281 -0.056024 -0.0587108 -0.0611928 -0.0633638 -0.0651096 -0.0663107 -0.0668462 -0.0665987 -0.0654604 -0.0633411 -0.0601785 -0.0559512 -0.0506948 -0.0445216 -0.037642 -0.0303825 -0.0231944 -0.0166385 -0.0113362 -0.00788201 -0.00673155 -0.00811109 -0.0120096 -0.0267814 -0.0283734 -0.0298714 -0.0312491 -0.0325225 -0.0337398 -0.034967 -0.0362734 -0.0377216 -0.0393611 -0.0412252 -0.0433305 -0.0456766 -0.0482468 -0.0510089 -0.0539154 -0.0569042 -0.0598987 -0.062809 -0.0655325 -0.0679553 -0.069955 -0.0714027 -0.0721669 -0.0721183 -0.0711352 -0.0691116 -0.0659661 -0.0616548 -0.0561879 -0.0496504 -0.0422284 -0.0342361 -0.0261367 -0.0185427 -0.0121769 -0.00778096 -0.00597685 -0.00713173 -0.0113152 -0.0313414 -0.0329543 -0.0344365 -0.0357359 -0.0368648 -0.0378851 -0.0388851 -0.0399586 -0.0411897 -0.042644 -0.0443659 -0.0463777 -0.0486811 -0.0512585 -0.0540749 -0.0570784 -0.0602013 -0.0633612 -0.0664612 -0.0693914 -0.0720305 -0.0742474 -0.0759046 -0.076861 -0.0769767 -0.0761187 -0.0741672 -0.0710251 -0.0666291 -0.0609652 -0.05409 -0.0461593 -0.0374618 -0.0284547 -0.019783 -0.0122605 -0.00678442 -0.00417714 -0.00499632 -0.00943486 -0.0361732 -0.0378567 -0.0393413 -0.0405424 -0.041473 -0.0422191 -0.0429035 -0.0436544 -0.0445837 -0.0457771 -0.0472908 -0.0491525 -0.0513645 -0.0539067 -0.0567389 -0.0598031 -0.0630247 -0.0663135 -0.069565 -0.072661 -0.0754721 -0.0778586 -0.0796741 -0.0807687 -0.080993 -0.0802041 -0.0782718 -0.0750865 -0.07057 -0.0646888 -0.0574739 -0.0490486 -0.0396678 -0.0297643 -0.0199916 -0.0112331 -0.00453971 -0.000963319 -0.00131144 -0.00596055 -0.0412816 -0.0431082 -0.0446183 -0.0456894 -0.0463459 -0.0467162 -0.0469744 -0.0472955 -0.047827 -0.0486772 -0.0499142 -0.0515696 -0.0536435 -0.0561104 -0.0589226 -0.0620133 -0.065299 -0.0686801 -0.0720428 -0.0752599 -0.0781925 -0.0806921 -0.0826028 -0.0837657 -0.0840225 -0.0832214 -0.0812236 -0.0779108 -0.0731949 -0.0670294 -0.059426 -0.0504801 -0.0404095 -0.0296093 -0.0187157 -0.00865159 -0.000604073 0.00412547 0.00441331 -0.000384294 -0.046699 -0.0487704 -0.0503295 -0.0512164 -0.0514902 -0.0513497 -0.0510445 -0.0508112 -0.0508393 -0.0512614 -0.0521554 -0.0535528 -0.055448 -0.0578059 -0.0605679 -0.0636558 -0.0669744 -0.0704132 -0.0738474 -0.0771392 -0.0801395 -0.0826893 -0.0846229 -0.0857713 -0.0859668 -0.0850487 -0.0828705 -0.0793075 -0.0742657 -0.0676926 -0.0595899 -0.0500344 -0.0392121 -0.0274746 -0.0154195 -0.00397373 0.00557151 0.0116623 0.0127896 0.00792788 -0.0525071 -0.0549607 -0.0565818 -0.0571894 -0.0569216 -0.0560917 -0.0550553 -0.054126 -0.0535402 -0.0534521 -0.0539441 -0.0550419 -0.0567278 -0.0589527 -0.061643 -0.0647057 -0.0680318 -0.0714974 -0.0749653 -0.0782858 -0.0812981 -0.0838318 -0.0857096 -0.0867514 -0.0867785 -0.0856201 -0.083121 -0.07915 -0.0736098 -0.0664464 -0.057661 -0.0473241 -0.0356027 -0.0228106 -0.00949493 0.00344579 0.0146602 0.0223595 0.0245856 0.0197755 -0.0588755 -0.0618879 -0.0635504 -0.0637117 -0.0626683 -0.0609131 -0.0589436 -0.0571635 -0.0558541 -0.0551833 -0.0552281 -0.055999 -0.0574592 -0.0595394 -0.0621465 -0.0651698 -0.0684838 -0.0719497 -0.0754164 -0.078721 -0.0816896 -0.0841392 -0.0858797 -0.0867178 -0.0864616 -0.0849279 -0.0819499 -0.0773875 -0.0711381 -0.0631479 -0.0534222 -0.0420371 -0.0291571 -0.015074 -0.000288617 0.0143507 0.0274779 0.0371065 0.0407792 0.0361884 -0.0661309 -0.0699136 -0.0715144 -0.0709366 -0.0687729 -0.0657837 -0.0626444 -0.0598513 -0.0577178 -0.0564087 -0.0559804 -0.0564157 -0.0576496 -0.0595862 -0.0621088 -0.065086 -0.0683738 -0.0718173 -0.0752503 -0.0784957 -0.0813661 -0.0836644 -0.0851863 -0.0857235 -0.0850687 -0.0830225 -0.0794023 -0.0740536 -0.0668626 -0.0577702 -0.046784 -0.0339896 -0.0195625 -0.00379316 0.0128461 0.0295588 0.0449968 0.0570216 0.0626437 0.0585389 -0.0748873 -0.0796527 -0.0809069 -0.0790828 -0.0752932 -0.0706722 -0.0660935 -0.0621265 -0.0590868 -0.057108 -0.056204 -0.056315 -0.0573378 -0.0591437 -0.0615887 -0.0645183 -0.0677693 -0.0711697 -0.0745381 -0.0776829 -0.0804025 -0.0824854 -0.0837122 -0.083858 -0.0826976 -0.0800119 -0.075597 -0.0692764 -0.0609148 -0.0504347 -0.0378328 -0.0231945 -0.0067053 0.0113328 0.0304541 0.0498971 0.0683398 0.0835198 0.0918868 0.0887455 -0.0862965 -0.092144 -0.0923805 -0.0884414 -0.0822939 -0.0755389 -0.0692246 -0.0639356 -0.0599349 -0.0572838 -0.0559267 -0.0557441 -0.0565844 -0.0582811 -0.0606604 -0.0635438 -0.0667487 -0.0700864 -0.0733606 -0.076366 -0.078887 -0.0806981 -0.0815643 -0.0812437 -0.0794914 -0.0760656 -0.0707357 -0.0632941 -0.0535703 -0.041449 -0.0268898 -0.00994767 0.00920914 0.0302831 0.0528127 0.0760591 0.098716 0.118384 0.130877 0.129652 -0.102553 -0.109125 -0.106869 -0.09935 -0.0898044 -0.0803002 -0.0719405 -0.0652081 -0.0602287 -0.0569371 -0.0551757 -0.0547481 -0.055446 -0.0570615 -0.0593901 -0.0622304 -0.0653812 -0.0686388 -0.0717934 -0.0746274 -0.0769127 -0.0784109 -0.0788724 -0.0780389 -0.0756455 -0.0714258 -0.0651186 -0.056477 -0.0452808 -0.0313529 -0.014579 0.00506812 0.0275027 0.0525001 0.0796622 0.108318 0.137209 0.163776 0.182987 0.185732 -0.127973 -0.133436 -0.12556 -0.11205 -0.0976767 -0.084705 -0.0740082 -0.0657683 -0.0598517 -0.0559992 -0.053917 -0.0533161 -0.0539264 -0.0554981 -0.057798 -0.0606041 -0.0636998 -0.0668689 -0.0698911 -0.0725386 -0.0745736 -0.0757467 -0.0757964 -0.0744498 -0.0714238 -0.066428 -0.0591691 -0.049356 -0.0367076 -0.0209625 -0.00189245 0.020679 0.0468511 0.076613 0.1098 0.146004 0.184249 0.22199 0.253043 0.264382 -0.171443 -0.16943 -0.149516 -0.126207 -0.105158 -0.0879941 -0.0748002 -0.065139 -0.058453 -0.0542125 -0.0519577 -0.0512998 -0.0519085 -0.0534975 -0.055811 -0.0586118 -0.061673 -0.0647702 -0.0676762 -0.0701569 -0.0719681 -0.0728531 -0.072542 -0.070751 -0.0671824 -0.0615258 -0.0534581 -0.0426453 -0.0287417 -0.0113897 0.00978227 0.0351614 0.0651489 0.100151 0.140553 0.186664 0.238473 0.294438 0.347576 0.37828 -0.252261 -0.222584 -0.178102 -0.139423 -0.10979 -0.0881803 -0.0728473 -0.0622598 -0.0552572 -0.0509914 -0.0488386 -0.0483269 -0.0490846 -0.0508046 -0.0532209 -0.0560911 -0.0591853 -0.0622772 -0.065138 -0.0675318 -0.0692123 -0.0699202 -0.0693817 -0.0673072 -0.0633903 -0.0573066 -0.0487117 -0.0372365 -0.0224802 -0.00399657 0.0187286 0.0463135 0.079534 0.1194 0.167252 0.224883 0.294636 0.378753 0.473553 0.550045 -0.413208 -0.294633 -0.20285 -0.143113 -0.105342 -0.0811768 -0.0654937 -0.0553389 -0.0489828 -0.045363 -0.0437849 -0.0437614 -0.0449257 -0.0469813 -0.0496725 -0.0527666 -0.0560411 -0.0592758 -0.0622466 -0.0647215 -0.0664572 -0.0671965 -0.066667 -0.0645792 -0.0606248 -0.0544745 -0.0457736 -0.034135 -0.0191258 -0.00024444 0.0231196 0.051755 0.0867498 0.129705 0.183113 0.251027 0.340229 0.462016 0.630245 0.823271 -0.752812 -0.345313 -0.18629 -0.11654 -0.0812928 -0.0614269 -0.0495007 -0.0422544 -0.0380882 -0.0361225 -0.0358141 -0.0367871 -0.038753 -0.04147 -0.0447212 -0.0483017 -0.0520094 -0.0556397 -0.0589808 -0.0618108 -0.0638944 -0.0649821 -0.0648076 -0.063087 -0.0595173 -0.0537734 -0.0455046 -0.0343265 -0.0198079 -0.00144625 0.0213743 0.0494598 0.083949 0.126597 0.180382 0.25095 0.350263 0.505465 0.77477 1.27439 0 0 0 0 0 0 0 0 0 0 0 0 0 0 0 0 0 0 0 0 0 0 0 0 0 0 0 0 0 0 0 0 0 0 0 0 0 0 0 0 -0.0020468 -0.0024099 -0.00293678 -0.00348795 -0.00401257 -0.00448174 -0.00487485 -0.0051766 -0.00537599 -0.00546564 -0.0054413 -0.00530134 -0.00504654 -0.00468002 -0.00420723 -0.00363608 -0.0029771 -0.00224342 -0.00145079 -0.00061739 0.000236587 0.0010894 0.00191846 0.00270114 0.00341561 0.00404181 0.00456225 0.00496292 0.00523395 0.00537019 0.00537166 0.00524373 0.00499714 0.00464767 0.0042156 0.00372489 0.00320244 0.0026796 0.00220473 0.00190903 -0.00234951 -0.00254361 -0.00291775 -0.00335418 -0.00378953 -0.00418689 -0.00452261 -0.0047806 -0.00494982 -0.00502287 -0.00499529 -0.00486503 -0.00463224 -0.00429923 -0.0038705 -0.00335286 -0.00275553 -0.00209024 -0.00137113 -0.000614633 0.000160885 0.000935567 0.0016887 0.00239947 0.00304776 0.00361505 0.00408527 0.00444565 0.00468741 0.00480638 0.00480335 0.00468431 0.00446042 0.00414784 0.0037675 0.00334508 0.00291211 0.0025102 0.00220306 0.00210396 -0.00227413 -0.00249748 -0.00283506 -0.00321928 -0.00360222 -0.00395215 -0.00424802 -0.00447564 -0.00462533 -0.00469054 -0.00466707 -0.00455267 -0.00434686 -0.00405094 -0.00366813 -0.0032037 -0.00266519 -0.00206247 -0.00140784 -0.000715857 -3.16484e-06 0.000711932 0.00141001 0.00207123 0.00267615 0.00320662 0.00364673 0.00398373 0.00420884 0.00431793 0.00431196 0.00419726 0.00398547 0.00369332 0.00334243 0.00295926 0.00257586 0.00223215 0.00198007 0.00188678 -0.00201789 -0.00233853 -0.00270558 -0.0030858 -0.00345013 -0.00377703 -0.00405153 -0.00426336 -0.00440541 -0.00447267 -0.00446163 -0.00436999 -0.00419663 -0.0039417 -0.00360688 -0.00319563 -0.00271345 -0.00216816 -0.00156998 -0.000931594 -0.000268024 0.000403671 0.00106486 0.00169602 0.00227754 0.00279071 0.00321877 0.00354796 0.00376855 0.00387563 0.00386973 0.00375705 0.00354943 0.00326401 0.0029227 0.00255168 0.00218111 0.00184504 0.00158102 0.00142635 -0.00169981 -0.00213787 -0.00256683 -0.0029739 -0.00334537 -0.00367024 -0.00394065 -0.00415117 -0.00429792 -0.00437783 -0.00438829 -0.00432704 -0.00419225 -0.0039828 -0.00369863 -0.00334116 -0.00291367 -0.00242169 -0.00187326 -0.00127916 -0.000652884 -1.04655e-05 0.000629889 0.00124844 0.00182476 0.00233881 0.00277212 0.00310904 0.00333799 0.00345246 0.00345179 0.00334149 0.00313317 0.00284404 0.002496 0.00211453 0.0017275 0.00136369 0.0010507 0.000811011 -0.00139824 -0.00195595 -0.00246062 -0.00291213 -0.00330839 -0.00364761 -0.00392883 -0.00415151 -0.00431509 -0.0044185 -0.00446005 -0.00443745 -0.00434808 -0.00418941 -0.00395948 -0.00365747 -0.00328425 -0.00284288 -