# vtk DataFile Version 2.0
Presion
ASCII

DATASET STRUCTURED_GRID
DIMENSIONS   40   40   20

POINTS   32000   double
0.0125   0.0125   0.025
0.0375   0.0125   0.025
0.0625   0.0125   0.025
0.0875   0.0125   0.025
0.1125   0.0125   0.025
0.1375   0.0125   0.025
0.1625   0.0125   0.025
0.1875   0.0125   0.025
0.2125   0.0125   0.025
0.2375   0.0125   0.025
0.2625   0.0125   0.025
0.2875   0.0125   0.025
0.3125   0.0125   0.025
0.3375   0.0125   0.025
0.3625   0.0125   0.025
0.3875   0.0125   0.025
0.4125   0.0125   0.025
0.4375   0.0125   0.025
0.4625   0.0125   0.025
0.4875   0.0125   0.025
0.5125   0.0125   0.025
0.5375   0.0125   0.025
0.5625   0.0125   0.025
0.5875   0.0125   0.025
0.6125   0.0125   0.025
0.6375   0.0125   0.025
0.6625   0.0125   0.025
0.6875   0.0125   0.025
0.7125   0.0125   0.025
0.7375   0.0125   0.025
0.7625   0.0125   0.025
0.7875   0.0125   0.025
0.8125   0.0125   0.025
0.8375   0.0125   0.025
0.8625   0.0125   0.025
0.8875   0.0125   0.025
0.9125   0.0125   0.025
0.9375   0.0125   0.025
0.9625   0.0125   0.025
0.9875   0.0125   0.025
0.0125   0.0375   0.025
0.0375   0.0375   0.025
0.0625   0.0375   0.025
0.0875   0.0375   0.025
0.1125   0.0375   0.025
0.1375   0.0375   0.025
0.1625   0.0375   0.025
0.1875   0.0375   0.025
0.2125   0.0375   0.025
0.2375   0.0375   0.025
0.2625   0.0375   0.025
0.2875   0.0375   0.025
0.3125   0.0375   0.025
0.3375   0.0375   0.025
0.3625   0.0375   0.025
0.3875   0.0375   0.025
0.4125   0.0375   0.025
0.4375   0.0375   0.025
0.4625   0.0375   0.025
0.4875   0.0375   0.025
0.5125   0.0375   0.025
0.5375   0.0375   0.025
0.5625   0.0375   0.025
0.5875   0.0375   0.025
0.6125   0.0375   0.025
0.6375   0.0375   0.025
0.6625   0.0375   0.025
0.6875   0.0375   0.025
0.7125   0.0375   0.025
0.7375   0.0375   0.025
0.7625   0.0375   0.025
0.7875   0.0375   0.025
0.8125   0.0375   0.025
0.8375   0.0375   0.025
0.8625   0.0375   0.025
0.8875   0.0375   0.025
0.9125   0.0375   0.025
0.9375   0.0375   0.025
0.9625   0.0375   0.025
0.9875   0.0375   0.025
0.0125   0.0625   0.025
0.0375   0.0625   0.025
0.0625   0.0625   0.025
0.0875   0.0625   0.025
0.1125   0.0625   0.025
0.1375   0.0625   0.025
0.1625   0.0625   0.025
0.1875   0.0625   0.025
0.2125   0.0625   0.025
0.2375   0.0625   0.025
0.2625   0.0625   0.025
0.2875   0.0625   0.025
0.3125   0.0625   0.025
0.3375   0.0625   0.025
0.3625   0.0625   0.025
0.3875   0.0625   0.025
0.4125   0.0625   0.025
0.4375   0.0625   0.025
0.4625   0.0625   0.025
0.4875   0.0625   0.025
0.5125   0.0625   0.025
0.5375   0.0625   0.025
0.5625   0.0625   0.025
0.5875   0.0625   0.025
0.6125   0.0625   0.025
0.6375   0.0625   0.025
0.6625   0.0625   0.025
0.6875   0.0625   0.025
0.7125   0.0625   0.025
0.7375   0.0625   0.025
0.7625   0.0625   0.025
0.7875   0.0625   0.025
0.8125   0.0625   0.025
0.8375   0.0625   0.025
0.8625   0.0625   0.025
0.8875   0.0625   0.025
0.9125   0.0625   0.025
0.9375   0.0625   0.025
0.9625   0.0625   0.025
0.9875   0.0625   0.025
0.0125   0.0875   0.025
0.0375   0.0875   0.025
0.0625   0.0875   0.025
0.0875   0.0875   0.025
0.1125   0.0875   0.025
0.1375   0.0875   0.025
0.1625   0.0875   0.025
0.1875   0.0875   0.025
0.2125   0.0875   0.025
0.2375   0.0875   0.025
0.2625   0.0875   0.025
0.2875   0.0875   0.025
0.3125   0.0875   0.025
0.3375   0.0875   0.025
0.3625   0.0875   0.025
0.3875   0.0875   0.025
0.4125   0.0875   0.025
0.4375   0.0875   0.025
0.4625   0.0875   0.025
0.4875   0.0875   0.025
0.5125   0.0875   0.025
0.5375   0.0875   0.025
0.5625   0.0875   0.025
0.5875   0.0875   0.025
0.6125   0.0875   0.025
0.6375   0.0875   0.025
0.6625   0.0875   0.025
0.6875   0.0875   0.025
0.7125   0.0875   0.025
0.7375   0.0875   0.025
0.7625   0.0875   0.025
0.7875   0.0875   0.025
0.8125   0.0875   0.025
0.8375   0.0875   0.025
0.8625   0.0875   0.025
0.8875   0.0875   0.025
0.9125   0.0875   0.025
0.9375   0.0875   0.025
0.9625   0.0875   0.025
0.9875   0.0875   0.025
0.0125   0.1125   0.025
0.0375   0.1125   0.025
0.0625   0.1125   0.025
0.0875   0.1125   0.025
0.1125   0.1125   0.025
0.1375   0.1125   0.025
0.1625   0.1125   0.025
0.1875   0.1125   0.025
0.2125   0.1125   0.025
0.2375   0.1125   0.025
0.2625   0.1125   0.025
0.2875   0.1125   0.025
0.3125   0.1125   0.025
0.3375   0.1125   0.025
0.3625   0.1125   0.025
0.3875   0.1125   0.025
0.4125   0.1125   0.025
0.4375   0.1125   0.025
0.4625   0.1125   0.025
0.4875   0.1125   0.025
0.5125   0.1125   0.025
0.5375   0.1125   0.025
0.5625   0.1125   0.025
0.5875   0.1125   0.025
0.6125   0.1125   0.025
0.6375   0.1125   0.025
0.6625   0.1125   0.025
0.6875   0.1125   0.025
0.7125   0.1125   0.025
0.7375   0.1125   0.025
0.7625   0.1125   0.025
0.7875   0.1125   0.025
0.8125   0.1125   0.025
0.8375   0.1125   0.025
0.8625   0.1125   0.025
0.8875   0.1125   0.025
0.9125   0.1125   0.025
0.9375   0.1125   0.025
0.9625   0.1125   0.025
0.9875   0.1125   0.025
0.0125   0.1375   0.025
0.0375   0.1375   0.025
0.0625   0.1375   0.025
0.0875   0.1375   0.025
0.1125   0.1375   0.025
0.1375   0.1375   0.025
0.1625   0.1375   0.025
0.1875   0.1375   0.025
0.2125   0.1375   0.025
0.2375   0.1375   0.025
0.2625   0.1375   0.025
0.2875   0.1375   0.025
0.3125   0.1375   0.025
0.3375   0.1375   0.025
0.3625   0.1375   0.025
0.3875   0.1375   0.025
0.4125   0.1375   0.025
0.4375   0.1375   0.025
0.4625   0.1375   0.025
0.4875   0.1375   0.025
0.5125   0.1375   0.025
0.5375   0.1375   0.025
0.5625   0.1375   0.025
0.5875   0.1375   0.025
0.6125   0.1375   0.025
0.6375   0.1375   0.025
0.6625   0.1375   0.025
0.6875   0.1375   0.025
0.7125   0.1375   0.025
0.7375   0.1375   0.025
0.7625   0.1375   0.025
0.7875   0.1375   0.025
0.8125   0.1375   0.025
0.8375   0.1375   0.025
0.8625   0.1375   0.025
0.8875   0.1375   0.025
0.9125   0.1375   0.025
0.9375   0.1375   0.025
0.9625   0.1375   0.025
0.9875   0.1375   0.025
0.0125   0.1625   0.025
0.0375   0.1625   0.025
0.0625   0.1625   0.025
0.0875   0.1625   0.025
0.1125   0.1625   0.025
0.1375   0.1625   0.025
0.1625   0.1625   0.025
0.1875   0.1625   0.025
0.2125   0.1625   0.025
0.2375   0.1625   0.025
0.2625   0.1625   0.025
0.2875   0.1625   0.025
0.3125   0.1625   0.025
0.3375   0.1625   0.025
0.3625   0.1625   0.025
0.3875   0.1625   0.025
0.4125   0.1625   0.025
0.4375   0.1625   0.025
0.4625   0.1625   0.025
0.4875   0.1625   0.025
0.5125   0.1625   0.025
0.5375   0.1625   0.025
0.5625   0.1625   0.025
0.5875   0.1625   0.025
0.6125   0.1625   0.025
0.6375   0.1625   0.025
0.6625   0.1625   0.025
0.6875   0.1625   0.025
0.7125   0.1625   0.025
0.7375   0.1625   0.025
0.7625   0.1625   0.025
0.7875   0.1625   0.025
0.8125   0.1625   0.025
0.8375   0.1625   0.025
0.8625   0.1625   0.025
0.8875   0.1625   0.025
0.9125   0.1625   0.025
0.9375   0.1625   0.025
0.9625   0.1625   0.025
0.9875   0.1625   0.025
0.0125   0.1875   0.025
0.0375   0.1875   0.025
0.0625   0.1875   0.025
0.0875   0.1875   0.025
0.1125   0.1875   0.025
0.1375   0.1875   0.025
0.1625   0.1875   0.025
0.1875   0.1875   0.025
0.2125   0.1875   0.025
0.2375   0.1875   0.025
0.2625   0.1875   0.025
0.2875   0.1875   0.025
0.3125   0.1875   0.025
0.3375   0.1875   0.025
0.3625   0.1875   0.025
0.3875   0.1875   0.025
0.4125   0.1875   0.025
0.4375   0.1875   0.025
0.4625   0.1875   0.025
0.4875   0.1875   0.025
0.5125   0.1875   0.025
0.5375   0.1875   0.025
0.5625   0.1875   0.025
0.5875   0.1875   0.025
0.6125   0.1875   0.025
0.6375   0.1875   0.025
0.6625   0.1875   0.025
0.6875   0.1875   0.025
0.7125   0.1875   0.025
0.7375   0.1875   0.025
0.7625   0.1875   0.025
0.7875   0.1875   0.025
0.8125   0.1875   0.025
0.8375   0.1875   0.025
0.8625   0.1875   0.025
0.8875   0.1875   0.025
0.9125   0.1875   0.025
0.9375   0.1875   0.025
0.9625   0.1875   0.025
0.9875   0.1875   0.025
0.0125   0.2125   0.025
0.0375   0.2125   0.025
0.0625   0.2125   0.025
0.0875   0.2125   0.025
0.1125   0.2125   0.025
0.1375   0.2125   0.025
0.1625   0.2125   0.025
0.1875   0.2125   0.025
0.2125   0.2125   0.025
0.2375   0.2125   0.025
0.2625   0.2125   0.025
0.2875   0.2125   0.025
0.3125   0.2125   0.025
0.3375   0.2125   0.025
0.3625   0.2125   0.025
0.3875   0.2125   0.025
0.4125   0.2125   0.025
0.4375   0.2125   0.025
0.4625   0.2125   0.025
0.4875   0.2125   0.025
0.5125   0.2125   0.025
0.5375   0.2125   0.025
0.5625   0.2125   0.025
0.5875   0.2125   0.025
0.6125   0.2125   0.025
0.6375   0.2125   0.025
0.6625   0.2125   0.025
0.6875   0.2125   0.025
0.7125   0.2125   0.025
0.7375   0.2125   0.025
0.7625   0.2125   0.025
0.7875   0.2125   0.025
0.8125   0.2125   0.025
0.8375   0.2125   0.025
0.8625   0.2125   0.025
0.8875   0.2125   0.025
0.9125   0.2125   0.025
0.9375   0.2125   0.025
0.9625   0.2125   0.025
0.9875   0.2125   0.025
0.0125   0.2375   0.025
0.0375   0.2375   0.025
0.0625   0.2375   0.025
0.0875   0.2375   0.025
0.1125   0.2375   0.025
0.1375   0.2375   0.025
0.1625   0.2375   0.025
0.1875   0.2375   0.025
0.2125   0.2375   0.025
0.2375   0.2375   0.025
0.2625   0.2375   0.025
0.2875   0.2375   0.025
0.3125   0.2375   0.025
0.3375   0.2375   0.025
0.3625   0.2375   0.025
0.3875   0.2375   0.025
0.4125   0.2375   0.025
0.4375   0.2375   0.025
0.4625   0.2375   0.025
0.4875   0.2375   0.025
0.5125   0.2375   0.025
0.5375   0.2375   0.025
0.5625   0.2375   0.025
0.5875   0.2375   0.025
0.6125   0.2375   0.025
0.6375   0.2375   0.025
0.6625   0.2375   0.025
0.6875   0.2375   0.025
0.7125   0.2375   0.025
0.7375   0.2375   0.025
0.7625   0.2375   0.025
0.7875   0.2375   0.025
0.8125   0.2375   0.025
0.8375   0.2375   0.025
0.8625   0.2375   0.025
0.8875   0.2375   0.025
0.9125   0.2375   0.025
0.9375   0.2375   0.025
0.9625   0.2375   0.025
0.9875   0.2375   0.025
0.0125   0.2625   0.025
0.0375   0.2625   0.025
0.0625   0.2625   0.025
0.0875   0.2625   0.025
0.1125   0.2625   0.025
0.1375   0.2625   0.025
0.1625   0.2625   0.025
0.1875   0.2625   0.025
0.2125   0.2625   0.025
0.2375   0.2625   0.025
0.2625   0.2625   0.025
[...]
POINT_DATA   32000
SCALARS Presion double
LOOKUP_TABLE   Presion

0 0 0 0 0 0 0 0 0 0 0 0 0 0 0 0 0 0 0 0 0 0 0 0 0 0 0 0 0 0 0 0 0 0 0 0 0 0 0 0 -4.92689e-06 -4.88548e-06 -4.80901e-06 -4.70096e-06 -4.56366e-06 -4.39888e-06 -4.20817e-06 -3.99288e-06 -3.75422e-06 -3.4932e-06 -3.21066e-06 -2.90748e-06 -2.58371e-06 -2.23948e-06 -1.87464e-06 -1.48888e-06 -1.0817e-06 -6.52533e-07 -2.0079e-07 2.74022e-07 7.72194e-07 1.29361e-06 1.83787e-06 2.4039e-06 2.98985e-06 3.59299e-06 4.20959e-06 4.83476e-06 5.46247e-06 6.08547e-06 6.69543e-06 7.28334e-06 7.8389e-06 8.35176e-06 8.81165e-06 9.20892e-06 9.53508e-06 9.78334e-06 9.94926e-06 1.00313e-05 -9.84999e-06 -9.76792e-06 -9.61552e-06 -9.39963e-06 -9.12493e-06 -8.79511e-06 -8.41332e-06 -7.98238e-06 -7.50478e-06 -6.98265e-06 -6.41769e-06 -5.81172e-06 -5.1649e-06 -4.47745e-06 -3.74911e-06 -2.9792e-06 -2.16671e-06 -1.31044e-06 -4.09151e-07 5.38224e-07 1.53236e-06 2.57313e-06 3.65985e-06 4.79047e-06 5.96143e-06 7.16741e-06 8.40101e-06 9.65259e-06 1.09101e-05 1.21592e-05 1.33829e-05 1.45634e-05 1.56797e-05 1.67111e-05 1.76366e-05 1.84367e-05 1.9094e-05 1.95949e-05 1.993e-05 2.00961e-05 -1.47819e-05 -1.4659e-05 -1.44303e-05 -1.41058e-05 -1.36926e-05 -1.31964e-05 -1.26222e-05 -1.19743e-05 -1.12567e-05 -1.04728e-05 -9.62526e-06 -8.71688e-06 -7.74798e-06 -6.71893e-06 -5.62931e-06 -4.47802e-06 -3.26344e-06 -1.98362e-06 -6.36541e-07 7.79614e-07 2.2661e-06 3.82297e-06 5.44951e-06 7.14293e-06 8.89822e-06 1.07077e-05 1.25605e-05 1.44424e-05 1.63355e-05 1.82181e-05 2.0065e-05 2.18488e-05 2.35378e-05 2.51e-05 2.65035e-05 2.7718e-05 2.87169e-05 2.94786e-05 2.99887e-05 3.02419e-05 -1.97345e-05 -1.95703e-05 -1.9264e-05 -1.8829e-05 -1.82751e-05 -1.76101e-05 -1.68409e-05 -1.59738e-05 -1.50143e-05 -1.39673e-05 -1.28365e-05 -1.16261e-05 -1.03363e-05 -8.96789e-06 -7.52011e-06 -5.9914e-06 -4.37937e-06 -2.68117e-06 -8.93734e-07 9.85727e-07 2.95934e-06 5.02769e-06 7.19036e-06 9.4442e-06 1.17831e-05 1.41974e-05 1.66731e-05 1.91918e-05 2.17296e-05 2.42579e-05 2.67425e-05 2.91465e-05 3.14266e-05 3.35391e-05 3.54399e-05 3.70871e-05 3.84434e-05 3.94787e-05 4.01726e-05 4.05171e-05 -2.47199e-05 -2.45132e-05 -2.41272e-05 -2.3579e-05 -2.28808e-05 -2.20431e-05 -2.10751e-05 -1.9985e-05 -1.87806e-05 -1.74683e-05 -1.60533e-05 -1.45408e-05 -1.29317e-05 -1.12267e-05 -9.42482e-06 -7.52393e-06 -5.52067e-06 -3.411e-06 -1.19055e-06 1.14482e-06 3.59849e-06 6.17201e-06 8.86572e-06 1.16766e-05 1.45981e-05 1.76188e-05 2.07225e-05 2.38863e-05 2.70813e-05 3.02715e-05 3.34139e-05 3.64611e-05 3.9358e-05 4.20476e-05 4.44724e-05 4.65774e-05 4.83131e-05 4.96395e-05 5.05293e-05 5.09713e-05 -2.97503e-05 -2.94995e-05 -2.90308e-05 -2.83651e-05 -2.75177e-05 -2.65018e-05 -2.53292e-05 -2.40111e-05 -2.25572e-05 -2.09762e-05 -1.92751e-05 -1.74604e-05 -1.55336e-05 -1.34954e-05 -1.13446e-05 -9.07825e-06 -6.69173e-06 -4.17952e-06 -1.53556e-06 1.24608e-06 4.17052e-06 7.24079e-06 1.04586e-05 1.38218e-05 1.73238e-05 2.09526e-05 2.46896e-05 2.8509e-05 3.23764e-05 3.62488e-05 4.00742e-05 4.37944e-05 4.73409e-05 5.06423e-05 5.36259e-05 5.62215e-05 5.83656e-05 6.00064e-05 6.1108e-05 6.16554e-05 -3.48384e-05 -3.45413e-05 -3.39858e-05 -3.31968e-05 -3.21932e-05 -3.09915e-05 -2.96068e-05 -2.80531e-05 -2.63435e-05 -2.44891e-05 -2.2499e-05 -2.03815e-05 -1.81387e-05 -1.57714e-05 -1.32781e-05 -1.06546e-05 -7.89475e-06 -4.99123e-06 -1.93577e-06 1.27985e-06 4.66308e-06 8.21914e-06 1.19518e-05 1.58604e-05 1.99394e-05 2.41768e-05 2.85529e-05 3.30392e-05 3.75966e-05 4.21755e-05 4.67146e-05 5.11439e-05 5.53807e-05 5.93373e-05 6.29236e-05 6.60515e-05 6.86409e-05 7.06256e-05 7.19595e-05 7.26225e-05 -3.9998e-05 -3.96516e-05 -3.90038e-05 -3.80839e-05 -3.69148e-05 -3.5517e-05 -3.39095e-05 -3.21105e-05 -3.01365e-05 -2.8002e-05 -2.57188e-05 -2.32972e-05 -2.07401e-05 -1.80486e-05 -1.52204e-05 -1.225e-05 -9.1292e-06 -5.84828e-06 -2.3963e-06 1.2379e-06 5.06477e-06 9.0924e-06 1.33275e-05 1.77719e-05 2.2422e-05 2.7267e-05 3.22871e-05 3.74521e-05 4.27191e-05 4.80321e-05 5.33206e-05 5.85023e-05 6.34786e-05 6.81435e-05 7.23865e-05 7.60985e-05 7.91792e-05 8.15451e-05 8.31371e-05 8.39286e-05 -4.52443e-05 -4.48448e-05 -4.40974e-05 -4.30364e-05 -4.16895e-05 -4.00819e-05 -3.82377e-05 -3.61799e-05 -3.39297e-05 -3.1506e-05 -2.89238e-05 -2.6196e-05 -2.33265e-05 -2.03166e-05 -1.71629e-05 -1.38579e-05 -1.03913e-05 -6.75008e-06 -2.91997e-06 1.11375e-06 5.36525e-06 9.84639e-06 1.45677e-05 1.95346e-05 2.47466e-05 3.01954e-05 3.58627e-05 4.17176e-05 4.77149e-05 5.37928e-05 5.98717e-05 6.58561e-05 7.16303e-05 7.70673e-05 8.20327e-05 8.63924e-05 9.00216e-05 9.28148e-05 9.46972e-05 9.56334e-05 -5.05949e-05 -5.01372e-05 -4.92807e-05 -4.80653e-05 -4.65244e-05 -4.4689e-05 -4.25894e-05 -4.02549e-05 -3.7713e-05 -3.49876e-05 -3.20983e-05 -2.90611e-05 -2.58812e-05 -2.25597e-05 -1.90918e-05 -1.54676e-05 -1.16735e-05 -7.69274e-06 -3.50694e-06 9.02959e-07 5.55563e-06 1.04675e-05 1.5654e-05 2.11253e-05 2.68856e-05 3.29305e-05 3.92449e-05 4.57995e-05 5.25478e-05 5.94236e-05 6.63387e-05 7.31841e-05 7.98249e-05 8.61101e-05 9.18774e-05 9.69624e-05 0.00010121 0.000104488 0.0001067 0.000107802 -5.60701e-05 -5.55479e-05 -5.45699e-05 -5.3183e-05 -5.14269e-05 -4.934e-05 -4.69604e-05 -4.43256e-05 -4.14708e-05 -3.84272e-05 -3.522e-05 -3.18688e-05 -2.83805e-05 -2.47558e-05 -2.09878e-05 -1.70631e-05 -1.29639e-05 -8.66867e-06 -4.15422e-06 6.03603e-07 5.62877e-06 1.09432e-05 1.65681e-05 2.25198e-05 2.88088e-05 3.54366e-05 4.23935e-05 4.96539e-05 5.71727e-05 6.4881e-05 7.26828e-05 8.04554e-05 8.80428e-05 9.52666e-05 0.000101931 0.000107836 0.000112788 0.000116621 0.000119213 0.000120504 -6.16947e-05 -6.10996e-05 -5.99846e-05 -5.84037e-05 -5.6405e-05 -5.40357e-05 -5.13438e-05 -4.83773e-05 -4.51818e-05 -4.17978e-05 -3.82579e-05 -3.45867e-05 -3.07928e-05 -2.68756e-05 -2.28249e-05 -1.86228e-05 -1.42455e-05 -9.66606e-06 -4.85532e-06 2.16667e-07 5.57978e-06 1.12622e-05 1.7292e-05 2.36929e-05 3.04833e-05 3.76734e-05 4.52613e-05 5.32283e-05 6.15339e-05 7.01093e-05 7.88525e-05 8.7627e-05 9.62541e-05 0.000104524 0.000112201 0.000119039 0.0001248 0.000129276 0.00013231 0.000133822 -6.7499e-05 -6.68207e-05 -6.55485e-05 -6.37452e-05 -6.14685e-05 -5.87764e-05 -5.57297e-05 -5.23899e-05 -4.88164e-05 -4.50625e-05 -4.11707e-05 -3.71718e-05 -3.30759e-05 -2.88803e-05 -2.45694e-05 -2.01184e-05 -1.54962e-05 -1.06686e-05 -5.59976e-06 -2.53439e-07 5.40662e-06 1.14154e-05 1.78085e-05 2.46186e-05 3.18739e-05 3.95956e-05 4.77934e-05 5.64596e-05 6.55625e-05 7.50378e-05 8.47805e-05 9.4641e-05 0.000104416 0.000113858 0.000122685 0.000130596 0.000137296 0.000142521 0.000146072 0.000147844 -7.35208e-05 -7.27461e-05 -7.12915e-05 -6.92297e-05 -6.66293e-05 -6.35622e-05 -6.01048e-05 -5.63366e-05 -5.23354e-05 -4.8172e-05 -4.39029e-05 -3.95669e-05 -3.51753e-05 -3.07207e-05 -2.61789e-05 -2.1515e-05 -1.66881e-05 -1.16551e-05 -6.37283e-06 -7.98346e-07 5.11088e-06 1.13966e-05 1.81027e-05 2.52716e-05 3.29435e-05 4.11534e-05 4.99267e-05 5.92723e-05 6.91734e-05 7.95767e-05 9.03791e-05 0.00010142 0.000112468 0.000123234 0.000133378 0.000142531 0.000150326 0.000156433 0.000160596 0.000162675 -7.98078e-05 -7.89205e-05 -7.72519e-05 -7.48858e-05 -7.19038e-05 -6.8394e-05 -6.44526e-05 -6.01823e-05 -5.56863e-05 -5.10601e-05 -4.63802e-05 -4.16965e-05 -3.70202e-05 -3.23346e-05 -2.76015e-05 -2.27707e-05 -1.77882e-05 -1.26001e-05 -7.15544e-06 -1.40514e-06 4.69874e-06 1.12042e-05 1.81631e-05 2.56285e-05 3.36543e-05 4.22926e-05 5.15892e-05 6.15762e-05 7.22613e-05 8.36115e-05 9.55342e-05 0.000107861 0.000120332 0.000132602 0.000144264 0.000154865 0.000163949 0.0001711 0.000175992 0.000178438 -8.64198e-05 -8.54001e-05 -8.34788e-05 -8.07516e-05 -7.73149e-05 -7.32755e-05 -6.87538e-05 -6.38825e-05 -5.87997e-05 -5.36372e-05 -4.85022e-05 -4.34605e-05 -3.85199e-05 -3.36457e-05 -2.87759e-05 -2.38377e-05 -1.87592e-05 -1.34743e-05 -7.92421e-06 -2.0557e-06 4.18245e-06 1.08426e-05 1.79838e-05 2.56702e-05 3.39705e-05 4.29568e-05 5.27002e-05 6.32648e-05 7.46951e-05 8.69942e-05 0.000100095 0.000113828 0.000127898 0.000141895 0.000155321 0.000167621 0.000178231 0.000186627 0.00019239 0.000195278 -9.34321e-05 -9.22562e-05 -9.00354e-05 -8.6878e-05 -8.28957e-05 -7.82162e-05 -7.29881e-05 -6.7382e-05 -6.15843e-05 -5.57815e-05 -5.01309e-05 -4.47244e-05 -3.95582e-05 -3.45618e-05 -2.96327e-05 -2.46647e-05 -1.95623e-05 -1.42463e-05 -8.65204e-06 -2.72589e-06 3.58214e-06 1.03251e-05 1.7568e-05 2.53854e-05 3.38617e-05 4.30903e-05 5.31723e-05 6.42132e-05 7.63111e-05 8.95309e-05 0.000103858 0.000119138 0.000135028 0.000151027 0.00016652 0.000180828 0.000193251 0.000203134 0.000209945 0.000213365 -0.000100938 -9.95786e-05 -9.70034e-05 -9.33333e-05 -8.8695e-05 -8.32371e-05 -7.71387e-05 -7.0616e-05 -6.39204e-05 -5.73231e-05 -5.10702e-05 -4.53043e-05 -3.99871e-05 -3.49756e-05 -3.00988e-05 -2.5202e-05 -2.01615e-05 -1.48857e-05 -9.30908e-06 -3.38434e-06 2.92889e-06 9.67781e-06 1.69315e-05 2.47755e-05 3.3309e-05 4.26457e-05 5.29176e-05 6.42794e-05 7.69048e-05 9.09612e-05 0.000106541 0.00012354 0.000141539 0.000159893 0.000177832 0.00019452 0.000209104 0.00022077 0.000228843 0.000232905 -0.000109054 -0.000107479 -0.000104487 -0.000100209 -9.47846e-05 -8.83799e-05 -8.12022e-05 -7.35159e-05 -6.56545e-05 -5.80195e-05 -5.10271e-05 -4.49419e-05 -3.96216e-05 -3.47712e-05 -3.01073e-05 -2.54114e-05 -2.05312e-05 -1.53682e-05 -9.86443e-06 -3.99044e-06 2.26973e-06 8.94399e-06 1.61078e-05 2.38603e-05 3.23134e-05 4.15946e-05 5.18601e-05 6.33135e-05 7.62243e-05 9.0924e-05 0.000107727 0.000126684 0.000147201 0.000168381 0.000189238 0.000208758 0.000225914 0.000239712 0.000249304 0.000254142 -0.000117917 -0.000116093 -0.000112616 -0.000107626 -0.000101269 -9.37213e-05 -8.52074e-05 -7.60282e-05 -6.66024e-05 -5.75165e-05 -4.95253e-05 -4.32655e-05 -3.8243e-05 -3.38432e-05 -2.96172e-05 -2.52813e-05 -2.06672e-05 -1.56825e-05 -1.0289e-05 -4.49058e-06 1.67785e-06 8.19108e-06 1.51516e-05 2.26833e-05 3.0906e-05 3.99462e-05 4.99623e-05 6.11848e-05 7.39764e-05 8.89051e-05 0.000106746 0.000128066 0.000151743 0.000176396 0.000200759 0.000223637 0.000243839 0.000260176 0.000271589 0.000277363 -0.000127693 -0.000125584 -0.000121551 -0.000115738 -0.000108295 -9.93925e-05 -8.92486e-05 -7.81622e-05 -6.65879e-05 -5.52984e-05 -4.56771e-05 -3.9741e-05 -3.56378e-05 -3.21449e-05 -2.86482e-05 -2.48485e-05 -2.06004e-05 -1.58406e-05 -1.05616e-05 -4.81298e-06 1.27849e-06 7.5176e-06 1.41378e-05 2.13126e-05 2.91579e-05 3.77714e-05 4.72713e-05 5.78504e-05 6.98849e-05 8.41699e-05 0.000102348 0.00012696 0.000154908 0.000183933 0.000212499 0.000239319 0.000263085 0.000282416 0.000296 0.000302899 -0.00013857 -0.000136141 -0.00013148 -0.000124739 -0.00011606 -0.000105598 -9.35328e-05 -8.00886e-05 -6.55952e-05 -5.07195e-05 -3.74562e-05 -3.37025e-05 -3.17504e-05 -2.97879e-05 -2.73285e-05 -2.42195e-05 -2.04098e-05 -1.58909e-05 -1.06862e-05 -4.86983e-06 1.32928e-06 7.05053e-06 1.31444e-05 1.98317e-05 2.71829e-05 3.5227e-05 4.39846e-05 5.34978e-05 6.39144e-05 7.58184e-05 9.16653e-05 0.000122479 0.000156687 0.000191214 0.000224713 0.00025605 0.000283906 0.000306722 0.000322876 0.000331124 -0.00015076 -0.000147975 -0.00014262 -0.000134851 -0.000124806 -0.00011262 -9.84168e-05 -8.22892e-05 -6.42106e-05 -4.3753e-05 -1.8955e-05 -2.51025e-05 -2.71253e-05 -2.71911e-05 -2.59328e-05 -2.35761e-05 -2.02232e-05 -1.59322e-05 -1.07375e-05 -4.63495e-06 2.52096e-06 6.86393e-06 1.2199e-05 1.83145e-05 2.51256e-05 3.25575e-05 4.05006e-05 4.87573e-05 5.69107e-05 6.38872e-05 6.6253e-05 0.00011467 0.000157947 0.000198907 0.000237853 0.00027416 0.000306594 0.000333406 0.000352585 0.000362446 -0.000164492 -0.000161317 -0.000155203 -0.000146316 -0.000134799 -0.000120777 -0.000104355 -8.55743e-05 -6.43394e-05 -4.02578e-05 -1.23931e-05 -1.9778e-05 -2.36234e-05 -2.5099e-05 -2.48286e-05 -2.31344e-05 -2.01924e-05 -1.61065e-05 -1.09377e-05 -4.70643e-06 2.62287e-06 6.40926e-06 1.11867e-05 1.68023e-05 2.31321e-05 3.00413e-05 3.734e-05 4.47188e-05 5.16251e-05 5.70184e-05 5.8996e-05 0.00011219 0.000161464 0.000208136 0.000252489 0.000294005 0.000331431 0.000362771 0.000385495 0.000397294 -0.000180012 -0.00017641 -0.00016947 -0.000159377 -0.00014629 -0.00013035 -0.000111676 -9.03424e-05 -6.63445e-05 -3.95714e-05 -9.86657e-06 -1.70427e-05 -2.15604e-05 -2.38386e-05 -2.425e-05 -2.30568e-05 -2.04357e-05 -1.65079e-05 -1.13583e-05 -5.04754e-06 2.37338e-06 5.76682e-06 1.01285e-05 1.53553e-05 2.13238e-05 2.78813e-05 3.48204e-05 4.18391e-05 4.84868e-05 5.41176e-05 5.7974e-05 0.000113954 0.000167689 0.000219388 0.000268976 0.000315842 0.000358639 0.000395072 0.000421958 0.000436105 -0.000197575 -0.000193505 -0.000185663 -0.000174266 -0.000159501 -0.000141544 -0.000120557 -9.6682e-05 -7.00341e-05 -4.07231e-05 -8.93986e-06 -1.59013e-05 -2.06947e-05 -2.34235e-05 -2.42732e-05 -2.3422e-05 -2.10177e-05 -1.71792e-05 -1.20042e-05 -5.57896e-06 2.00574e-06 5.04752e-06 9.08461e-06 1.40326e-05 1.9777e-05 2.61723e-05 3.30308e-05 4.0109e-05 4.70987e-05 5.36527e-05 5.95053e-05 0.000118437 0.000176237 0.000232671 0.000287422 0.000339788 0.00038834 0.000430489 0.00046228 0.000479303 -0.000217445 -0.000212855 -0.000204021 -0.000191198 -0.000174618 -0.000154505 -0.000131081 -0.000104559 -7.51559e-05 -4.31159e-05 -8.76627e-06 -1.57321e-05 -2.07242e-05 -2.37424e-05 -2.48749e-05 -2.42392e-05 -2.19533e-05 -1.81263e-05 -1.28585e-05 -6.24703e-06 1.60444e-06 4.32247e-06 8.10543e-06 1.28741e-05 1.85239e-05 2.4926e-05 3.19261e-05 3.93437e-05 4.69826e-05 5.46639e-05 6.23002e-05 0.00012468 0.000186633 0.000247802 0.00030778 0.000365843 0.000420553 0.000469104 0.0005067 0.000527291 -0.000239894 -0.00023472 -0.000224775 -0.000210371 -0.000191797 -0.000169338 -0.000143281 -0.00011391 -8.1519e-05 -4.6426e-05 -9.01108e-06 -1.61885e-05 -2.14108e-05 -2.46595e-05 -2.5985e-05 -2.54728e-05 -2.3221e-05 -1.93293e-05 -1.38951e-05 -7.01615e-06 1.20439e-06 3.63151e-06 7.22284e-06 1.18994e-05 1.7565e-05 2.4109e-05 3.1409e-05 3.9336e-05 4.77674e-05 5.66102e-05 6.58361e-05 0.000132132 0.000198485 0.000264548 0.000329916 0.000393918 0.000455202 0.000510888 0.000555361 0.000580435 -0.000265204 -0.00025936 -0.000248152 -0.000231964 -0.000211162 -0.000186109 -0.000157163 -0.000124674 -8.89904e-05 -5.0475e-05 -9.52314e-06 -1.70737e-05 -2.25826e-05 -2.6047e-05 -2.75138e-05 -2.70591e-05 -2.47728e-05 -2.07485e-05 -1.5079e-05 -7.85698e-06 8.22531e-07 2.99748e-06 6.45565e-06 1.11153e-05 1.68862e-05 2.36726e-05 3.1378e-05 3.99107e-05 4.91943e-05 5.91802e-05 6.986e-05 0.000140456 0.000211488 0.000282666 0.000353644 0.000423854 0.000492124 0.00055569 0.000608281 0.00063904 -0.000293666 -0.000287037 -0.00027436 -0.000256125 -0.000232801 -0.000204845 -0.000172698 -0.000136773 -9.7463e-05 -5.51496e-05 -1.02226e-05 -1.82645e-05 -2.41092e-05 -2.77868e-05 -2.93606e-05 -2.89139e-05 -2.6538e-05 -2.23251e-05 -1.63637e-05 -8.73795e-06 4.70204e-07 2.43728e-06 5.81844e-06 1.0526e-05 1.6472e-05 2.35717e-05 3.17477e-05 4.09348e-05 5.10863e-05 6.21801e-05 7.4219e-05 0.000149411 0.000225373 0.000301899 0.000378726 0.000455424 0.000531065 0.00060322 0.000665307 0.000703328 -0.000325579 -0.000318006 -0.000303587 -0.000282959 -0.000256737 -0.000225504 -0.000189798 -0.000150095 -0.000106819 -6.0352e-05 -1.10566e-05 -1.96678e-05 -2.5877e-05 -2.97599e-05 -3.14108e-05 -3.09314e-05 -2.84227e-05 -2.39795e-05 -1.76868e-05 -9.61892e-06 1.59609e-07 1.97004e-06 5.3298e-06 1.01414e-05 1.63158e-05 2.37752e-05 3.24563e-05 4.23127e-05 5.33196e-05 6.54749e-05 7.87952e-05 0.000158786 0.000239872 0.000321945 0.00040485 0.000488307 0.00057167 0.000653033 0.000726054 0.00077338 -0.000361251 -0.000352508 -0.000335966 -0.000312487 -0.000282895 -0.000247941 -0.000208278 -0.000164448 -0.00011689 -6.5965e-05 -1.19775e-05 -2.11935e-05 -2.77671e-05 -3.1833e-05 -3.35275e-05 -3.29796e-05 -3.03057e-05 -2.56067e-05 -1.89655e-05 -1.04459e-05 -9.18322e-08 1.62327e-06 5.01873e-06 9.98353e-06 1.6425e-05 2.42697e-05 3.34647e-05 4.39789e-05 5.58047e-05 6.89591e-05 8.34782e-05 0.000168368 0.000254685 0.000342438 0.0004316 0.000522057 0.000613446 0.000704506 0.000789829 0.000849069 -0.00040099 -0.000390744 -0.000371537 -0.000344588 -0.00031103 -0.000271839 -0.0002278 -0.000179514 -0.000127418 -7.18191e-05 -1.29282e-05 -2.27345e-05 -2.9637e-05 -3.3844e-05 -3.55424e-05 -3.48938e-05 -3.2034e-05 -2.70726e-05 -2.00922e-05 -1.11467e-05 -2.58229e-07 1.43694e-06 4.92814e-06 1.0089e-05 1.68224e-05 2.50587e-05 3.47538e-05 4.58891e-05 5.84728e-05 7.25407e-05 8.8153e-05 0.000177926 0.000269464 0.000362919 0.000458423 0.000556049 0.000655711 0.000756804 0.000855531 0.000929938 -0.000445094 -0.000432821 -0.000410151 -0.000378892 -0.000340627 -0.000296618 -0.000247792 -0.000194786 -0.000138003 -7.76595e-05 -1.38286e-05 -2.41485e-05 -3.13049e-05 -3.55914e-05 -3.72497e-05 -3.64752e-05 -3.34238e-05 -2.82155e-05 -2.0935e-05 -1.16299e-05 -3.03459e-07 1.46426e-06 5.11363e-06 1.05053e-05 1.75409e-05 2.61557e-05 3.63145e-05 4.80103e-05 6.12647e-05 7.61309e-05 9.26947e-05 0.000187196 0.000283799 0.000382826 0.000484603 0.000589431 0.000697509 0.000808828 0.000921534 0.00101502 -0.000493807 -0.00047864 -0.000451306 -0.000414598 -0.000370739 -0.000321313 -0.000267359 -0.000209501 -0.000148058 -8.31135e-05 -1.45623e-05 -2.52447e-05 -3.25422e-05 -3.68347e-05 -3.8413e-05 -3.75012e-05 -3.42725e-05 -2.88576e-05 -2.13478e-05 -1.17912e-05 -1.82747e-07 1.7658e-06 5.63346e-06 1.12784e-05 1.86084e-05 2.7568e-05 3.81324e-05 5.03047e-05 6.41173e-05 7.96356e-05 9.69665e-05 0.000195884 0.000297218 0.000401487 0.000509249 0.000621088 0.00073752 0.000859137 0.000985573 0.00110259 -0.000547219 -0.00052763 -0.000493801 -0.000450173 -0.000399765 -0.000344428 -0.000285201 -0.000222598 -0.000156783 -8.76737e-05 -1.49664e-05 -2.57844e-05 -3.30888e-05 -3.73206e-05 -3.87989e-05 -3.77632e-05 -3.43974e-05 -2.88423e-05 -2.12007e-05 -1.15344e-05 1.48063e-07 2.39065e-06 6.52327e-06 1.24234e-05 2.00179e-05 2.92672e-05 4.01585e-05 5.27039e-05 6.69419e-05 8.29416e-05 0.000100818 0.000203661 0.000309186 0.00041813 0.000531303 0.00064964 0.000773987 0.000905821 0.00104466 0.00118969 -0.000604937 -0.000578072 -0.000535086 -0.000482896 -0.000425211 -0.00036385 -0.000299616 -0.000232763 -0.000163229 -9.07446e-05 -1.48475e-05 -2.55311e-05 -3.27267e-05 -3.68688e-05 -3.82665e-05 -3.71548e-05 -3.37199e-05 -2.81111e-05 -2.04484e-05 -1.08236e-05 7.07106e-07 3.33423e-06 7.74636e-06 1.38736e-05 2.16778e-05 3.11417e-05 4.2266e-05 5.50696e-05 6.95917e-05 8.58938e-05 0.000104078 0.000210163 0.000319116 0.000431903 0.000549581 0.000673485 0.000804727 0.000946319 0.00109515 0.00127147 -0.00066486 -0.000625413 -0.000570129 -0.000508398 -0.000443658 -0.000377049 -0.000308798 -0.000238754 -0.000166588 -9.18684e-05 -1.40851e-05 -2.44219e-05 -3.14748e-05 -3.55646e-05 -3.69479e-05 -3.58384e-05 -3.24173e-05 -2.68412e-05 -1.92508e-05 -9.77996e-06 1.43169e-06 4.46081e-06 9.1127e-06 1.54037e-05 2.33415e-05 3.29332e-05 4.41919e-05 5.71409e-05 7.18158e-05 8.82617e-05 0.000106545 0.000214979 0.000326379 0.000441913 0.000562845 0.000690893 0.000827338 0.000977164 0.00113337 0.00133981 -0.00071771 -0.000658477 -0.000590506 -0.000521253 -0.000451896 -0.000382281 -0.000311945 -0.00024036 -0.000166996 -9.13444e-05 -1.29701e-05 -2.29832e-05 -2.99762e-05 -3.40951e-05 -3.55352e-05 -3.44893e-05 -3.11342e-05 -2.56322e-05 -1.81398e-05 -8.82761e-06 2.07964e-06 5.39001e-06 1.01773e-05 1.6544e-05 2.45346e-05 3.41736e-05 4.54818e-05 5.84843e-05 7.32123e-05 8.96961e-05 0.00010796 0.000217649 0.000330326 0.00044729 0.000569943 0.000700187 0.000839618 0.000993919 0.00115644 0.00138158 0 0 0 0 0 0 0 0 0 0 0 0 0 0 0 0 0 0 0 0 0 0 0 0 0 0 0 0 0 0 0 0 0 0 0 0 0 0 0 0 -4.89393e-06 -4.85723e-06 -4.78596e-06 -4.68249e-06 -4.54896e-06 -4.38728e-06 -4.19914e-06 -3.98604e-06 -3.74929e-06 -3.48998e-06 -3.20902e-06 -2.90732e-06 -2.58499e-06 -2.24216e-06 -1.87874e-06 -1.4944e-06 -1.08868e-06 -6.61008e-07 -2.10794e-07 2.6246e-07 7.59067e-07 1.27892e-06 1.82169e-06 2.38633e-06 2.97108e-06 3.5733e-06 4.18934e-06 4.81446e-06 5.44274e-06 6.06705e-06 6.67917e-06 7.27018e-06 7.82981e-06 8.34772e-06 8.81358e-06 9.21758e-06 9.55099e-06 9.80667e-06 9.9795e-06 1.0