# vtk DataFile Version 2.0
Presion
ASCII

DATASET STRUCTURED_GRID
DIMENSIONS   40   40   20

POINTS   32000   double
0.0125   0.0125   0.025
0.0375   0.0125   0.025
0.0625   0.0125   0.025
0.0875   0.0125   0.025
0.1125   0.0125   0.025
0.1375   0.0125   0.025
0.1625   0.0125   0.025
0.1875   0.0125   0.025
0.2125   0.0125   0.025
0.2375   0.0125   0.025
0.2625   0.0125   0.025
0.2875   0.0125   0.025
0.3125   0.0125   0.025
0.3375   0.0125   0.025
0.3625   0.0125   0.025
0.3875   0.0125   0.025
0.4125   0.0125   0.025
0.4375   0.0125   0.025
0.4625   0.0125   0.025
0.4875   0.0125   0.025
0.5125   0.0125   0.025
0.5375   0.0125   0.025
0.5625   0.0125   0.025
0.5875   0.0125   0.025
0.6125   0.0125   0.025
0.6375   0.0125   0.025
0.6625   0.0125   0.025
0.6875   0.0125   0.025
0.7125   0.0125   0.025
0.7375   0.0125   0.025
0.7625   0.0125   0.025
0.7875   0.0125   0.025
0.8125   0.0125   0.025
0.8375   0.0125   0.025
0.8625   0.0125   0.025
0.8875   0.0125   0.025
0.9125   0.0125   0.025
0.9375   0.0125   0.025
0.9625   0.0125   0.025
0.9875   0.0125   0.025
0.0125   0.0375   0.025
0.0375   0.0375   0.025
0.0625   0.0375   0.025
0.0875   0.0375   0.025
0.1125   0.0375   0.025
0.1375   0.0375   0.025
0.1625   0.0375   0.025
0.1875   0.0375   0.025
0.2125   0.0375   0.025
0.2375   0.0375   0.025
0.2625   0.0375   0.025
0.2875   0.0375   0.025
0.3125   0.0375   0.025
0.3375   0.0375   0.025
0.3625   0.0375   0.025
0.3875   0.0375   0.025
0.4125   0.0375   0.025
0.4375   0.0375   0.025
0.4625   0.0375   0.025
0.4875   0.0375   0.025
0.5125   0.0375   0.025
0.5375   0.0375   0.025
0.5625   0.0375   0.025
0.5875   0.0375   0.025
0.6125   0.0375   0.025
0.6375   0.0375   0.025
0.6625   0.0375   0.025
0.6875   0.0375   0.025
0.7125   0.0375   0.025
0.7375   0.0375   0.025
0.7625   0.0375   0.025
0.7875   0.0375   0.025
0.8125   0.0375   0.025
0.8375   0.0375   0.025
0.8625   0.0375   0.025
0.8875   0.0375   0.025
0.9125   0.0375   0.025
0.9375   0.0375   0.025
0.9625   0.0375   0.025
0.9875   0.0375   0.025
0.0125   0.0625   0.025
0.0375   0.0625   0.025
0.0625   0.0625   0.025
0.0875   0.0625   0.025
0.1125   0.0625   0.025
0.1375   0.0625   0.025
0.1625   0.0625   0.025
0.1875   0.0625   0.025
0.2125   0.0625   0.025
0.2375   0.0625   0.025
0.2625   0.0625   0.025
0.2875   0.0625   0.025
0.3125   0.0625   0.025
0.3375   0.0625   0.025
0.3625   0.0625   0.025
0.3875   0.0625   0.025
0.4125   0.0625   0.025
0.4375   0.0625   0.025
0.4625   0.0625   0.025
0.4875   0.0625   0.025
0.5125   0.0625   0.025
0.5375   0.0625   0.025
0.5625   0.0625   0.025
0.5875   0.0625   0.025
0.6125   0.0625   0.025
0.6375   0.0625   0.025
0.6625   0.0625   0.025
0.6875   0.0625   0.025
0.7125   0.0625   0.025
0.7375   0.0625   0.025
0.7625   0.0625   0.025
0.7875   0.0625   0.025
0.8125   0.0625   0.025
0.8375   0.0625   0.025
0.8625   0.0625   0.025
0.8875   0.0625   0.025
0.9125   0.0625   0.025
0.9375   0.0625   0.025
0.9625   0.0625   0.025
0.9875   0.0625   0.025
0.0125   0.0875   0.025
0.0375   0.0875   0.025
0.0625   0.0875   0.025
0.0875   0.0875   0.025
0.1125   0.0875   0.025
0.1375   0.0875   0.025
0.1625   0.0875   0.025
0.1875   0.0875   0.025
0.2125   0.0875   0.025
0.2375   0.0875   0.025
0.2625   0.0875   0.025
0.2875   0.0875   0.025
0.3125   0.0875   0.025
0.3375   0.0875   0.025
0.3625   0.0875   0.025
0.3875   0.0875   0.025
0.4125   0.0875   0.025
0.4375   0.0875   0.025
0.4625   0.0875   0.025
0.4875   0.0875   0.025
0.5125   0.0875   0.025
0.5375   0.0875   0.025
0.5625   0.0875   0.025
0.5875   0.0875   0.025
0.6125   0.0875   0.025
0.6375   0.0875   0.025
0.6625   0.0875   0.025
0.6875   0.0875   0.025
0.7125   0.0875   0.025
0.7375   0.0875   0.025
0.7625   0.0875   0.025
0.7875   0.0875   0.025
0.8125   0.0875   0.025
0.8375   0.0875   0.025
0.8625   0.0875   0.025
0.8875   0.0875   0.025
0.9125   0.0875   0.025
0.9375   0.0875   0.025
0.9625   0.0875   0.025
0.9875   0.0875   0.025
0.0125   0.1125   0.025
0.0375   0.1125   0.025
0.0625   0.1125   0.025
0.0875   0.1125   0.025
0.1125   0.1125   0.025
0.1375   0.1125   0.025
0.1625   0.1125   0.025
0.1875   0.1125   0.025
0.2125   0.1125   0.025
0.2375   0.1125   0.025
0.2625   0.1125   0.025
0.2875   0.1125   0.025
0.3125   0.1125   0.025
0.3375   0.1125   0.025
0.3625   0.1125   0.025
0.3875   0.1125   0.025
0.4125   0.1125   0.025
0.4375   0.1125   0.025
0.4625   0.1125   0.025
0.4875   0.1125   0.025
0.5125   0.1125   0.025
0.5375   0.1125   0.025
0.5625   0.1125   0.025
0.5875   0.1125   0.025
0.6125   0.1125   0.025
0.6375   0.1125   0.025
0.6625   0.1125   0.025
0.6875   0.1125   0.025
0.7125   0.1125   0.025
0.7375   0.1125   0.025
0.7625   0.1125   0.025
0.7875   0.1125   0.025
0.8125   0.1125   0.025
0.8375   0.1125   0.025
0.8625   0.1125   0.025
0.8875   0.1125   0.025
0.9125   0.1125   0.025
0.9375   0.1125   0.025
0.9625   0.1125   0.025
0.9875   0.1125   0.025
0.0125   0.1375   0.025
0.0375   0.1375   0.025
0.0625   0.1375   0.025
0.0875   0.1375   0.025
0.1125   0.1375   0.025
0.1375   0.1375   0.025
0.1625   0.1375   0.025
0.1875   0.1375   0.025
0.2125   0.1375   0.025
0.2375   0.1375   0.025
0.2625   0.1375   0.025
0.2875   0.1375   0.025
0.3125   0.1375   0.025
0.3375   0.1375   0.025
0.3625   0.1375   0.025
0.3875   0.1375   0.025
0.4125   0.1375   0.025
0.4375   0.1375   0.025
0.4625   0.1375   0.025
0.4875   0.1375   0.025
0.5125   0.1375   0.025
0.5375   0.1375   0.025
0.5625   0.1375   0.025
0.5875   0.1375   0.025
0.6125   0.1375   0.025
0.6375   0.1375   0.025
0.6625   0.1375   0.025
0.6875   0.1375   0.025
0.7125   0.1375   0.025
0.7375   0.1375   0.025
0.7625   0.1375   0.025
0.7875   0.1375   0.025
0.8125   0.1375   0.025
0.8375   0.1375   0.025
0.8625   0.1375   0.025
0.8875   0.1375   0.025
0.9125   0.1375   0.025
0.9375   0.1375   0.025
0.9625   0.1375   0.025
0.9875   0.1375   0.025
0.0125   0.1625   0.025
0.0375   0.1625   0.025
0.0625   0.1625   0.025
0.0875   0.1625   0.025
0.1125   0.1625   0.025
0.1375   0.1625   0.025
0.1625   0.1625   0.025
0.1875   0.1625   0.025
0.2125   0.1625   0.025
0.2375   0.1625   0.025
0.2625   0.1625   0.025
0.2875   0.1625   0.025
0.3125   0.1625   0.025
0.3375   0.1625   0.025
0.3625   0.1625   0.025
0.3875   0.1625   0.025
0.4125   0.1625   0.025
0.4375   0.1625   0.025
0.4625   0.1625   0.025
0.4875   0.1625   0.025
0.5125   0.1625   0.025
0.5375   0.1625   0.025
0.5625   0.1625   0.025
0.5875   0.1625   0.025
0.6125   0.1625   0.025
0.6375   0.1625   0.025
0.6625   0.1625   0.025
0.6875   0.1625   0.025
0.7125   0.1625   0.025
0.7375   0.1625   0.025
0.7625   0.1625   0.025
0.7875   0.1625   0.025
0.8125   0.1625   0.025
0.8375   0.1625   0.025
0.8625   0.1625   0.025
0.8875   0.1625   0.025
0.9125   0.1625   0.025
0.9375   0.1625   0.025
0.9625   0.1625   0.025
0.9875   0.1625   0.025
0.0125   0.1875   0.025
0.0375   0.1875   0.025
0.0625   0.1875   0.025
0.0875   0.1875   0.025
0.1125   0.1875   0.025
0.1375   0.1875   0.025
0.1625   0.1875   0.025
0.1875   0.1875   0.025
0.2125   0.1875   0.025
0.2375   0.1875   0.025
0.2625   0.1875   0.025
0.2875   0.1875   0.025
0.3125   0.1875   0.025
0.3375   0.1875   0.025
0.3625   0.1875   0.025
0.3875   0.1875   0.025
0.4125   0.1875   0.025
0.4375   0.1875   0.025
0.4625   0.1875   0.025
0.4875   0.1875   0.025
0.5125   0.1875   0.025
0.5375   0.1875   0.025
0.5625   0.1875   0.025
0.5875   0.1875   0.025
0.6125   0.1875   0.025
0.6375   0.1875   0.025
0.6625   0.1875   0.025
0.6875   0.1875   0.025
0.7125   0.1875   0.025
0.7375   0.1875   0.025
0.7625   0.1875   0.025
0.7875   0.1875   0.025
0.8125   0.1875   0.025
0.8375   0.1875   0.025
0.8625   0.1875   0.025
0.8875   0.1875   0.025
0.9125   0.1875   0.025
0.9375   0.1875   0.025
0.9625   0.1875   0.025
0.9875   0.1875   0.025
0.0125   0.2125   0.025
0.0375   0.2125   0.025
0.0625   0.2125   0.025
0.0875   0.2125   0.025
0.1125   0.2125   0.025
0.1375   0.2125   0.025
0.1625   0.2125   0.025
0.1875   0.2125   0.025
0.2125   0.2125   0.025
0.2375   0.2125   0.025
0.2625   0.2125   0.025
0.2875   0.2125   0.025
0.3125   0.2125   0.025
0.3375   0.2125   0.025
0.3625   0.2125   0.025
0.3875   0.2125   0.025
0.4125   0.2125   0.025
0.4375   0.2125   0.025
0.4625   0.2125   0.025
0.4875   0.2125   0.025
0.5125   0.2125   0.025
0.5375   0.2125   0.025
0.5625   0.2125   0.025
0.5875   0.2125   0.025
0.6125   0.2125   0.025
0.6375   0.2125   0.025
0.6625   0.2125   0.025
0.6875   0.2125   0.025
0.7125   0.2125   0.025
0.7375   0.2125   0.025
0.7625   0.2125   0.025
0.7875   0.2125   0.025
0.8125   0.2125   0.025
0.8375   0.2125   0.025
0.8625   0.2125   0.025
0.8875   0.2125   0.025
0.9125   0.2125   0.025
0.9375   0.2125   0.025
0.9625   0.2125   0.025
0.9875   0.2125   0.025
0.0125   0.2375   0.025
0.0375   0.2375   0.025
0.0625   0.2375   0.025
0.0875   0.2375   0.025
0.1125   0.2375   0.025
0.1375   0.2375   0.025
0.1625   0.2375   0.025
0.1875   0.2375   0.025
0.2125   0.2375   0.025
0.2375   0.2375   0.025
0.2625   0.2375   0.025
0.2875   0.2375   0.025
0.3125   0.2375   0.025
0.3375   0.2375   0.025
0.3625   0.2375   0.025
0.3875   0.2375   0.025
0.4125   0.2375   0.025
0.4375   0.2375   0.025
0.4625   0.2375   0.025
0.4875   0.2375   0.025
0.5125   0.2375   0.025
0.5375   0.2375   0.025
0.5625   0.2375   0.025
0.5875   0.2375   0.025
0.6125   0.2375   0.025
0.6375   0.2375   0.025
0.6625   0.2375   0.025
0.6875   0.2375   0.025
0.7125   0.2375   0.025
0.7375   0.2375   0.025
0.7625   0.2375   0.025
0.7875   0.2375   0.025
0.8125   0.2375   0.025
0.8375   0.2375   0.025
0.8625   0.2375   0.025
0.8875   0.2375   0.025
0.9125   0.2375   0.025
0.9375   0.2375   0.025
0.9625   0.2375   0.025
0.9875   0.2375   0.025
0.0125   0.2625   0.025
0.0375   0.2625   0.025
0.0625   0.2625   0.025
0.0875   0.2625   0.025
0.1125   0.2625   0.025
0.1375   0.2625   0.025
0.1625   0.2625   0.025
0.1875   0.2625   0.025
0.2125   0.2625   0.025
0.2375   0.2625   0.025
0.2625   0.2625   0.025
[...]
POINT_DATA   32000
SCALARS Presion double
LOOKUP_TABLE   Presion

0 0 0 0 0 0 0 0 0 0 0 0 0 0 0 0 0 0 0 0 0 0 0 0 0 0 0 0 0 0 0 0 0 0 0 0 0 0 0 0 -0.00201002 -0.00238781 -0.00302926 -0.00376327 -0.00451094 -0.00522117 -0.00585647 -0.00638904 -0.00679879 -0.00707186 -0.00719934 -0.00717629 -0.0070011 -0.00667513 -0.0062026 -0.00559068 -0.0048496 -0.00399284 -0.00303713 -0.00200238 -0.000911409 0.000210518 0.0013363 0.00243782 0.00348682 0.00445587 0.00531939 0.00605462 0.00664251 0.00706865 0.00732394 0.00740528 0.00731598 0.00706588 0.00667111 0.00615332 0.00553881 0.00485994 0.0041725 0.003662 -0.00217781 -0.00239777 -0.00290073 -0.00354179 -0.00422964 -0.00490351 -0.00552084 -0.00605121 -0.00647294 -0.00677091 -0.00693503 -0.00695915 -0.00684041 -0.00657881 -0.00617712 -0.00564085 -0.00497837 -0.00420105 -0.00332331 -0.00236252 -0.00133889 -0.0002751 0.000804223 0.0018731 0.00290496 0.00387353 0.00475369 0.00552244 0.00615989 0.00665013 0.00698215 0.00715068 0.00715684 0.00700876 0.00672211 0.0063209 0.00583955 0.00532938 0.00487884 0.00467064 -0.00185779 -0.00214427 -0.00264228 -0.00326159 -0.00392921 -0.00459051 -0.00520546 -0.00574491 -0.00618783 -0.00651918 -0.00672847 -0.00680872 -0.00675585 -0.00656826 -0.00624679 -0.00579475 -0.00521802 -0.00452527 -0.00372802 -0.00284077 -0.00188087 -0.000868413 0.000174187 0.00122262 0.00225133 0.0032343 0.00414592 0.00496199 0.00566075 0.00622398 0.00663811 0.00689518 0.00699387 0.00694031 0.00674901 0.00644403 0.00606126 0.00565339 0.00530091 0.00513102 -0.00126694 -0.00169979 -0.00227143 -0.00292659 -0.00361337 -0.00428911 -0.00492085 -0.00548379 -0.0059595 -0.0063343 -0.00659805 -0.00674335 -0.00676494 -0.00665956 -0.00642585 -0.00606453 -0.00557859 -0.00497358 -0.00425784 -0.00344272 -0.00254265 -0.00157515 -0.000560648 0.000477846 0.00151529 0.00252531 0.00348108 0.00435644 0.00512699 0.00577147 0.00627295 0.00662018 0.0068087 0.00684188 0.0067319 0.00650076 0.00618187 0.00582265 0.00548898 0.00526884 -0.000546262 -0.00114844 -0.00183246 -0.00256099 -0.00329797 -0.00401261 -0.00468036 -0.00528219 -0.00580344 -0.00623266 -0.00656064 -0.00677985 -0.00688404 -0.00686823 -0.00672876 -0.00646354 -0.00607245 -0.00555771 -0.00492424 -0.00418012 -0.00333677 -0.00240919 -0.00141592 -0.000378851 0.000677169 0.00172502 0.00273619 0.00368195 0.00453463 0.00526914 0.00586449 0.00630525 0.00658299 0.0066974 0.00665733 0.00648155 0.00619963 0.00585308 0.00549644 0.00519641 0.000206779 -0.000565316 -0.00137704 -0.00219974 -0.00300798 -0.00378069 -0.00450119 -0.0051564 -0.00573578 -0.00623045 -0.00663246 -0.00693434 -0.007129 -0.00720975 -0.00717059 -0.00700659 -0.00671438 -0.0062927 -0.00574298 -0.00506987 -0.00428171 -0.0033909 -0.00241404 -0.00137196 -0.000289396 0.000805604 0.00188254 0.00290968 0.0038555 0.00469037 0.00538833 0.00592889 0.00629865 0.0064927 0.00651571 0.00638265 0.00611931 0.00576258 0.00536032 0.00496949 0.000919429 -1.42807e-05 -0.000956172 -0.00188209 -0.00277382 -0.00361786 -0.00440421 -0.00512513 -0.00577402 -0.00634453 -0.00682996 -0.00722304 -0.00751586 -0.00770012 -0.00776748 -0.00771016 -0.00752152 -0.00719675 -0.00673367 -0.00613337 -0.00540095 -0.00454599 -0.00358302 -0.0025316 -0.00141625 -0.000265959 0.000886659 0.00200655 0.00305781 0.00400553 0.00481788 0.00546821 0.00593705 0.00621387 0.00629838 0.00620141 0.00594535 0.00556411 0.0051026 0.00461499 0.0015336 0.000450162 -0.000617346 -0.00164783 -0.00262848 -0.00355174 -0.0044131 -0.00520937 -0.00593733 -0.00659286 -0.00717043 -0.00766286 -0.00806146 -0.00835635 -0.00853695 -0.00859261 -0.00851343 -0.00829101 -0.0079194 -0.00739597 -0.00672229 -0.00590484 -0.00495567 -0.00389276 -0.0027401 -0.00152741 -0.000289424 0.000935306 0.002106 0.00318174 0.00412379 0.00489813 0.00547796 0.0058459 0.0059958 0.00593391 0.0056795 0.00526482 0.0047345 0.00414412 0.0020005 0.00078076 -0.000403959 -0.00153544 -0.00260546 -0.00361142 -0.00455335 -0.00543179 -0.00624633 -0.00699467 -0.00767216 -0.00827163 -0.00878359 -0.00919662 -0.00949792 -0.00967406 -0.00971182 -0.00959917 -0.00932622 -0.00888635 -0.00827721 -0.00750173 -0.00656896 -0.00549475 -0.00430207 -0.00302097 -0.00168811 -0.000345622 0.000960434 0.00218234 0.00327334 0.0041907 0.00489874 0.00537177 0.00559656 0.00557407 0.00532044 0.00486708 0.00426015 0.00355922 0.00227774 0.000935918 -0.000355374 -0.00158113 -0.00273748 -0.00382621 -0.00485121 -0.00581608 -0.00672267 -0.00757009 -0.0083543 -0.00906802 -0.00970093 -0.0102401 -0.0106705 -0.010976 -0.01114 -0.0111468 -0.0109824 -0.0106356 -0.0100999 -0.00937399 -0.0084632 -0.00738051 -0.00614717 -0.00479298 -0.0033561 -0.00188221 -0.000422939 0.000966425 0.00222993 0.0033145 0.00417379 0.00477196 0.00508708 0.00511369 0.00486434 0.00436997 0.00367935 0.00285771 0.00232781 0.000878698 -0.000507149 -0.00181843 -0.00305564 -0.00422465 -0.00533273 -0.00638608 -0.00738832 -0.00833964 -0.0092364 -0.0100711 -0.0108325 -0.0115062 -0.0120751 -0.0125203 -0.012822 -0.0129603 -0.012917 -0.0126761 -0.012226 -0.0115606 -0.0106807 -0.0095954 -0.0083233 -0.0068931 -0.00534389 -0.00372455 -0.00209249 -0.000511248 0.000952745 0.00223431 0.00327425 0.00402429 0.00445167 0.00454285 0.00430578 0.00377077 0.00298977 0.00203478 0.00211735 0.000576281 -0.000891174 -0.00227789 -0.00358881 -0.00483371 -0.00602293 -0.00716491 -0.00826473 -0.00932341 -0.0103376 -0.0112993 -0.0121967 -0.0130139 -0.0137316 -0.0143284 -0.0147808 -0.0150652 -0.0151584 -0.0150392 -0.0146905 -0.0141003 -0.0132639 -0.0121854 -0.0108795 -0.0093729 -0.00770452 -0.00592596 -0.00410031 -0.00229995 -0.000603047 0.000911129 0.00216803 0.0031041 0.00367296 0.0038506 0.0036388 0.00306649 0.00218891 0.00108552 0.00161692 -2.33539e-07 -0.00153569 -0.00298684 -0.00436313 -0.0056781 -0.00694494 -0.00817407 -0.00937187 -0.01054 -0.0116753 -0.0127697 -0.0138103 -0.0147799 -0.0156575 -0.0164187 -0.0170369 -0.0174839 -0.0177317 -0.0177533 -0.0175252 -0.0170287 -0.0162523 -0.0151941 -0.0138634 -0.0122832 -0.0104914 -0.00854105 -0.0065007 -0.00445182 -0.00248553 -0.000697225 0.00082027 0.00198469 0.00273245 0.00302585 0.00285809 0.00225538 0.00127592 6.9059e-06 0.000801126 -0.000875766 -0.00246515 -0.00396914 -0.00540159 -0.00677966 -0.0081192 -0.0094325 -0.0107271 -0.0120054 -0.0132644 -0.0144959 -0.0156862 -0.0168172 -0.0178658 -0.0188052 -0.0196051 -0.0202332 -0.0206559 -0.0208401 -0.0207551 -0.0203746 -0.0196792 -0.0186592 -0.0173171 -0.0156706 -0.0137546 -0.0116226 -0.00934745 -0.00701971 -0.00474432 -0.00263489 -0.0008057 0.000638179 0.00161147 0.00205849 0.00196045 0.00133869 0.000253518 -0.00120014 -0.000351112 -0.00207106 -0.00370006 -0.00524489 -0.00672361 -0.00815676 -0.00956274 -0.0109556 -0.0123442 -0.0137315 -0.0151152 -0.0164867 -0.0178324 -0.0191327 -0.0203631 -0.0214943 -0.0224925 -0.023321 -0.0239404 -0.0243111 -0.0243945 -0.0241557 -0.0235663 -0.0226072 -0.0212724 -0.0195721 -0.0175362 -0.0152169 -0.0126897 -0.0100536 -0.00742768 -0.00494567 -0.0027466 -0.000963044 0.000292491 0.000940813 0.0009464 0.000322537 -0.000869856 -0.00252847 -0.00185612 -0.00360239 -0.00525671 -0.00683015 -0.00834462 -0.00982374 -0.0112883 -0.0127543 -0.0142318 -0.0157249 -0.0172319 -0.0187446 -0.020249 -0.0217251 -0.0231467 -0.0244823 -0.0256948 -0.0267427 -0.0275811 -0.0281632 -0.0284421 -0.0283735 -0.0279186 -0.0270477 -0.0257441 -0.0240087 -0.0218638 -0.0193575 -0.0165662 -0.0135953 -0.0105781 -0.00766942 -0.00503635 -0.00284408 -0.0012389 -0.000330602 -0.000177789 -0.000779808 -0.00207755 -0.00396214 -0.00372505 -0.00548132 -0.00714699 -0.00873676 -0.0102758 -0.0117904 -0.0133039 -0.014834 -0.0163926 -0.0179853 -0.0196112 -0.0212631 -0.022927 -0.0245826 -0.0262024 -0.0277529 -0.0291936 -0.0304786 -0.0315572 -0.0323752 -0.032877 -0.0330083 -0.032719 -0.0319672 -0.030724 -0.0289784 -0.0267427 -0.0240577 -0.0209974 -0.0176717 -0.014226 -0.0108369 -0.0077019 -0.00502418 -0.0029913 -0.0017524 -0.00139756 -0.00194521 -0.00334176 -0.00547323 -0.00596353 -0.00771451 -0.00937831 -0.0109722 -0.0125238 -0.0140618 -0.0156118 -0.017194 -0.0188223 -0.0205044 -0.022241 -0.024026 -0.0258462 -0.0276811 -0.0295024 -0.0312745 -0.0329541 -0.0344907 -0.0358279 -0.0369041 -0.0376548 -0.0380151 -0.0379229 -0.0373235 -0.0361738 -0.0344488 -0.0321479 -0.0293015 -0.0259774 -0.0222859 -0.018382 -0.0144626 -0.0107573 -0.00751206 -0.0049637 -0.00331119 -0.00268693 -0.00313742 -0.00462007 -0.00701824 -0.00857149 -0.0103037 -0.0119537 -0.0135398 -0.0150908 -0.0166377 -0.0182085 -0.0198264 -0.0215084 -0.0232647 -0.0250985 -0.0270056 -0.0289737 -0.0309827 -0.0330038 -0.0349995 -0.0369236 -0.0387216 -0.0403311 -0.0416833 -0.042705 -0.0433204 -0.0434554 -0.0430412 -0.0420199 -0.0403505 -0.038017 -0.0350356 -0.0314638 -0.0274077 -0.023027 -0.0185361 -0.0141963 -0.0102996 -0.00714038 -0.00497927 -0.00400459 -0.00430307 -0.00585125 -0.00853368 -0.0115432 -0.0132461 -0.0148723 -0.0164388 -0.0179749 -0.0195129 -0.0210844 -0.0227163 -0.0244297 -0.0262389 -0.0281502 -0.0301619 -0.0322634 -0.0344353 -0.0366482 -0.0388632 -0.0410313 -0.0430938 -0.0449829 -0.0466227 -0.0479312 -0.0488223 -0.0492095 -0.0490103 -0.0481508 -0.0465734 -0.0442442 -0.0411621 -0.0373698 -0.0329636 -0.0281023 -0.0230119 -0.0179827 -0.0133539 -0.00948436 -0.00670919 -0.00528903 -0.00536694 -0.00695036 -0.00993099 -0.0148675 -0.0165348 -0.0181299 -0.0196657 -0.0211701 -0.0226775 -0.0242236 -0.0258408 -0.0275562 -0.0293893 -0.0313509 -0.0334427 -0.0356561 -0.0379726 -0.0403626 -0.0427855 -0.0451897 -0.0475124 -0.0496803 -0.0516108 -0.0532135 -0.0543923 -0.055049 -0.0550873 -0.0544181 -0.052966 -0.0506783 -0.0475343 -0.0435577 -0.0388292 -0.0334995 -0.0277988 -0.0220399 -0.0166075 -0.0119292 -0.00842695 -0.00645261 -0.00622628 -0.00780288 -0.0110905 -0.0185291 -0.0201602 -0.0217204 -0.0232146 -0.0246679 -0.0261172 -0.0276041 -0.0291695 -0.0308485 -0.032668 -0.0346445 -0.0367839 -0.0390803 -0.041516 -0.044061 -0.0466732 -0.0492978 -0.0518679 -0.054305 -0.0565197 -0.0584137 -0.0598816 -0.060814 -0.0611018 -0.0606411 -0.0593398 -0.0571258 -0.0539576 -0.0498369 -0.0448237 -0.0390529 -0.0327499 -0.0262404 -0.0199479 -0.0143694 -0.0100238 -0.00737439 -0.00674401 -0.00825791 -0.0118544 -0.0225094 -0.0241117 -0.0256377 -0.0270794 -0.0284577 -0.0298138 -0.0311986 -0.0326647 -0.0342587 -0.0360172 -0.0379646 -0.0401113 -0.0424544 -0.044977 -0.0476483 -0.050424 -0.0532458 -0.0560426 -0.0587301 -0.0612125 -0.0633837 -0.0651295 -0.0663305 -0.0668656 -0.0666176 -0.0654787 -0.0633587 -0.0601954 -0.0559673 -0.0507101 -0.0445361 -0.0376556 -0.0303953 -0.0232064 -0.0166496 -0.0113466 -0.00789174 -0.00674083 -0.00812016 -0.0120188 -0.0267887 -0.0283803 -0.029878 -0.0312555 -0.0325289 -0.0337465 -0.034974 -0.036281 -0.0377301 -0.0393705 -0.0412359 -0.0433424 -0.0456897 -0.0482612 -0.0510245 -0.0539322 -0.0569219 -0.0599173 -0.0628282 -0.065552 -0.067975 -0.0699746 -0.071422 -0.0721858 -0.0721365 -0.0711528 -0.0691284 -0.0659821 -0.0616701 -0.0562023 -0.0496641 -0.0422414 -0.0342484 -0.0261482 -0.0185535 -0.012187 -0.00779042 -0.00598584 -0.00714046 -0.0113239 -0.0313499 -0.0329623 -0.034444 -0.0357431 -0.0368719 -0.0378923 -0.0388926 -0.0399666 -0.0411984 -0.0426536 -0.0443766 -0.0463896 -0.0486942 -0.0512729 -0.0540904 -0.0570949 -0.0602188 -0.0633794 -0.0664799 -0.0694104 -0.0720495 -0.0742663 -0.0759231 -0.0768789 -0.076994 -0.0761351 -0.0741828 -0.0710399 -0.066643 -0.0609784 -0.0541025 -0.0461711 -0.0374731 -0.0284654 -0.0197931 -0.01227 -0.00679336 -0.00418561 -0.00500447 -0.00944291 -0.0361827 -0.0378656 -0.0393496 -0.0405503 -0.0414806 -0.0422267 -0.0429113 -0.0436625 -0.0445924 -0.0457866 -0.0473013 -0.0491641 -0.0513773 -0.0539206 -0.056754 -0.0598192 -0.0630417 -0.0663312 -0.0695831 -0.0726794 -0.0754903 -0.0778766 -0.0796916 -0.0807854 -0.0810089 -0.0802192 -0.0782859 -0.0750997 -0.0705823 -0.0647003 -0.0574847 -0.0490589 -0.0396776 -0.0297737 -0.0200006 -0.0112417 -0.00454783 -0.000971003 -0.00131879 -0.00596772 -0.0412919 -0.0431178 -0.0446273 -0.0456978 -0.046354 -0.046724 -0.0469823 -0.0473036 -0.0478355 -0.0486864 -0.0499243 -0.0515807 -0.0536557 -0.0561238 -0.058937 -0.0620288 -0.0653152 -0.068697 -0.07206 -0.0752773 -0.0782098 -0.0807089 -0.0826191 -0.0837811 -0.084037 -0.0832348 -0.0812359 -0.0779222 -0.0732053 -0.0670389 -0.0594349 -0.0504885 -0.0404176 -0.0296171 -0.0187233 -0.0086589 -0.000611073 0.00411882 0.004407 -0.00039035 -0.04671 -0.0487806 -0.050339 -0.0512252 -0.0514985 -0.0513576 -0.0510523 -0.0508189 -0.0508474 -0.0512701 -0.0521649 -0.0535632 -0.0554595 -0.0578185 -0.0605815 -0.0636704 -0.0669898 -0.0704292 -0.0738637 -0.0771556 -0.0801556 -0.082705 -0.0846378 -0.0857853 -0.0859797 -0.0850605 -0.0828811 -0.0793169 -0.0742741 -0.0677001 -0.0595967 -0.0500407 -0.0392181 -0.0274805 -0.0154253 -0.00397947 0.0055659 0.0116569 0.0127846 0.00792314 -0.0525185 -0.0549712 -0.0565915 -0.0571984 -0.0569299 -0.0560995 -0.0550627 -0.0541332 -0.0535476 -0.05346 -0.0539527 -0.0550513 -0.0567383 -0.0589643 -0.0616556 -0.0647193 -0.0680462 -0.0715123 -0.0749805 -0.0783011 -0.0813131 -0.0838462 -0.0857232 -0.086764 -0.0867899 -0.0856302 -0.0831298 -0.0791575 -0.0736161 -0.0664518 -0.0576656 -0.0473282 -0.0356065 -0.0228143 -0.00949872 0.00344187 0.0146563 0.0223556 0.024582 0.0197722 -0.058887 -0.0618985 -0.0635602 -0.0637206 -0.0626764 -0.0609204 -0.0589504 -0.0571701 -0.0558607 -0.0551902 -0.0552357 -0.0560074 -0.0574687 -0.0595499 -0.062158 -0.0651823 -0.0684971 -0.0719636 -0.0754305 -0.0787351 -0.0817034 -0.0841524 -0.085892 -0.086729 -0.0864715 -0.0849364 -0.081957 -0.0773932 -0.0711426 -0.0631512 -0.0534246 -0.0420389 -0.0291586 -0.0150755 -0.000290262 0.0143488 0.0274757 0.0371043 0.0407772 0.0361867 -0.0661422 -0.069924 -0.0715239 -0.0709452 -0.0687805 -0.0657904 -0.0626505 -0.0598569 -0.0577233 -0.0564145 -0.0559868 -0.0564229 -0.0576579 -0.0595955 -0.0621192 -0.0650973 -0.068386 -0.07183 -0.0752633 -0.0785087 -0.0813788 -0.0836764 -0.0851974 -0.0857334 -0.0850773 -0.0830296 -0.0794079 -0.0740577 -0.0668654 -0.0577717 -0.0467845 -0.0339894 -0.0195619 -0.00379246 0.0128467 0.0295589 0.0449965 0.0570211 0.0626433 0.0585388 -0.074898 -0.0796626 -0.0809159 -0.0790908 -0.0753001 -0.070678 -0.0660985 -0.062131 -0.0590911 -0.0571125 -0.0562091 -0.056321 -0.0573448 -0.0591518 -0.0615979 -0.0645285 -0.0677804 -0.0711813 -0.07455 -0.0776948 -0.080414 -0.0824964 -0.0837222 -0.0838668 -0.082705 -0.0800177 -0.0756013 -0.0692792 -0.0609161 -0.0504346 -0.0378316 -0.0231925 -0.0067028 0.0113355 0.0304566 0.0498993 0.0683415 0.0835211 0.091888 0.0887471 -0.0863062 -0.0921531 -0.0923887 -0.0884486 -0.0822998 -0.0755437 -0.0692284 -0.0639388 -0.0599379 -0.0572871 -0.0559305 -0.0557488 -0.0565902 -0.0582881 -0.0606685 -0.063553 -0.0667587 -0.070097 -0.0733715 -0.0763768 -0.0788976 -0.080708 -0.0815732 -0.0812514 -0.0794978 -0.0760704 -0.0707389 -0.0632957 -0.0535704 -0.0414477 -0.0268873 -0.00994425 0.00921317 0.0302874 0.0528169 0.0760631 0.0987194 0.118387 0.13088 0.129655 -0.102562 -0.109133 -0.106876 -0.0993561 -0.0898092 -0.0803038 -0.071943 -0.06521 -0.0602305 -0.0569391 -0.0551784 -0.0547516 -0.0554507 -0.0570674 -0.0593972 -0.0622385 -0.0653902 -0.0686484 -0.0718034 -0.0746374 -0.0769224 -0.0784199 -0.0788805 -0.0780458 -0.075651 -0.0714298 -0.065121 -0.0564777 -0.04528 -0.0313507 -0.0145755 0.00507256 0.0275078 0.0525057 0.0796678 0.108323 0.137214 0.16378 0.182992 0.185736 -0.12798 -0.133443 -0.125566 -0.112055 -0.0976803 -0.0847073 -0.0740095 -0.065769 -0.0598523 -0.0560002 -0.0539186 -0.0533187 -0.0539301 -0.0555031 -0.0578042 -0.0606113 -0.063708 -0.0668777 -0.0699003 -0.0725478 -0.0745825 -0.075755 -0.0758038 -0.0744561 -0.0714287 -0.0664314 -0.0591709 -0.0493562 -0.0367063 -0.0209597 -0.00188845 0.020684 0.0468569 0.0766193 0.109807 0.146011 0.184255 0.221995 0.253049 0.264388 -0.171449 -0.169436 -0.149521 -0.126211 -0.105161 -0.0879955 -0.0748006 -0.0651389 -0.0584528 -0.0542126 -0.0519586 -0.0513016 -0.0519115 -0.0535018 -0.0558164 -0.0586183 -0.0616804 -0.0647782 -0.0676847 -0.0701655 -0.0719763 -0.0728608 -0.0725488 -0.0707567 -0.0671869 -0.0615288 -0.0534596 -0.0426453 -0.0287402 -0.0113868 0.00978647 0.0351666 0.065155 0.100157 0.14056 0.186671 0.23848 0.294445 0.347582 0.378286 -0.252266 -0.222589 -0.178107 -0.139427 -0.109792 -0.0881812 -0.0728472 -0.0622592 -0.0552565 -0.0509911 -0.048839 -0.0483283 -0.0490871 -0.0508083 -0.0532258 -0.0560971 -0.0591922 -0.0622847 -0.0651459 -0.0675399 -0.0692201 -0.0699275 -0.0693882 -0.0673127 -0.0633945 -0.0573095 -0.0487131 -0.0372364 -0.0224786 -0.00399367 0.0187327 0.0463186 0.07954 0.119406 0.167259 0.22489 0.294643 0.37876 0.47356 0.550052 -0.413213 -0.294638 -0.202854 -0.143116 -0.105344 -0.0811775 -0.0654935 -0.0553381 -0.0489819 -0.0453624 -0.043785 -0.0437624 -0.0449278 -0.0469845 -0.049677 -0.0527721 -0.0560475 -0.0592829 -0.0622542 -0.0647292 -0.0664647 -0.0672036 -0.0666734 -0.0645847 -0.0606291 -0.0544774 -0.0457751 -0.0341351 -0.0191245 -0.000241781 0.0231235 0.0517599 0.0867556 0.129711 0.18312 0.251034 0.340237 0.462023 0.630252 0.823279 -0.752816 -0.345318 -0.186294 -0.116544 -0.0812948 -0.0614275 -0.0495004 -0.0422534 -0.038087 -0.0361215 -0.0358137 -0.0367877 -0.0387546 -0.0414728 -0.0447253 -0.0483068 -0.0520155 -0.0556466 -0.0589883 -0.0618184 -0.063902 -0.0649893 -0.0648141 -0.0630927 -0.0595218 -0.0537767 -0.0455065 -0.034327 -0.0198069 -0.00144389 0.0213779 0.0494644 0.0839546 0.126603 0.180389 0.250957 0.35027 0.505472 0.774777 1.27439 0 0 0 0 0 0 0 0 0 0 0 0 0 0 0 0 0 0 0 0 0 0 0 0 0 0 0 0 0 0 0 0 0 0 0 0 0 0 0 0 -0.00204566 -0.00240873 -0.00293561 -0.00348687 -0.00401162 -0.00448095 -0.00487425 -0.00517619 -0.00537575 -0.00546557 -0.00544137 -0.00530152 -0.0050468 -0.00468033 -0.00420755 -0.00363639 -0.00297736 -0.00224362 -0.00145092 -0.000617426 0.000236639 0.00108953 0.00191866 0.00270138 0.00341587 0.00404205 0.00456245 0.00496304 0.00523395 0.00537005 0.00537136 0.00524327 0.00499649 0.00464685 0.00421464 0.0037238 0.00320128 0.00267843 0.00220362 0.00190801 -0.00234792 -0.00254211 -0.00291634 -0.00335289 -0.00378838 -0.00418591 -0.00452181 -0.00477998 -0.00494937 -0.00502259 -0.00499516 -0.00486502 -0.00463233 -0.00429939 -0.00387071 -0.00335309 -0.00275576 -0.00209044 -0.0013713 -0.000614747 0.000160821 0.000935551 0.00168873 0.00239951 0.0030478 0.00361506 0.00408523 0.00444552 0.00468718 0.00480602 0.00480283 0.00468363 0.00445958 0.00414685 0.00376636 0.00334383 0.00291078 0.00250883 0.00220168 0.00210257 -0.00227214 -0.00249564 -0.00283337 -0.00321775 -0.00360086 -0.00395096 -0.00424701 -0.00447482 -0.00462469 -0.00469007 -0.00466676 -0.00455251 -0.00434682 -0.00405101 -0.00366828 -0.00320391 -0.00266543 -0.00206274 -0.0014081 -0.000716106 -3.39331e-06 0.000711725 0.00140982 0.00207105 0.00267595 0.00320639 0.00364645 0.00398337 0.00420837 0.00431733 0.00431123 0.00419638 0.00398443 0.00369213 0.0033411 0.0029578 0.00257431 0.00223053 0.00197841 0.00188508 -0.00201552 -0.00233636 -0.00270361 -0.00308402 -0.00344854 -0.00377563 -0.00405033 -0.00426235 -0.0044046 -0.00447204 -0.00446119 -0.00436973 -0.00419653 -0.00394174 -0.00360704 -0.00319589 -0.00271379 -0.00216856 -0.00157041 -0.000932046 -0.000268483 0.000403212 0.00106441 0.00169556 0.00227707 0.00279021 0.00321821 0.00354733 0.00376783 0.0038748 0.00386876 0.00375594 0.00354817 0.0032626 0.00292115 0.00255 0.00217931 0.00184316 0.00157907 0.00142433 -0.00169707 -0.00213539 -0.00256459 -0.00297188 -0.00334357 -0.00366864 -0.00393926 -0.00415 -0.00429697 -0.0043771 -0.00438778 -0.00432674 -0.00419214 -0.00398288 -0.00369889 -0.00334156 -0.0029142 -0.00242231 -0.00187395 -0.00127991 -0.000653656 -1.12532e-05 0.000629094 0.00124764 0.00182395 0.00233798 0.00277125 0.00310812 0.00333699 0.00345136 0.00345057 0.00334013 0.00313167 0.00284239 0.00249419 0.00211259 0.00172543 0.00136151 0.00104843 0.000808665 -0.00139517 -0.00195319 -0.00245815 -0.0029099 -0.0033064 -0.00364586 -0.0039273 -0.00415022 -0.00431405 -0.00441771 -0.00445952 -0.00443718 -0.00434806 -0.00418963 -0.00395992 -0.00365811 -0.00328505 -0.0