# vtk DataFile Version 2.0
Velocidades
ASCII

DATASET STRUCTURED_GRID
DIMENSIONS   40   40   20

POINTS   32000   double
0.0125   0.0125   0.025
0.0125   0.0375   0.025
0.0125   0.0625   0.025
0.0125   0.0875   0.025
0.0125   0.1125   0.025
0.0125   0.1375   0.025
0.0125   0.1625   0.025
0.0125   0.1875   0.025
0.0125   0.2125   0.025
0.0125   0.2375   0.025
0.0125   0.2625   0.025
0.0125   0.2875   0.025
0.0125   0.3125   0.025
0.0125   0.3375   0.025
0.0125   0.3625   0.025
0.0125   0.3875   0.025
0.0125   0.4125   0.025
0.0125   0.4375   0.025
0.0125   0.4625   0.025
0.0125   0.4875   0.025
0.0125   0.5125   0.025
0.0125   0.5375   0.025
0.0125   0.5625   0.025
0.0125   0.5875   0.025
0.0125   0.6125   0.025
0.0125   0.6375   0.025
0.0125   0.6625   0.025
0.0125   0.6875   0.025
0.0125   0.7125   0.025
0.0125   0.7375   0.025
0.0125   0.7625   0.025
0.0125   0.7875   0.025
0.0125   0.8125   0.025
0.0125   0.8375   0.025
0.0125   0.8625   0.025
0.0125   0.8875   0.025
0.0125   0.9125   0.025
0.0125   0.9375   0.025
0.0125   0.9625   0.025
0.0125   0.9875   0.025
0.0375   0.0125   0.025
0.0375   0.0375   0.025
0.0375   0.0625   0.025
0.0375   0.0875   0.025
0.0375   0.1125   0.025
0.0375   0.1375   0.025
0.0375   0.1625   0.025
0.0375   0.1875   0.025
0.0375   0.2125   0.025
0.0375   0.2375   0.025
0.0375   0.2625   0.025
0.0375   0.2875   0.025
0.0375   0.3125   0.025
0.0375   0.3375   0.025
0.0375   0.3625   0.025
0.0375   0.3875   0.025
0.0375   0.4125   0.025
0.0375   0.4375   0.025
0.0375   0.4625   0.025
0.0375   0.4875   0.025
0.0375   0.5125   0.025
0.0375   0.5375   0.025
0.0375   0.5625   0.025
0.0375   0.5875   0.025
0.0375   0.6125   0.025
0.0375   0.6375   0.025
0.0375   0.6625   0.025
0.0375   0.6875   0.025
0.0375   0.7125   0.025
0.0375   0.7375   0.025
0.0375   0.7625   0.025
0.0375   0.7875   0.025
0.0375   0.8125   0.025
0.0375   0.8375   0.025
0.0375   0.8625   0.025
0.0375   0.8875   0.025
0.0375   0.9125   0.025
0.0375   0.9375   0.025
0.0375   0.9625   0.025
0.0375   0.9875   0.025
0.0625   0.0125   0.025
0.0625   0.0375   0.025
0.0625   0.0625   0.025
0.0625   0.0875   0.025
0.0625   0.1125   0.025
0.0625   0.1375   0.025
0.0625   0.1625   0.025
0.0625   0.1875   0.025
0.0625   0.2125   0.025
0.0625   0.2375   0.025
0.0625   0.2625   0.025
0.0625   0.2875   0.025
0.0625   0.3125   0.025
0.0625   0.3375   0.025
0.0625   0.3625   0.025
0.0625   0.3875   0.025
0.0625   0.4125   0.025
0.0625   0.4375   0.025
0.0625   0.4625   0.025
0.0625   0.4875   0.025
0.0625   0.5125   0.025
0.0625   0.5375   0.025
0.0625   0.5625   0.025
0.0625   0.5875   0.025
0.0625   0.6125   0.025
0.0625   0.6375   0.025
0.0625   0.6625   0.025
0.0625   0.6875   0.025
0.0625   0.7125   0.025
0.0625   0.7375   0.025
0.0625   0.7625   0.025
0.0625   0.7875   0.025
0.0625   0.8125   0.025
0.0625   0.8375   0.025
0.0625   0.8625   0.025
0.0625   0.8875   0.025
0.0625   0.9125   0.025
0.0625   0.9375   0.025
0.0625   0.9625   0.025
0.0625   0.9875   0.025
0.0875   0.0125   0.025
0.0875   0.0375   0.025
0.0875   0.0625   0.025
0.0875   0.0875   0.025
0.0875   0.1125   0.025
0.0875   0.1375   0.025
0.0875   0.1625   0.025
0.0875   0.1875   0.025
0.0875   0.2125   0.025
0.0875   0.2375   0.025
0.0875   0.2625   0.025
0.0875   0.2875   0.025
0.0875   0.3125   0.025
0.0875   0.3375   0.025
0.0875   0.3625   0.025
0.0875   0.3875   0.025
0.0875   0.4125   0.025
0.0875   0.4375   0.025
0.0875   0.4625   0.025
0.0875   0.4875   0.025
0.0875   0.5125   0.025
0.0875   0.5375   0.025
0.0875   0.5625   0.025
0.0875   0.5875   0.025
0.0875   0.6125   0.025
0.0875   0.6375   0.025
0.0875   0.6625   0.025
0.0875   0.6875   0.025
0.0875   0.7125   0.025
0.0875   0.7375   0.025
0.0875   0.7625   0.025
0.0875   0.7875   0.025
0.0875   0.8125   0.025
0.0875   0.8375   0.025
0.0875   0.8625   0.025
0.0875   0.8875   0.025
0.0875   0.9125   0.025
0.0875   0.9375   0.025
0.0875   0.9625   0.025
0.0875   0.9875   0.025
0.1125   0.0125   0.025
0.1125   0.0375   0.025
0.1125   0.0625   0.025
0.1125   0.0875   0.025
0.1125   0.1125   0.025
0.1125   0.1375   0.025
0.1125   0.1625   0.025
0.1125   0.1875   0.025
0.1125   0.2125   0.025
0.1125   0.2375   0.025
0.1125   0.2625   0.025
0.1125   0.2875   0.025
0.1125   0.3125   0.025
0.1125   0.3375   0.025
0.1125   0.3625   0.025
0.1125   0.3875   0.025
0.1125   0.4125   0.025
0.1125   0.4375   0.025
0.1125   0.4625   0.025
0.1125   0.4875   0.025
0.1125   0.5125   0.025
0.1125   0.5375   0.025
0.1125   0.5625   0.025
0.1125   0.5875   0.025
0.1125   0.6125   0.025
0.1125   0.6375   0.025
0.1125   0.6625   0.025
0.1125   0.6875   0.025
0.1125   0.7125   0.025
0.1125   0.7375   0.025
0.1125   0.7625   0.025
0.1125   0.7875   0.025
0.1125   0.8125   0.025
0.1125   0.8375   0.025
0.1125   0.8625   0.025
0.1125   0.8875   0.025
0.1125   0.9125   0.025
0.1125   0.9375   0.025
0.1125   0.9625   0.025
0.1125   0.9875   0.025
0.1375   0.0125   0.025
0.1375   0.0375   0.025
0.1375   0.0625   0.025
0.1375   0.0875   0.025
0.1375   0.1125   0.025
0.1375   0.1375   0.025
0.1375   0.1625   0.025
0.1375   0.1875   0.025
0.1375   0.2125   0.025
0.1375   0.2375   0.025
0.1375   0.2625   0.025
0.1375   0.2875   0.025
0.1375   0.3125   0.025
0.1375   0.3375   0.025
0.1375   0.3625   0.025
0.1375   0.3875   0.025
0.1375   0.4125   0.025
0.1375   0.4375   0.025
0.1375   0.4625   0.025
0.1375   0.4875   0.025
0.1375   0.5125   0.025
0.1375   0.5375   0.025
0.1375   0.5625   0.025
0.1375   0.5875   0.025
0.1375   0.6125   0.025
0.1375   0.6375   0.025
0.1375   0.6625   0.025
0.1375   0.6875   0.025
0.1375   0.7125   0.025
0.1375   0.7375   0.025
0.1375   0.7625   0.025
0.1375   0.7875   0.025
0.1375   0.8125   0.025
0.1375   0.8375   0.025
0.1375   0.8625   0.025
0.1375   0.8875   0.025
0.1375   0.9125   0.025
0.1375   0.9375   0.025
0.1375   0.9625   0.025
0.1375   0.9875   0.025
0.1625   0.0125   0.025
0.1625   0.0375   0.025
0.1625   0.0625   0.025
0.1625   0.0875   0.025
0.1625   0.1125   0.025
0.1625   0.1375   0.025
0.1625   0.1625   0.025
0.1625   0.1875   0.025
0.1625   0.2125   0.025
0.1625   0.2375   0.025
0.1625   0.2625   0.025
0.1625   0.2875   0.025
0.1625   0.3125   0.025
0.1625   0.3375   0.025
0.1625   0.3625   0.025
0.1625   0.3875   0.025
0.1625   0.4125   0.025
0.1625   0.4375   0.025
0.1625   0.4625   0.025
0.1625   0.4875   0.025
0.1625   0.5125   0.025
0.1625   0.5375   0.025
0.1625   0.5625   0.025
0.1625   0.5875   0.025
0.1625   0.6125   0.025
0.1625   0.6375   0.025
0.1625   0.6625   0.025
0.1625   0.6875   0.025
0.1625   0.7125   0.025
0.1625   0.7375   0.025
0.1625   0.7625   0.025
0.1625   0.7875   0.025
0.1625   0.8125   0.025
0.1625   0.8375   0.025
0.1625   0.8625   0.025
0.1625   0.8875   0.025
0.1625   0.9125   0.025
0.1625   0.9375   0.025
0.1625   0.9625   0.025
0.1625   0.9875   0.025
0.1875   0.0125   0.025
0.1875   0.0375   0.025
0.1875   0.0625   0.025
0.1875   0.0875   0.025
0.1875   0.1125   0.025
0.1875   0.1375   0.025
0.1875   0.1625   0.025
0.1875   0.1875   0.025
0.1875   0.2125   0.025
0.1875   0.2375   0.025
0.1875   0.2625   0.025
0.1875   0.2875   0.025
0.1875   0.3125   0.025
0.1875   0.3375   0.025
0.1875   0.3625   0.025
0.1875   0.3875   0.025
0.1875   0.4125   0.025
0.1875   0.4375   0.025
0.1875   0.4625   0.025
0.1875   0.4875   0.025
0.1875   0.5125   0.025
0.1875   0.5375   0.025
0.1875   0.5625   0.025
0.1875   0.5875   0.025
0.1875   0.6125   0.025
0.1875   0.6375   0.025
0.1875   0.6625   0.025
0.1875   0.6875   0.025
0.1875   0.7125   0.025
0.1875   0.7375   0.025
0.1875   0.7625   0.025
0.1875   0.7875   0.025
0.1875   0.8125   0.025
0.1875   0.8375   0.025
0.1875   0.8625   0.025
0.1875   0.8875   0.025
0.1875   0.9125   0.025
0.1875   0.9375   0.025
0.1875   0.9625   0.025
0.1875   0.9875   0.025
0.2125   0.0125   0.025
0.2125   0.0375   0.025
0.2125   0.0625   0.025
0.2125   0.0875   0.025
0.2125   0.1125   0.025
0.2125   0.1375   0.025
0.2125   0.1625   0.025
0.2125   0.1875   0.025
0.2125   0.2125   0.025
0.2125   0.2375   0.025
0.2125   0.2625   0.025
0.2125   0.2875   0.025
0.2125   0.3125   0.025
0.2125   0.3375   0.025
0.2125   0.3625   0.025
0.2125   0.3875   0.025
0.2125   0.4125   0.025
0.2125   0.4375   0.025
0.2125   0.4625   0.025
0.2125   0.4875   0.025
0.2125   0.5125   0.025
0.2125   0.5375   0.025
0.2125   0.5625   0.025
0.2125   0.5875   0.025
0.2125   0.6125   0.025
0.2125   0.6375   0.025
0.2125   0.6625   0.025
0.2125   0.6875   0.025
0.2125   0.7125   0.025
0.2125   0.7375   0.025
0.2125   0.7625   0.025
0.2125   0.7875   0.025
0.2125   0.8125   0.025
0.2125   0.8375   0.025
0.2125   0.8625   0.025
0.2125   0.8875   0.025
0.2125   0.9125   0.025
0.2125   0.9375   0.025
0.2125   0.9625   0.025
0.2125   0.9875   0.025
0.2375   0.0125   0.025
0.2375   0.0375   0.025
0.2375   0.0625   0.025
0.2375   0.0875   0.025
0.2375   0.1125   0.025
0.2375   0.1375   0.025
0.2375   0.1625   0.025
0.2375   0.1875   0.025
0.2375   0.2125   0.025
0.2375   0.2375   0.025
0.2375   0.2625   0.025
0.2375   0.2875   0.025
0.2375   0.3125   0.025
0.2375   0.3375   0.025
0.2375   0.3625   0.025
0.2375   0.3875   0.025
0.2375   0.4125   0.025
0.2375   0.4375   0.025
0.2375   0.4625   0.025
0.2375   0.4875   0.025
0.2375   0.5125   0.025
0.2375   0.5375   0.025
0.2375   0.5625   0.025
0.2375   0.5875   0.025
0.2375   0.6125   0.025
0.2375   0.6375   0.025
0.2375   0.6625   0.025
0.2375   0.6875   0.025
0.2375   0.7125   0.025
0.2375   0.7375   0.025
0.2375   0.7625   0.025
0.2375   0.7875   0.025
0.2375   0.8125   0.025
0.2375   0.8375   0.025
0.2375   0.8625   0.025
0.2375   0.8875   0.025
0.2375   0.9125   0.025
0.2375   0.9375   0.025
0.2375   0.9625   0.025
0.2375   0.9875   0.025
0.2625   0.0125   0.025
0.2625   0.0375   0.025
0.2625   0.0625   0.025
0.2625   0.0875   0.025
0.2625   0.1125   0.025
0.2625   0.1375   0.025
0.2625   0.1625   0.025
0.2625   0.1875   0.025
0.2625   0.2125   0.025
0.2625   0.2375   0.025
0.2625   0.2625   0.025
[...]
POINT_DATA   32000
VECTORS Velocidades double

0 0.326599 0
0 0.742663 0
0 0.862641 0
0 0.906194 0
0 0.925906 0
0 0.936434 0
0 0.942695 0
0 0.946673 0
0 0.949309 0
0 0.951102 0
0 0.952341 0
0 0.953206 0
0 0.953809 0
0 0.954228 0
0 0.954511 0
0 0.954693 0
0 0.954797 0
0 0.954836 0
0 0.954816 0
0 0.95474 0
0 0.954602 0
0 0.954395 0
0 0.954104 0
0 0.953707 0
0 0.953178 0
0 0.952478 0
0 0.951556 0
0 0.950347 0
0 0.948757 0
0 0.946661 0
0 0.943879 0
0 0.940144 0
0 0.935047 0
0 0.927909 0
0 0.917503 0
0 0.901346 0
0 0.873609 0
0 0.818319 0
0 0.684913 0
0 0.2945 0
0 0.196561 0
0 0.497692 0
0 0.656249 0
0 0.739529 0
0 0.785796 0
0 0.8132 0
0 0.830348 0
0 0.841535 0
0 0.849058 0
0 0.854221 0
0 0.857813 0
0 0.860327 0
0 0.862088 0
0 0.863311 0
0 0.864141 0
0 0.864676 0
0 0.86498 0
0 0.865093 0
0 0.865036 0
0 0.86481 0
0 0.864406 0
0 0.863797 0
0 0.862941 0
0 0.861778 0
0 0.860226 0
0 0.858177 0
0 0.855487 0
0 0.851963 0
0 0.847346 0
0 0.841283 0
0 0.83328 0
0 0.822625 0
0 0.808258 0
0 0.788526 0
0 0.760727 0
0 0.720214 0
0 0.65864 0
0 0.560792 0
0 0.400872 0
0 0.1507 0
0 0.136039 0
0 0.363015 0
0 0.511008 0
0 0.603672 0
0 0.661918 0
0 0.69933 0
0 0.723983 0
0 0.74061 0
0 0.752035 0
0 0.759995 0
0 0.765588 0
0 0.769534 0
0 0.772313 0
0 0.77425 0
0 0.775568 0
0 0.77642 0
0 0.776905 0
0 0.777085 0
0 0.776991 0
0 0.77663 0
0 0.775982 0
0 0.775007 0
0 0.773639 0
0 0.771784 0
0 0.769316 0
0 0.766066 0
0 0.761813 0
0 0.756267 0
0 0.749045 0
0 0.739631 0
0 0.727329 0
0 0.711173 0
0 0.6898 0
0 0.661244 0
0 0.622624 0
0 0.569707 0
0 0.496435 0
0 0.394978 0
0 0.2583 0
0 0.0902344 0
0 0.101921 0
0 0.278952 0
0 0.406609 0
0 0.495143 0
0 0.555715 0
0 0.597209 0
0 0.625867 0
0 0.645858 0
0 0.659933 0
0 0.669913 0
0 0.677018 0
0 0.682079 0
0 0.685669 0
0 0.688186 0
0 0.689906 0
0 0.69102 0
0 0.691655 0
0 0.69189 0
0 0.691764 0
0 0.691286 0
0 0.69043 0
0 0.689145 0
0 0.687346 0
0 0.684914 0
0 0.681688 0
0 0.677457 0
0 0.671949 0
0 0.664812 0
0 0.655588 0
0 0.643686 0
0 0.62833 0
0 0.608498 0
0 0.582839 0
0 0.549567 0
0 0.50636 0
0 0.450329 0
0 0.378254 0
0 0.287548 0
0 0.178738 0
0 0.060088 0
0 0.0797191 0
0 0.221019 0
0 0.328536 0
0 0.407972 0
0 0.46563 0
0 0.50715 0
0 0.536993 0
0 0.558469 0
0 0.573955 0
0 0.585138 0
0 0.593214 0
0 0.599031 0
0 0.603192 0
0 0.606128 0
0 0.608145 0
0 0.609455 0
0 0.610203 0
0 0.610478 0
0 0.610326 0
0 0.609754 0
0 0.608736 0
0 0.607211 0
0 0.605082 0
0 0.602212 0
0 0.598421 0
0 0.593475 0
0 0.587074 0
0 0.578841 0
0 0.568299 0
0 0.55485 0
0 0.537741 0
0 0.516039 0
0 0.48859 0
0 0.454014 0
0 0.410734 0
0 0.357147 0
0 0.292032 0
0 0.215413 0
0 0.129989 0
0 0.0428168 0
0 0.0638032 0
0 0.178156 0
0 0.267933 0
0 0.337026 0
0 0.389322 0
0 0.428449 0
0 0.457512 0
0 0.479003 0
0 0.494847 0
0 0.506495 0
0 0.515027 0
0 0.521243 0
0 0.52573 0
0 0.528919 0
0 0.531121 0
0 0.532557 0
0 0.533377 0
0 0.533677 0
0 0.533504 0
0 0.532867 0
0 0.531737 0
0 0.530047 0
0 0.527696 0
0 0.52454 0
0 0.52039 0
0 0.515006 0
0 0.508086 0
0 0.499258 0
0 0.488064 0
0 0.473951 0
0 0.456258 0
0 0.434208 0
0 0.406917 0
0 0.373432 0
0 0.332831 0
0 0.284422 0
0 0.228103 0
0 0.164919 0
0 0.0977496 0
0 0.0318329 0
0 0.0516657 0
0 0.14488 0
0 0.219502 0
0 0.278528 0
0 0.32457 0
0 0.360043 0
0 0.387103 0
0 0.407584 0
0 0.422984 0
0 0.434494 0
0 0.443042 0
0 0.449339 0
0 0.453928 0
0 0.457212 0
0 0.459493 0
0 0.460985 0
0 0.461839 0
0 0.462149 0
0 0.461962 0
0 0.461287 0
0 0.460094 0
0 0.458317 0
0 0.455853 0
0 0.452558 0
0 0.448249 0
0 0.442691 0
0 0.435599 0
0 0.426626 0
0 0.415363 0
0 0.401331 0
0 0.383985 0
0 0.362727 0
0 0.33693 0
0 0.306003 0
0 0.269494 0
0 0.227263 0
0 0.179731 0
0 0.128196 0
0 0.0751285 0
0 0.0243013 0
0 0.0420465 0
0 0.118228 0
0 0.180005 0
0 0.229811 0
0 0.269527 0
0 0.300826 0
0 0.325221 0
0 0.344049 0
0 0.358452 0
0 0.36938 0
0 0.377599 0
0 0.38372 0
0 0.38822 0
0 0.391464 0
0 0.393729 0
0 0.395217 0
0 0.396069 0
0 0.396375 0
0 0.396182 0
0 0.395495 0
0 0.394287 0
0 0.392493 0
0 0.390014 0
0 0.386716 0
0 0.382424 0
0 0.376923 0
0 0.369953 0
0 0.36121 0
0 0.350342 0
0 0.336956 0
0 0.320628 0
0 0.30092 0
0 0.277422 0
0 0.249807 0
0 0.217924 0
0 0.181925 0
0 0.142418 0
0 0.100632 0
0 0.0585375 0
0 0.0188543 0
0 0.0342442 0
0 0.0964668 0
0 0.147377 0
0 0.188987 0
0 0.222719 0
0 0.249774 0
0 0.271229 0
0 0.288062 0
0 0.301132 0
0 0.31118 0
0 0.318827 0
0 0.324578 0
0 0.328842 0
0 0.331938 0
0 0.334111 0
0 0.335544 0
0 0.336365 0
0 0.336657 0
0 0.336462 0
0 0.335787 0
0 0.334604 0
0 0.332855 0
0 0.330447 0
0 0.327258 0
0 0.323128 0
0 0.317869 0
0 0.311252 0
0 0.30302 0
0 0.292884 0
0 0.280532 0
0 0.265648 0
0 0.247929 0
0 0.227124 0
0 0.203086 0
0 0.175837 0
0 0.145656 0
0 0.113171 0
0 0.0794341 0
0 0.0459722 0
0 0.0147653 0
0 0.0278321 0
0 0.0785068 0
0 0.120236 0
0 0.154688 0
0 0.182971 0
0 0.20597 0
0 0.224467 0
0 0.239179 0
0 0.250749 0
0 0.259748 0
0 0.266668 0
0 0.271921 0
0 0.275846 0
0 0.278715 0
0 0.280739 0
0 0.282078 0
0 0.282845 0
0 0.283115 0
0 0.282925 0
0 0.282281 0
0 0.281157 0
0 0.279501 0
0 0.277231 0
0 0.274237 0
0 0.270381 0
0 0.265499 0
0 0.259399 0
0 0.25187 0
0 0.24268 0
0 0.231592 0
0 0.218377 0
0 0.202836 0
0 0.184831 0
0 0.164324 0
0 0.141425 0
0 0.116451 0
0 0.0899692 0
0 0.062843 0
0 0.0362392 0
0 0.0116165 0
0 0.0225295 0
0 0.063611 0
0 0.0976024 0
0 0.125881 0
0 0.149324 0
0 0.168598 0
0 0.184278 0
0 0.196891 0
0 0.20692 0
0 0.214801 0
0 0.220917 0
0 0.225599 0
0 0.229123 0
0 0.231714 0
0 0.233551 0
0 0.234769 0
0 0.235468 0
0 0.235711 0
0 0.23553 0
0 0.234931 0
0 0.233891 0
0 0.232365 0
0 0.230279 0
0 0.227541 0
0 0.224033 0
0 0.219617 0
0 0.214135 0
0 0.207418 0
0 0.199286 0
0 0.189564 0
0 0.17809 0
0 0.164741 0
0 0.149451 0
0 0.132246 0
0 0.113273 0
0 0.0928336 0
0 0.0714145 0
0 0.0497021 0
0 0.028586 0
0 0.00915033 0
0 0.0181378 0
0 0.0512486 0
0 0.0787449 0
0 0.101756 0
0 0.12098 0
0 0.136924 0
0 0.150019 0
0 0.160653 0
0 0.169188 0
0 0.175955 0
0 0.18125 0
0 0.185333 0
0 0.188427 0
0 0.190714 0
0 0.192343 0
0 0.193427 0
0 0.194048 0
0 0.194261 0
0 0.194094 0
0 0.19355 0
0 0.19261 0
0 0.191236 0
0 0.189365 0
0 0.186919 0
0 0.183801 0
0 0.179896 0
0 0.17508 0
0 0.169218 0
0 0.162175 0
0 0.153822 0
0 0.144051 0
0 0.132789 0
0 0.120017 0
0 0.105791 0
0 0.0902631 0
0 0.0737019 0
0 0.0565078 0
0 0.0392192 0
0 0.0225123 0
0 0.0071986 0
0 0.014507 0
0 0.041013 0
0 0.0630872 0
0 0.0816474 0
0 0.097248 0
0 0.110281 0
0 0.121068 0
0 0.1299 0
0 0.137044 0
0 0.142753 0
0 0.147252 0
0 0.150745 0
0 0.153407 0
0 0.155385 0
0 0.1568 0
0 0.157743 0
0 0.158284 0
0 0.158467 0
0 0.158315 0
0 0.157832 0
0 0.157001 0
0 0.15579 0
0 0.154147 0
0 0.152009 0
0 0.149294 0
0 0.145913 0
0 0.141767 0
0 0.136751 0
0 0.130766 0
0 0.123719 0
0 0.115541 0
0 0.106191 0
0 0.0956779 0
0 0.0840678 0
0 0.0715028 0
0 0.0582107 0
0 0.0445133 0
0 0.0308283 0
0 0.017669 0
0 0.00564541 0
0 0.0115179 0
0 0.0325772 0
0 0.0501552 0
0 0.0649905 0
0 0.0775225 0
0 0.0880539 0
0 0.0968277 0
0 0.10406 0
0 0.109951 0
0 0.114689 0
0 0.118447 0
0 0.121383 0
0 0.123632 0
0 0.125311 0
0 0.126516 0
0 0.127321 0
0 0.127783 0
0 0.127937 0
0 0.127802 0
0 0.127381 0
0 0.126661 0
0 0.125615 0
0 0.124201 0
0 0.122368 0
0 0.12005 0
0 0.117178 0
0 0.113673 0
0 0.109458 0
0 0.10446 0
0 0.0986132 0
0 0.0918741 0
0 0.0842251 0
0 0.0756865 0
0 0.0663257 0
0 0.056267 0
0 0.0456973 0
0 0.034871 0
0 0.0241096 0
0 0.0138018 0
0 0.00440708 0
0 0.00907188 0
0 0.0256682 0
0 0.0395463 0
0 0.0512949 0
0 0.0612602 0
0 0.0696759 0
0 0.0767253 0
0 0.0825697 0
0 0.0873587 0
0 0.091233 0
0 0.0943237 0
0 0.0967503 0
0 0.0986184 0
0 0.100019 0
0 0.101027 0
0 0.101702 0
0 0.102089 0
0 0.102216 0
0 0.102099 0
0 0.101739 0
0 0.101127 0
0 0.10024 0
0 0.0990455 0
0 0.0975015 0
0 0.0955582 0
0 0.0931602 0
0 0.0902487 0
0 0.0867656 0
0 0.0826574 0
0 0.0778806 0
0 0.0724079 0
0 0.0662349 0
0 0.0593871 0
0 0.0519266 0
0 0.0439575 0
0 0.0356301 0
0 0.0271426 0
0 0.0187407 0
0 0.0107183 0
0 0.00342078 0
0 0.00708475 0
0 0.0200517 0
0 0.0309112 0
0 0.0401276 0
0 0.0479717 0
0 0.0546233 0
0 0.0602209 0
0 0.0648846 0
0 0.0687256 0
0 0.071849 0
0 0.074353 0
0 0.0763281 0
0 0.0778553 0
0 0.0790043 0
0 0.0798339 0
0 0.0803904 0
0 0.0807087 0
0 0.0808118 0
0 0.0807118 0
0 0.0804102 0
0 0.0798986 0
0 0.0791597 0
0 0.0781677 0
0 0.0768898 0
0 0.0752875 0
0 0.0733183 0
0 0.0709382 0
0 0.0681042 0
0 0.0647783 0
0 0.0609314 0
0 0.0565476 0
0 0.0516297 0
0 0.0462039 0
0 0.0403238 0
0 0.0340745 0
0 0.0275746 0
0 0.0209767 0
0 0.0144675 0
0 0.00826799 0
0 0.00263773 0
0 0.00548374 0
0 0.0155242 0
0 0.0239434 0
0 0.0311037 0
0 0.0372154 0
0 0.0424159 0
0 0.0468097 0
0 0.050486 0
0 0.0535272 0
0 0.0560112 0
0 0.0580114 0
0 0.0595957 0
0 0.0608253 0
0 0.0617536 0
0 0.0624255 0
0 0.0628769 0
0 0.0631347 0
0 0.063217 0
0 0.0631332 0
0 0.0628844 0
0 0.062464 0
0 0.0618586 0
0 0.0610483 0
0 0.0600076 0
0 0.0587073 0
0 0.0571154 0
0 0.055199 0
0 0.052927 0
0 0.0502726 0
0 0.0472166 0
0 0.0437507 0
0 0.0398811 0
0 0.0356318 0
0 0.0310477 0
0 0.0261967 0
0 0.0211708 0
0 0.0160866 0
0 0.0110848 0
0 0.00633084 0
0 0.00201907 0
0 0.00420541 0
0 0.0119078 0
0 0.0183732 0
0 0.0238816 0
0 0.0285947 0
0 0.032617 0
0 0.0360269 0
0 0.0388904 0
0 0.0412684 0
0 0.0432184 0
0 0.0447946 0
0 0.0460477 0
0 0.0470235 0
0 0.0477624 0
0 0.0482984 0
0 0.0486589 0
0 0.0488646 0
0 0.0489293 0
0 0.0488603 0
0 0.0486583 0
0 0.0483184 0
0 0.0478302 0
0 0.0471785 0
0 0.0463441 0
0 0.0453048 0
0 0.0440368 0
0 0.042516 0
0 0.0407201 0
0 0.0386304 0
0 0.0362345 0
0 0.0335286 0
0 0.0305201 0
0 0.02723 0
0 0.0236946 0
0 0.0199671 0
0 0.016118 0
0 0.0122354 0
0 0.00842463 0
0 0.00480907 0
0 0.00153333 0
0 0.00319448 0
0 0.00904687 0
0 0.0139637 0
0 0.0181592 0
0 0.0217562 0
0 0.0248339 0
0 0.0274506 0
0 0.0296551 0
0 0.031492 0
0 0.0330033 0
0 0.0342292 0
0 0.035207 0
0 0.0359708 0
0 0.0365506 0
0 0.0369721 0
0 0.0372559 0
0 0.0374176 0
0 0.0374677 0
0 0.0374117 0
0 0.0372503 0
0 0.0369797 0
0 0.0365919 0
0 0.0360756 0
0 0.0354164 0
0 0.0345977 0
0 0.0336021 0
0 0.032412 0
0 0.0310115 0
0 0.0293879 0
0 0.0275333 0
0 0.0254465 0
0 0.0231348 0
0 0.0206159 0
0 0.0179183 0
0 0.015083 0
0 0.0121637 0
0 0.00922608 0
0 0.00634856 0
0 0.0036224 0
0 0.00115471 0
0 0.00240299 0
0 0.00680636 0
0 0.0105086 0
0 0.0136718 0
0 0.0163886 0
0 0.0187183 0
0 0.020704 0
0 0.0223816 0
0 0.0237835 0
0 0.0249406 0
0 0.0258819 0
0 0.0266349 0
0 0.0272247 0
0 0.0276735 0
0 0.0280003 0
0 0.0282205 0
0 0.0283459 0
0 0.0283841 0
0 0.0283395 0
0 0.0282124 0
0 0.0280001 0
0 0.0276966 0
0 0.0272935 0
0 0.0267801 0
0 0.0261442 0
0 0.0253731 0
0 0.0244543 0
0 0.0233764 0
0 0.022131 0
0 0.020713 0
0 0.0191229 0
0 0.0173671 0
0 0.0154598 0
0 0.0134233 0
0 0.0112888 0
0 0.0090963 0
0 0.0068947 0
0 0.00474176 0
0 0.00270459 0
0 0.000861981 0
0 0.00178971 0
0 0.00506992 0
0 0.00782967 0
0 0.0101902 0
0 0.0122207 0
0 0.0139652 0
0 0.0154555 0
0 0.0167175 0
0 0.017775 0
0 0.0186501 0
0 0.0193639 0
0 0.0199365 0
0 0.020386 0
0 0.0207287 0
0 0.0209787 0
0 0.0211473 0
0 0.0212431 0
0 0.0212719 0
0 0.0212369 0
0 0.0211383 0
0 0.0209741 0
0 0.02074 0
0 0.0204296 0
0 0.0200352 0
0 0.019548 0
0 0.0189588 0
0 0.0182586 0
0 0.0174397 0
0 0.0164962 0
0 0.0154252 0
0 0.0142276 0
0 0.0129091 0
0 0.0114808 0
0 0.00995978 0
0 0.00836927 0
0 0.00673899 0
0 0.00510489 0
0 0.00350922 0
0 0.00200095 0
0 0.000637622 0
0 0.00131954 0
0 0.00373843 0
0 0.00577468 0
0 0.00751803 0
0 0.00901971 0
0 0.010312 0
0 0.0114181 0
0 0.0123568 0
0 0.0131452 0
0 0.0137992 0
0 0.0143339 0
0 0.0147638 0
0 0.015102 0
0 0.0153604 0
0 0.0155491 0
0 0.0156765 0
0 0.0157487 0
0 0.0157702 0
0 0.015743 0
0 0.0156676 0
0 0.0155424 0
0 0.0153642 0
0 0.0151285 0
0 0.0148296 0
0 0.0144613 0
0 0.0140169 0
0 0.0134901 0
0 0.0128756 0
0 0.0121695 0
0 0.0113702 0
0 0.0104788 0
0 0.00949982 0
0 0.00844192 0
0 0.00731786 0
0 0.00614493 0
0 0.00494488 0
0 0.0037439 0
0 0.00257262 0
0 0.00146651 0
0 0.000467253 0
0 0.000962974 0
0 0.0027285 0
0 0.00421548 0
0 0.00548964 0
0 0.00658847 0
0 0.00753547 0
0 0.00834739 0
0 0.0090378 0
0 0.00961879 0
0 0.0101017 0
0 0.0104975 0
0 0.0108163 0
0 0.0110677 0
0 0.01126 0
0 0.0114006 0
0 0.0114956 0
0 0.0115494 0
0 0.0115651 0
0 0.0115444 0
0 0.0114875 0
0 0.0113933 0
0 0.0112596 0
0 0.0110829 0
0 0.0108594 0
0 0.0105845 0
0 0.0102535 0
0 0.00986217 0
0 0.00940674 0
0 0.00888468 0
0 0.00829508 0
0 0.00763909 0
0 0.00692035 0
0 0.00614532 0
0 0.00532348 0
0 0.00446747 0
0 0.00359308 0
0 0.0027192 0
0 0.00186785 0
0 0.00106451 0
0 0.00033913 0
0 0.000695525 0
0 0.00197087 0
0 0.00304548 0
0 0.00396697 0
0 0.00476249 0
0 0.00544897 0
0 0.00603842 0
0 0.0065405 0
0 0.00696378 0
0 0.00731631 0
0 0.00760574 0
0 0.00783933 0
0 0.0080238 0
0 0.00816518 0
0 0.00826868 0
0 0.00833856 0
0 0.0083781 0
0 0.00838952 0
0 0.00837397 0
0 0.00833163 0
0 0.0082617 0
0 0.00816257 0
0 0.00803191 0
0 0.00786687 0
0 0.00766428 0
0 0.00742091 0
0 0.00713373 0
0 0.00680025 0
0 0.00641881 0
0 0.00598895 0
0 0.0055117 0
0 0.00498987 0
0 0.00442824 0
0 0.00383376 0
0 0.00321556 0
0 0.00258498 0
0 0.00195551 0
0 0.00134286 0
0 0.000765159 0
0 0.000243737 0
0 0.000497138 0
0 0.00140882 0
0 0.0021773 0
0 0.00283671 0
0 0.0034065 0
0 0.00389876 0
0 0.00432201 0
0 0.00468306 0
0 0.00498795 0
0 0.0052423 0
0 0.00545148 0
0 0.0056206 0
0 0.00575436 0
0 0.00585701 0
0 0.00593222 0
0 0.00598303 0
0 0.00601173 0
0 0.00601991 0
0 0.00600838 0
0 0.00597728 0
0 0.00592604 0
0 0.00585353 0
0 0.00575811 0
0 0.00563779 0
0 0.00549037 0
0 0.00531359 0
0 0.0051054 0
0 0.00486411 0
0 0.00458867 0
0 0.00427888 0
0 0.00393558 0
0 0.0035609 0
0 0.00315833 0
0 0.0027329 0
0 0.00229112 0
0 0.00184106 0
0 0.00139226 0
0 0.000955825 0
0 0.000544529 0
0 0.000173441 0
0 0.000351621 0
0 0.000996511 0
0 0.00154029 0
0 0.00200717 0
0 0.00241091 0
0 0.00276008 0
0 0.00306066 0
0 0.00331742 0
0 0.00353455 0
0 0.00371596 0
0 0.0038654 0
0 0.00398638 0
0 0.00408221 0
0 0.00415585 0
0 0.00420985 0
0 0.00424633 0
0 0.00426691 0
0 0.00427269 0
0 0.00426427 0
0 0.00424171 0
0 0.00420465 0
0 0.00415228 0
0 0.00408347 0
0 0.00399684 0
0 0.00389087 0
0 0.00376402 0
0 0.00361489 0
0 0.00344236 0
0 0.00324577 0
0 0.00302505 0
0 0.00278087 0
0 0.00251481 0
0 0.00222939 0
0 0.00192819 0
0 0.00161581 0
0 0.00129792 0
0 0.000981231 0
0 0.000673483 0
0 0.00038362 0
0 0.000122179 0
0 0.000246082 0
0 0.000697449 0
0 0.00107816 0
0 0.00140521 0
0 0.00168823 0
0 0.00193323 0
0 0.00214435 0
0 0.00232492 0
0 0.00247781 0
0 0.00260573 0
0 0.00271125 0
0 0.0027968 0
0 0.00286464 0
0 0.00291683 0
0 0.00295513 0
0 0.00298101 0
0 0.00299559 0
0 0.00299964 0
0 0.00299356 0
0 0.00297741 0
0 0.00295094 0
0 0.00291358 0
0 0.00286458 0
0 0.00280297 0
0 0.00272771 0
0 0.00263777 0
0 0.00253221 0
0 0.00241028 0
0 0.00227158 0
0 0.0021161 0
0 0.00194437 0
0 0.00175752 0
0 0.00155735 0
0 0.00134638 0
0 0.00112783 0
0 0.000905649 0
0 0.000684487 0
0 0.000469711 0
0 0.000267513 0
0 8.51943e-05 0
0 0.0001704 0
0 0.000482977 0
0 0.000746696 0
0 0.000973345 0
0 0.00116962 0
0 0.00133965 0
0 0.00148632 0
0 0.0016119 0
0 0.00171836 0
0 0.00180754 0
0 0.0018812 0
0 0.00194099 0
0 0.00198846 0
0 0.00202501 0
0 0.00205185 0
0 0.00206999 0
0 0.00208019 0
0 0.00208299 0
0 0.00207866 0
0 0.00206725 0
0 0.00204857 0
0 0.00202226 0
0 0.00198778 0
0 0.00194449 0
0 0.00189169 0
0 0.00182867 0
0 0.00175482 0
0 0.00166965 0
0 0.00157291 0
0 0.00146462 0
0 0.00134518 0
0 0.00121539 0
0 0.00107654 0
0 0.000930351 0
0 0.000779071 0
0 0.000625412 0
0 0.000472571 0
0 0.00032423 0
0 0.000184635 0
0 5.87965e-05 0
0 0.000116742 0
0 0.000330907 0
0 0.00051164 0
0 0.000667034 0
0 0.000801679 0
0 0.000918412 0
0 0.00101919 0
0 0.00110556 0
0 0.00117886 0
0 0.00124034 0
0 0.00129117 0
0 0.00133247 0
0 0.0013653 0
0 0.0013906 0
0 0.00140919 0
0 0.00142176 0
0 0.00142882 0
0 0.00143073 0
0 0.00142769 0
0 0.00141972 0
0 0.0014067 0
0 0.00138839 0
0 0.00136442 0
0 0.00133437 0
0 0.00129776 0
0 0.00125413 0
0 0.00120306 0
0 0.00114425 0
0 0.00107753 0
0 0.00100296 0
0 0.000920804 0
0 0.000831649 0
0 0.000736367 0
0 0.000636159 0
0 0.000532554 0
0 0.000427405 0
0 0.000322884 0
0 0.000221493 0
0 0.000126117 0
0 4.01593e-05 0
0 7.91297e-05 0
0 0.000224303 0
0 0.000346842 0
0 0.00045224 0
0 0.000543614 0
0 0.000622885 0
0 0.000691378 0
0 0.000750129 0
0 0.000800037 0
0 0.000841936 0
0 0.000876615 0
0 0.000904827 0
0 0.00092727 0
0 0.000944578 0
0 0.000957305 0
0 0.000965905 0
0 0.000970731 0
0 0.000972024 0
0 0.000969912 0
0 0.000964415 0
0 0.000955455 0
0 0.000942863 0
0 0.000926402 0
0 0.000905783 0
0 0.000880697 0
0 0.000850836 0
0 0.000815931 0
0 0.000775782 0
0 0.000730295 0
0 0.000679509 0
0 0.00062363 0
0 0.000563054 0
0 0.000498381 0
0 0.000430428 0
0 0.00036023 0
0 0.000289036 0
0 0.000218311 0
0 0.000149736 0
0 8.525e-05 0
0 2.71448e-05 0
0 5.30625e-05 0
0 0.000150418 0
0 0.000232611 0
0 0.000303331 0
0 0.00036467 0
0 0.000417917 0
0 0.000463957 0
0 0.000503481 0
0 0.000537085 0
0 0.000565322 0
0 0.000588717 0
0 0.000607765 0
0 0.000622932 0
0 0.000634637 0
0 0.000643248 0
0 0.000649067 0
0 0.000652328 0
0 0.000653192 0
0 0.000651744 0
0 0.000647999 0
0 0.000641904 0
0 0.000633349 0
0 0.000622176 0
0 0.000608197 0
0 0.000591207 0
0 0.000571007 0
0 0.000547421 0
0 0.000520324 0
0 0.000489659 0
0 0.000455459 0
0 0.00041787 0
0 0.000377162 0
0 0.000333742 0
0 0.000288157 0
0 0.000241102 0
0 0.000193411 0
0 0.000146059 0
0 0.000100166 0
0 5.70231e-05 0
0 1.81561e-05 0
0 3.52002e-05 0
0 9.97867e-05 0
0 0.000154324 0
0 0.000201263 0
0 0.000241994 0
0 0.000277371 0
0 0.000307979 0
0 0.000334274 0
0 0.00035665 0
0 0.000375467 0
0 0.000391071 0
0 0.000403787 0
0 0.000413919 0
0 0.000421744 0
0 0.000427502 0
0 0.000431394 0
0 0.000433572 0
0 0.000434143 0
0 0.000433163 0
0 0.000430642 0
0 0.000426546 0
0 0.000420802 0
0 0.000413308 0
0 0.00040394 0
0 0.000392567 0
0 0.000379059 0
0 0.000363305 0
0 0.000345223 0
0 0.000324782 0
0 0.000302009 0
0 0.000277003 0
0 0.000249946 0
0 0.000221111 0
0 0.000190863 0
0 0.00015966 0
0 0.000128054 0
0 9.66874e-05 0
0 6.62995e-05 0
0 3.77403e-05 0
0 1.2016e-05 0
0 2.30968e-05 0
0 6.54778e-05 0
0 0.00010127 0
0 0.000132085 0
0 0.000158835 0
0 0.00018208 0
0 0.000202204 0
0 0.000219503 0
0 0.000234235 0
0 0.000246634 0
0 0.000256923 0
0 0.000265314 0
0 0.000272005 0
0 0.000277176 0
0 0.000280982 0
0 0.000283555 0
0 0.000284993 0
0 0.000285366 0
0 0.000284711 0
0 0.000283034 0
0 0.000280314 0
0 0.000276503 0
0 0.000271536 0
0 0.000265332 0
0 0.000257808 0
0 0.00024888 0
0 0.000238476 0
0 0.000226549 0
0 0.000213077 0
0 0.000198083 0
0 0.000181633 0
0 0.000163849 0
0 0.000144911 0
0 0.000125058 0
0 0.000104592 0
0 8.38724e-05 0
0 6.3319e-05 0
0 4.34137e-05 0
0 2.4711e-05 0
0 7.86735e-06 0
0 1.49849e-05 0
0 4.24824e-05 0
0 6.57087e-05 0
0 8.571e-05 0
0 0.000103079 0
0 0.000118179 0
0 0.000131259 0
0 0.00014251 0
0 0.000152097 0
0 0.000160172 0
0 0.000166877 0
0 0.00017235 0
0 0.000176716 0
0 0.000180093 0
0 0.000182579 0
0 0.000184259 0
0 0.000185197 0
0 0.000185438 0
0 0.000185006 0
0 0.000183904 0
0 0.00018212 0
0 0.000179622 0
0 0.000176369 0
0 0.000172311 0
0 0.000167392 0
0 0.000161561 0
0 0.000154772 0
0 0.000146996 0
0 0.000138221 0
0 0.000128462 0
0 0.000117765 0
0 0.000106209 0
0 9.39123e-05 0
0 8.10297e-05 0
0 6.77563e-05 0
0 5.43251e-05 0
0 4.10071e-05 0
0 2.81131e-05 0
0 1.60009e-05 0
0 5.0941e-06 0
0 9.60337e-06 0
0 2.72264e-05 0
0 4.2114e-05 0
0 5.49374e-05 0
0 6.60768e-05 0
0 7.57651e-05 0
0 8.41612e-05 0
0 9.13875e-05 0
0 9.75489e-05 0
0 0.000102742 0
0 0.000107057 0
0 0.00011058 0
0 0.000113394 0
0 0.00011557 0
0 0.000117173 0
0 0.000118256 0
0 0.000118861 0
0 0.000119014 0
0 0.000118733 0
0 0.000118019 0
0 0.000116864 0
0 0.000115248 0
0 0.000113146 0
0 0.000110525 0
0 0.000107351 0
0 0.000103591 0
0 9.92175e-05 0
0 9.42119e-05 0
0 8.8568e-05 0
0 8.22963e-05 0
0 7.54266e-05 0
0 6.80106e-05 0
0 6.0124e-05 0
0 5.18666e-05 0
0 4.33631e-05 0
0 3.47623e-05 0
0 2.62371e-05 0
0 1.79857e-05 0
0 1.02361e-05 0
0 3.25871e-06 0
0 6.0628e-06 0
0 1.7189e-05 0
0 2.65893e-05 0
0 3.4688e-05 0
0 4.17251e-05 0
0 4.78479e-05 0
0 5.31563e-05 0
0 5.77274e-05 0
0 6.1627e-05 0
0 6.49154e-05 0