# vtk DataFile Version 2.0
Presion
ASCII

DATASET STRUCTURED_GRID
DIMENSIONS   40   40   20

POINTS   32000   double
0.0125   0.0125   0.025
0.0375   0.0125   0.025
0.0625   0.0125   0.025
0.0875   0.0125   0.025
0.1125   0.0125   0.025
0.1375   0.0125   0.025
0.1625   0.0125   0.025
0.1875   0.0125   0.025
0.2125   0.0125   0.025
0.2375   0.0125   0.025
0.2625   0.0125   0.025
0.2875   0.0125   0.025
0.3125   0.0125   0.025
0.3375   0.0125   0.025
0.3625   0.0125   0.025
0.3875   0.0125   0.025
0.4125   0.0125   0.025
0.4375   0.0125   0.025
0.4625   0.0125   0.025
0.4875   0.0125   0.025
0.5125   0.0125   0.025
0.5375   0.0125   0.025
0.5625   0.0125   0.025
0.5875   0.0125   0.025
0.6125   0.0125   0.025
0.6375   0.0125   0.025
0.6625   0.0125   0.025
0.6875   0.0125   0.025
0.7125   0.0125   0.025
0.7375   0.0125   0.025
0.7625   0.0125   0.025
0.7875   0.0125   0.025
0.8125   0.0125   0.025
0.8375   0.0125   0.025
0.8625   0.0125   0.025
0.8875   0.0125   0.025
0.9125   0.0125   0.025
0.9375   0.0125   0.025
0.9625   0.0125   0.025
0.9875   0.0125   0.025
0.0125   0.0375   0.025
0.0375   0.0375   0.025
0.0625   0.0375   0.025
0.0875   0.0375   0.025
0.1125   0.0375   0.025
0.1375   0.0375   0.025
0.1625   0.0375   0.025
0.1875   0.0375   0.025
0.2125   0.0375   0.025
0.2375   0.0375   0.025
0.2625   0.0375   0.025
0.2875   0.0375   0.025
0.3125   0.0375   0.025
0.3375   0.0375   0.025
0.3625   0.0375   0.025
0.3875   0.0375   0.025
0.4125   0.0375   0.025
0.4375   0.0375   0.025
0.4625   0.0375   0.025
0.4875   0.0375   0.025
0.5125   0.0375   0.025
0.5375   0.0375   0.025
0.5625   0.0375   0.025
0.5875   0.0375   0.025
0.6125   0.0375   0.025
0.6375   0.0375   0.025
0.6625   0.0375   0.025
0.6875   0.0375   0.025
0.7125   0.0375   0.025
0.7375   0.0375   0.025
0.7625   0.0375   0.025
0.7875   0.0375   0.025
0.8125   0.0375   0.025
0.8375   0.0375   0.025
0.8625   0.0375   0.025
0.8875   0.0375   0.025
0.9125   0.0375   0.025
0.9375   0.0375   0.025
0.9625   0.0375   0.025
0.9875   0.0375   0.025
0.0125   0.0625   0.025
0.0375   0.0625   0.025
0.0625   0.0625   0.025
0.0875   0.0625   0.025
0.1125   0.0625   0.025
0.1375   0.0625   0.025
0.1625   0.0625   0.025
0.1875   0.0625   0.025
0.2125   0.0625   0.025
0.2375   0.0625   0.025
0.2625   0.0625   0.025
0.2875   0.0625   0.025
0.3125   0.0625   0.025
0.3375   0.0625   0.025
0.3625   0.0625   0.025
0.3875   0.0625   0.025
0.4125   0.0625   0.025
0.4375   0.0625   0.025
0.4625   0.0625   0.025
0.4875   0.0625   0.025
0.5125   0.0625   0.025
0.5375   0.0625   0.025
0.5625   0.0625   0.025
0.5875   0.0625   0.025
0.6125   0.0625   0.025
0.6375   0.0625   0.025
0.6625   0.0625   0.025
0.6875   0.0625   0.025
0.7125   0.0625   0.025
0.7375   0.0625   0.025
0.7625   0.0625   0.025
0.7875   0.0625   0.025
0.8125   0.0625   0.025
0.8375   0.0625   0.025
0.8625   0.0625   0.025
0.8875   0.0625   0.025
0.9125   0.0625   0.025
0.9375   0.0625   0.025
0.9625   0.0625   0.025
0.9875   0.0625   0.025
0.0125   0.0875   0.025
0.0375   0.0875   0.025
0.0625   0.0875   0.025
0.0875   0.0875   0.025
0.1125   0.0875   0.025
0.1375   0.0875   0.025
0.1625   0.0875   0.025
0.1875   0.0875   0.025
0.2125   0.0875   0.025
0.2375   0.0875   0.025
0.2625   0.0875   0.025
0.2875   0.0875   0.025
0.3125   0.0875   0.025
0.3375   0.0875   0.025
0.3625   0.0875   0.025
0.3875   0.0875   0.025
0.4125   0.0875   0.025
0.4375   0.0875   0.025
0.4625   0.0875   0.025
0.4875   0.0875   0.025
0.5125   0.0875   0.025
0.5375   0.0875   0.025
0.5625   0.0875   0.025
0.5875   0.0875   0.025
0.6125   0.0875   0.025
0.6375   0.0875   0.025
0.6625   0.0875   0.025
0.6875   0.0875   0.025
0.7125   0.0875   0.025
0.7375   0.0875   0.025
0.7625   0.0875   0.025
0.7875   0.0875   0.025
0.8125   0.0875   0.025
0.8375   0.0875   0.025
0.8625   0.0875   0.025
0.8875   0.0875   0.025
0.9125   0.0875   0.025
0.9375   0.0875   0.025
0.9625   0.0875   0.025
0.9875   0.0875   0.025
0.0125   0.1125   0.025
0.0375   0.1125   0.025
0.0625   0.1125   0.025
0.0875   0.1125   0.025
0.1125   0.1125   0.025
0.1375   0.1125   0.025
0.1625   0.1125   0.025
0.1875   0.1125   0.025
0.2125   0.1125   0.025
0.2375   0.1125   0.025
0.2625   0.1125   0.025
0.2875   0.1125   0.025
0.3125   0.1125   0.025
0.3375   0.1125   0.025
0.3625   0.1125   0.025
0.3875   0.1125   0.025
0.4125   0.1125   0.025
0.4375   0.1125   0.025
0.4625   0.1125   0.025
0.4875   0.1125   0.025
0.5125   0.1125   0.025
0.5375   0.1125   0.025
0.5625   0.1125   0.025
0.5875   0.1125   0.025
0.6125   0.1125   0.025
0.6375   0.1125   0.025
0.6625   0.1125   0.025
0.6875   0.1125   0.025
0.7125   0.1125   0.025
0.7375   0.1125   0.025
0.7625   0.1125   0.025
0.7875   0.1125   0.025
0.8125   0.1125   0.025
0.8375   0.1125   0.025
0.8625   0.1125   0.025
0.8875   0.1125   0.025
0.9125   0.1125   0.025
0.9375   0.1125   0.025
0.9625   0.1125   0.025
0.9875   0.1125   0.025
0.0125   0.1375   0.025
0.0375   0.1375   0.025
0.0625   0.1375   0.025
0.0875   0.1375   0.025
0.1125   0.1375   0.025
0.1375   0.1375   0.025
0.1625   0.1375   0.025
0.1875   0.1375   0.025
0.2125   0.1375   0.025
0.2375   0.1375   0.025
0.2625   0.1375   0.025
0.2875   0.1375   0.025
0.3125   0.1375   0.025
0.3375   0.1375   0.025
0.3625   0.1375   0.025
0.3875   0.1375   0.025
0.4125   0.1375   0.025
0.4375   0.1375   0.025
0.4625   0.1375   0.025
0.4875   0.1375   0.025
0.5125   0.1375   0.025
0.5375   0.1375   0.025
0.5625   0.1375   0.025
0.5875   0.1375   0.025
0.6125   0.1375   0.025
0.6375   0.1375   0.025
0.6625   0.1375   0.025
0.6875   0.1375   0.025
0.7125   0.1375   0.025
0.7375   0.1375   0.025
0.7625   0.1375   0.025
0.7875   0.1375   0.025
0.8125   0.1375   0.025
0.8375   0.1375   0.025
0.8625   0.1375   0.025
0.8875   0.1375   0.025
0.9125   0.1375   0.025
0.9375   0.1375   0.025
0.9625   0.1375   0.025
0.9875   0.1375   0.025
0.0125   0.1625   0.025
0.0375   0.1625   0.025
0.0625   0.1625   0.025
0.0875   0.1625   0.025
0.1125   0.1625   0.025
0.1375   0.1625   0.025
0.1625   0.1625   0.025
0.1875   0.1625   0.025
0.2125   0.1625   0.025
0.2375   0.1625   0.025
0.2625   0.1625   0.025
0.2875   0.1625   0.025
0.3125   0.1625   0.025
0.3375   0.1625   0.025
0.3625   0.1625   0.025
0.3875   0.1625   0.025
0.4125   0.1625   0.025
0.4375   0.1625   0.025
0.4625   0.1625   0.025
0.4875   0.1625   0.025
0.5125   0.1625   0.025
0.5375   0.1625   0.025
0.5625   0.1625   0.025
0.5875   0.1625   0.025
0.6125   0.1625   0.025
0.6375   0.1625   0.025
0.6625   0.1625   0.025
0.6875   0.1625   0.025
0.7125   0.1625   0.025
0.7375   0.1625   0.025
0.7625   0.1625   0.025
0.7875   0.1625   0.025
0.8125   0.1625   0.025
0.8375   0.1625   0.025
0.8625   0.1625   0.025
0.8875   0.1625   0.025
0.9125   0.1625   0.025
0.9375   0.1625   0.025
0.9625   0.1625   0.025
0.9875   0.1625   0.025
0.0125   0.1875   0.025
0.0375   0.1875   0.025
0.0625   0.1875   0.025
0.0875   0.1875   0.025
0.1125   0.1875   0.025
0.1375   0.1875   0.025
0.1625   0.1875   0.025
0.1875   0.1875   0.025
0.2125   0.1875   0.025
0.2375   0.1875   0.025
0.2625   0.1875   0.025
0.2875   0.1875   0.025
0.3125   0.1875   0.025
0.3375   0.1875   0.025
0.3625   0.1875   0.025
0.3875   0.1875   0.025
0.4125   0.1875   0.025
0.4375   0.1875   0.025
0.4625   0.1875   0.025
0.4875   0.1875   0.025
0.5125   0.1875   0.025
0.5375   0.1875   0.025
0.5625   0.1875   0.025
0.5875   0.1875   0.025
0.6125   0.1875   0.025
0.6375   0.1875   0.025
0.6625   0.1875   0.025
0.6875   0.1875   0.025
0.7125   0.1875   0.025
0.7375   0.1875   0.025
0.7625   0.1875   0.025
0.7875   0.1875   0.025
0.8125   0.1875   0.025
0.8375   0.1875   0.025
0.8625   0.1875   0.025
0.8875   0.1875   0.025
0.9125   0.1875   0.025
0.9375   0.1875   0.025
0.9625   0.1875   0.025
0.9875   0.1875   0.025
0.0125   0.2125   0.025
0.0375   0.2125   0.025
0.0625   0.2125   0.025
0.0875   0.2125   0.025
0.1125   0.2125   0.025
0.1375   0.2125   0.025
0.1625   0.2125   0.025
0.1875   0.2125   0.025
0.2125   0.2125   0.025
0.2375   0.2125   0.025
0.2625   0.2125   0.025
0.2875   0.2125   0.025
0.3125   0.2125   0.025
0.3375   0.2125   0.025
0.3625   0.2125   0.025
0.3875   0.2125   0.025
0.4125   0.2125   0.025
0.4375   0.2125   0.025
0.4625   0.2125   0.025
0.4875   0.2125   0.025
0.5125   0.2125   0.025
0.5375   0.2125   0.025
0.5625   0.2125   0.025
0.5875   0.2125   0.025
0.6125   0.2125   0.025
0.6375   0.2125   0.025
0.6625   0.2125   0.025
0.6875   0.2125   0.025
0.7125   0.2125   0.025
0.7375   0.2125   0.025
0.7625   0.2125   0.025
0.7875   0.2125   0.025
0.8125   0.2125   0.025
0.8375   0.2125   0.025
0.8625   0.2125   0.025
0.8875   0.2125   0.025
0.9125   0.2125   0.025
0.9375   0.2125   0.025
0.9625   0.2125   0.025
0.9875   0.2125   0.025
0.0125   0.2375   0.025
0.0375   0.2375   0.025
0.0625   0.2375   0.025
0.0875   0.2375   0.025
0.1125   0.2375   0.025
0.1375   0.2375   0.025
0.1625   0.2375   0.025
0.1875   0.2375   0.025
0.2125   0.2375   0.025
0.2375   0.2375   0.025
0.2625   0.2375   0.025
0.2875   0.2375   0.025
0.3125   0.2375   0.025
0.3375   0.2375   0.025
0.3625   0.2375   0.025
0.3875   0.2375   0.025
0.4125   0.2375   0.025
0.4375   0.2375   0.025
0.4625   0.2375   0.025
0.4875   0.2375   0.025
0.5125   0.2375   0.025
0.5375   0.2375   0.025
0.5625   0.2375   0.025
0.5875   0.2375   0.025
0.6125   0.2375   0.025
0.6375   0.2375   0.025
0.6625   0.2375   0.025
0.6875   0.2375   0.025
0.7125   0.2375   0.025
0.7375   0.2375   0.025
0.7625   0.2375   0.025
0.7875   0.2375   0.025
0.8125   0.2375   0.025
0.8375   0.2375   0.025
0.8625   0.2375   0.025
0.8875   0.2375   0.025
0.9125   0.2375   0.025
0.9375   0.2375   0.025
0.9625   0.2375   0.025
0.9875   0.2375   0.025
0.0125   0.2625   0.025
0.0375   0.2625   0.025
0.0625   0.2625   0.025
0.0875   0.2625   0.025
0.1125   0.2625   0.025
0.1375   0.2625   0.025
0.1625   0.2625   0.025
0.1875   0.2625   0.025
0.2125   0.2625   0.025
0.2375   0.2625   0.025
0.2625   0.2625   0.025
[...]
POINT_DATA   32000
SCALARS Presion double
LOOKUP_TABLE   Presion

0 0 0 0 0 0 0 0 0 0 0 0 0 0 0 0 0 0 0 0 0 0 0 0 0 0 0 0 0 0 0 0 0 0 0 0 0 0 0 0 -4.54642e-06 -4.50836e-06 -4.43725e-06 -4.33594e-06 -4.20644e-06 -4.05041e-06 -3.86931e-06 -3.66452e-06 -3.43725e-06 -3.1886e-06 -2.91946e-06 -2.63113e-06 -2.32347e-06 -1.9967e-06 -1.65085e-06 -1.28574e-06 -9.01035e-07 -4.96337e-07 -7.1225e-08 3.74636e-07 8.41393e-07 1.32873e-06 1.83625e-06 2.36286e-06 2.90674e-06 3.46531e-06 4.03506e-06 4.6115e-06 5.18909e-06 5.76127e-06 6.32053e-06 6.85919e-06 7.36767e-06 7.83676e-06 8.25736e-06 8.62089e-06 8.91976e-06 9.14787e-06 9.30104e-06 9.37756e-06 -9.09803e-06 -9.02239e-06 -8.88037e-06 -8.67763e-06 -8.41825e-06 -8.10563e-06 -7.74281e-06 -7.33258e-06 -6.8775e-06 -6.37981e-06 -5.84135e-06 -5.26475e-06 -4.64975e-06 -3.99684e-06 -3.30603e-06 -2.57694e-06 -1.80888e-06 -1.00096e-06 -1.52294e-07 7.37877e-07 1.66994e-06 2.64335e-06 3.65746e-06 4.71013e-06 5.7979e-06 6.91567e-06 8.05653e-06 9.21157e-06 1.03698e-05 1.15179e-05 1.2641e-05 1.37236e-05 1.47462e-05 1.56904e-05 1.65375e-05 1.72702e-05 1.7873e-05 1.83333e-05 1.86428e-05 1.87976e-05 -1.36719e-05 -1.35583e-05 -1.33447e-05 -1.30394e-05 -1.26487e-05 -1.21778e-05 -1.16314e-05 -1.10141e-05 -1.03297e-05 -9.58185e-06 -8.77339e-06 -7.90833e-06 -6.98638e-06 -6.00825e-06 -4.97395e-06 -3.88282e-06 -2.7337e-06 -1.52514e-06 -2.55598e-07 1.07626e-06 2.47126e-06 3.92883e-06 5.44828e-06 7.02668e-06 8.65912e-06 1.03382e-05 1.20538e-05 1.37928e-05 1.55386e-05 1.72715e-05 1.89686e-05 2.06065e-05 2.21557e-05 2.35876e-05 2.48737e-05 2.59872e-05 2.6904e-05 2.76048e-05 2.80761e-05 2.83121e-05 -1.82844e-05 -1.81321e-05 -1.78453e-05 -1.74352e-05 -1.69105e-05 -1.62783e-05 -1.55455e-05 -1.47181e-05 -1.3802e-05 -1.28019e-05 -1.17222e-05 -1.05682e-05 -9.33967e-06 -8.03761e-06 -6.66191e-06 -5.21156e-06 -3.68479e-06 -2.07938e-06 -3.92928e-07 1.37674e-06 3.23117e-06 5.1701e-06 7.19309e-06 9.29681e-06 1.14752e-05 1.3719e-05 1.60151e-05 1.83462e-05 2.06904e-05 2.30215e-05 2.53085e-05 2.75196e-05 2.96144e-05 3.15538e-05 3.32983e-05 3.48105e-05 3.60571e-05 3.70107e-05 3.76525e-05 3.79739e-05 -2.29517e-05 -2.27593e-05 -2.23968e-05 -2.18787e-05 -2.12159e-05 -2.04181e-05 -1.94942e-05 -1.84526e-05 -1.73009e-05 -1.60457e-05 -1.46927e-05 -1.32489e-05 -1.17142e-05 -1.00899e-05 -8.37559e-06 -6.56986e-06 -4.67012e-06 -2.67308e-06 -5.75214e-07 1.62686e-06 3.93577e-06 6.35201e-06 8.87586e-06 1.1504e-05 1.42298e-05 1.70425e-05 1.99264e-05 2.28604e-05 2.58177e-05 2.8765e-05 3.16635e-05 3.4472e-05 3.71387e-05 3.96127e-05 4.18423e-05 4.37783e-05 4.53763e-05 4.66e-05 4.7424e-05 4.78367e-05 -2.76897e-05 -2.74554e-05 -2.70138e-05 -2.63829e-05 -2.55765e-05 -2.46069e-05 -2.34858e-05 -2.22239e-05 -2.08312e-05 -1.93167e-05 -1.76877e-05 -1.59528e-05 -1.41123e-05 -1.21677e-05 -1.01185e-05 -7.96246e-06 -5.69589e-06 -3.31418e-06 -8.12238e-07 1.81493e-06 4.57155e-06 7.45937e-06 1.048e-05 1.36307e-05 1.69049e-05 2.0291e-05 2.37712e-05 2.73213e-05 3.09093e-05 3.44956e-05 3.80327e-05 4.14695e-05 4.4742e-05 4.77858e-05 5.05355e-05 5.29278e-05 5.49058e-05 5.64223e-05 5.74442e-05 5.79559e-05 -3.25144e-05 -3.22357e-05 -3.17105e-05 -3.09606e-05 -3.0003e-05 -2.88534e-05 -2.75265e-05 -2.60362e-05 -2.43956e-05 -2.2616e-05 -2.07069e-05 -1.86791e-05 -1.65332e-05 -1.4271e-05 -1.18915e-05 -9.39153e-06 -6.76609e-06 -4.00873e-06 -1.11232e-06 1.93028e-06 5.12546e-06 8.47689e-06 1.19881e-05 1.56579e-05 1.94805e-05 2.3444e-05 2.75297e-05 3.17105e-05 3.59502e-05 4.02024e-05 4.44108e-05 4.85141e-05 5.24342e-05 5.60918e-05 5.94054e-05 6.22956e-05 6.46899e-05 6.65284e-05 6.77682e-05 6.83889e-05 -3.74425e-05 -3.71161e-05 -3.65014e-05 -3.56242e-05 -3.45056e-05 -3.3165e-05 -3.1621e-05 -2.98916e-05 -2.79933e-05 -2.59409e-05 -2.37465e-05 -2.14232e-05 -1.89722e-05 -1.63956e-05 -1.36917e-05 -1.08561e-05 -7.88197e-06 -4.76046e-06 -1.48193e-06 1.96355e-06 5.58519e-06 9.38935e-06 1.33824e-05 1.75653e-05 2.19342e-05 2.64781e-05 3.1178e-05 3.60052e-05 4.09195e-05 4.58686e-05 5.07871e-05 5.5602e-05 6.02204e-05 6.45457e-05 6.84775e-05 7.19171e-05 7.47734e-05 7.69703e-05 7.84533e-05 7.91957e-05 -4.24914e-05 -4.21132e-05 -4.14012e-05 -4.03861e-05 -3.90935e-05 -3.75476e-05 -3.57718e-05 -3.3789e-05 -3.16204e-05 -2.9285e-05 -2.67982e-05 -2.41759e-05 -2.14202e-05 -1.85331e-05 -1.55123e-05 -1.23516e-05 -9.04143e-06 -5.57033e-06 -1.92532e-06 1.90697e-06 5.93937e-06 1.01817e-05 1.4644e-05 1.93308e-05 2.42409e-05 2.93657e-05 3.46875e-05 4.01766e-05 4.57904e-05 5.14707e-05 5.71434e-05 6.27231e-05 6.81002e-05 7.31581e-05 7.77744e-05 8.18267e-05 8.52014e-05 8.78025e-05 8.95603e-05 9.04401e-05 -4.76801e-05 -4.72449e-05 -4.64258e-05 -4.52589e-05 -4.37756e-05 -4.20056e-05 -3.99787e-05 -3.77238e-05 -3.52684e-05 -3.26365e-05 -2.98481e-05 -2.69222e-05 -2.3862e-05 -2.06697e-05 -1.73414e-05 -1.38685e-05 -1.02385e-05 -6.43596e-06 -2.44405e-06 1.75484e-06 6.17788e-06 1.08393e-05 1.57539e-05 2.09306e-05 2.63727e-05 3.20755e-05 3.80237e-05 4.41892e-05 5.05278e-05 5.69768e-05 6.34534e-05 6.98592e-05 7.60658e-05 8.19341e-05 8.73149e-05 9.20575e-05 9.60202e-05 9.90818e-05 0.000101154 0.000102191 -5.30301e-05 -5.25312e-05 -5.15923e-05 -5.02561e-05 -4.85603e-05 -4.65421e-05 -4.42388e-05 -4.16874e-05 -3.89232e-05 -3.59773e-05 -3.28752e-05 -2.96398e-05 -2.62758e-05 -2.27849e-05 -1.91612e-05 -1.53926e-05 -1.14626e-05 -7.35113e-06 -3.0365e-06 1.50388e-06 6.29233e-06 1.13484e-05 1.66925e-05 2.23396e-05 2.82988e-05 3.45711e-05 4.11463e-05 4.79994e-05 5.50873e-05 6.23443e-05 6.96797e-05 7.69815e-05 8.41008e-05 9.08718e-05 9.71136e-05 0.000102641 0.000107277 0.000110869 0.000113304 0.000114523 -5.85666e-05 -5.79955e-05 -5.69207e-05 -5.53924e-05 -5.34564e-05 -5.11585e-05 -4.85459e-05 -4.56661e-05 -4.25645e-05 -3.92815e-05 -3.58499e-05 -3.22976e-05 -2.86309e-05 -2.48503e-05 -2.09467e-05 -1.69033e-05 -1.2698e-05 -8.30525e-06 -3.6974e-06 1.15381e-06 6.27655e-06 1.16964e-05 1.74406e-05 2.35312e-05 2.99851e-05 3.68113e-05 4.40072e-05 5.15544e-05 5.94133e-05 6.75183e-05 7.57722e-05 8.40491e-05 9.21775e-05 9.99607e-05 0.00010718 0.000113606 0.000119021 0.000123229 0.000126088 0.00012752 -6.43195e-05 -6.36656e-05 -6.24347e-05 -6.06856e-05 -5.84734e-05 -5.58552e-05 -5.28905e-05 -4.96402e-05 -4.61633e-05 -4.25129e-05 -3.87316e-05 -3.48534e-05 -3.08861e-05 -2.68281e-05 -2.26651e-05 -1.83734e-05 -1.39236e-05 -9.28299e-06 -4.41738e-06 7.07863e-07 6.12722e-06 1.18729e-05 1.79797e-05 2.44782e-05 3.13951e-05 3.87497e-05 4.65507e-05 5.479e-05 6.34365e-05 7.2428e-05 8.16638e-05 9.10048e-05 0.000100254 0.00010918 0.000117516 0.000124982 0.000131303 0.000136235 0.000139592 0.000141275 -7.03258e-05 -6.95759e-05 -6.81634e-05 -6.6157e-05 -6.3623e-05 -6.0632e-05 -5.72591e-05 -5.35828e-05 -4.96806e-05 -4.56226e-05 -4.14652e-05 -3.72504e-05 -3.29874e-05 -2.86697e-05 -2.42746e-05 -1.97684e-05 -1.51121e-05 -1.02641e-05 -5.18262e-06 1.73385e-07 5.84476e-06 1.18705e-05 1.82934e-05 2.51539e-05 3.249e-05 4.03349e-05 4.87122e-05 5.76297e-05 6.70706e-05 7.69829e-05 8.72669e-05 9.77716e-05 0.000108273 0.000118495 0.000128117 0.000136792 0.000144178 0.000149964 0.000153914 0.000155895 -7.66315e-05 -7.57693e-05 -7.41435e-05 -7.18341e-05 -6.89204e-05 -6.54889e-05 -6.16345e-05 -5.74586e-05 -5.30637e-05 -4.85443e-05 -4.39768e-05 -3.94137e-05 -3.48644e-05 -3.03132e-05 -2.57235e-05 -2.10469e-05 -1.62308e-05 -1.12233e-05 -5.97465e-06 -4.37546e-07 5.43433e-06 1.16862e-05 1.83689e-05 2.55332e-05 3.32307e-05 4.15111e-05 5.0418e-05 5.99818e-05 7.02091e-05 8.10673e-05 9.24663e-05 0.000104247 0.000116153 0.000127858 0.00013897 0.000149062 0.000157705 0.000164509 0.000169167 0.000171504 -8.32944e-05 -8.22999e-05 -8.04221e-05 -7.7753e-05 -7.43867e-05 -7.04281e-05 -6.59963e-05 -6.12223e-05 -5.6243e-05 -5.11888e-05 -4.61661e-05 -4.12433e-05 -3.64264e-05 -3.16822e-05 -2.69505e-05 -2.21607e-05 -1.72425e-05 -1.21315e-05 -6.77046e-06 -1.10744e-06 4.90727e-06 1.13234e-05 1.8199e-05 2.55956e-05 3.35796e-05 4.22201e-05 5.15857e-05 6.1738e-05 7.27192e-05 8.4532e-05 9.71101e-05 0.000110292 0.000123787 0.000137201 0.000150052 0.000161815 0.000171953 0.000179973 0.000185482 0.000188249 -9.03869e-05 -8.92365e-05 -8.70601e-05 -8.39623e-05 -8.00528e-05 -7.54573e-05 -7.03227e-05 -6.48177e-05 -5.91266e-05 -5.3434e-05 -4.78953e-05 -4.26049e-05 -3.75572e-05 -3.26841e-05 -2.78856e-05 -2.30579e-05 -1.81077e-05 -1.29571e-05 -7.54297e-06 -1.81257e-06 4.28298e-06 1.07944e-05 1.77855e-05 2.53286e-05 3.35049e-05 4.24049e-05 5.21264e-05 6.27716e-05 7.44358e-05 8.71817e-05 0.000100994 0.000115724 0.000131034 0.000146436 0.000161335 0.000175078 0.000187 0.00019648 0.000203014 0.000206303 -9.79995e-05 -9.66655e-05 -9.41356e-05 -9.05272e-05 -8.59647e-05 -8.05948e-05 -7.45948e-05 -6.81785e-05 -6.15943e-05 -5.51102e-05 -4.89691e-05 -4.33149e-05 -3.81088e-05 -3.3211e-05 -2.84545e-05 -2.36877e-05 -1.87892e-05 -1.36689e-05 -8.26207e-06 -2.52188e-06 3.59177e-06 1.01242e-05 1.71434e-05 2.47321e-05 3.29863e-05 4.20162e-05 5.19503e-05 6.29395e-05 7.51532e-05 8.87548e-05 0.000103834 0.00012029 0.000137709 0.000155457 0.000172785 0.000188887 0.000202942 0.000214176 0.00022195 0.000225868 -0.000106244 -0.000104695 -0.000101749 -9.75353e-05 -9.21906e-05 -8.58791e-05 -7.88065e-05 -7.12343e-05 -6.34921e-05 -5.59761e-05 -4.90965e-05 -4.31165e-05 -3.78959e-05 -3.31458e-05 -2.85886e-05 -2.40098e-05 -1.92598e-05 -1.42412e-05 -8.89624e-06 -3.19497e-06 2.87969e-06 9.35511e-06 1.6305e-05 2.38251e-05 3.20235e-05 4.10244e-05 5.09802e-05 6.20903e-05 7.46188e-05 8.88907e-05 0.000105214 0.00012364 0.000143579 0.000164148 0.000184383 0.000203296 0.000219898 0.000233238 0.000242507 0.000247189 -0.000115254 -0.000113456 -0.000110027 -0.000105103 -9.88306e-05 -9.13828e-05 -8.29829e-05 -7.3929e-05 -6.46352e-05 -5.56798e-05 -4.78056e-05 -4.16405e-05 -3.66996e-05 -3.23809e-05 -2.82438e-05 -2.40096e-05 -1.95123e-05 -1.46605e-05 -9.41536e-06 -3.77876e-06 2.21821e-06 8.55295e-06 1.5324e-05 2.26499e-05 3.06465e-05 3.9437e-05 4.91767e-05 6.0092e-05 7.25392e-05 8.7077e-05 0.000104467 0.000125268 0.000148369 0.00017241 0.000196142 0.000218399 0.000238024 0.000253877 0.000264945 0.000270549 -0.00012519 -0.000123108 -0.000119124 -0.000113382 -0.000106027 -9.7232e-05 -8.72131e-05 -7.62676e-05 -6.48459e-05 -5.37103e-05 -4.42208e-05 -3.83573e-05 -3.43052e-05 -3.08656e-05 -2.74351e-05 -2.37191e-05 -1.95736e-05 -1.49356e-05 -9.79654e-06 -4.20244e-06 1.7283e-06 7.81416e-06 1.42746e-05 2.12746e-05 2.89256e-05 3.73235e-05 4.65847e-05 5.68992e-05 6.8638e-05 8.25842e-05 0.000100356 0.000124454 0.000151823 0.000180229 0.000208159 0.000234347 0.00025752 0.000276344 0.000289561 0.000296277 -0.000136238 -0.000133835 -0.000129226 -0.000122557 -0.000113971 -0.000103625 -9.16968e-05 -7.84129e-05 -6.41026e-05 -4.94274e-05 -3.63496e-05 -3.26069e-05 -3.06514e-05 -2.87039e-05 -2.62837e-05 -2.32385e-05 -1.95168e-05 -1.51098e-05 -1.004e-05 -4.37928e-06 1.65556e-06 7.26338e-06 1.3236e-05 1.97832e-05 2.69741e-05 3.48383e-05 4.33974e-05 5.26941e-05 6.28758e-05 7.45192e-05 9.00455e-05 0.000120314 0.000153918 0.000187817 0.000220677 0.000251378 0.000278632 0.000300923 0.000316691 0.000324742 -0.000148602 -0.000145845 -0.000140541 -0.000132847 -0.000122899 -0.000110835 -9.67806e-05 -8.08324e-05 -6.29728e-05 -4.27942e-05 -1.83961e-05 -2.43315e-05 -2.6264e-05 -2.63007e-05 -2.5054e-05 -2.27418e-05 -1.94629e-05 -1.52743e-05 -1.02119e-05 -4.27809e-06 2.65009e-06 6.97842e-06 1.22418e-05 1.82531e-05 2.49368e-05 3.22233e-05 4.00071e-05 4.80958e-05 5.60814e-05 6.291e-05 6.52079e-05 0.000112886 0.000155503 0.000195823 0.000234134 0.000269811 0.00030164 0.000327918 0.000346693 0.000356345 -0.00016251 -0.000159362 -0.0001533 -0.000144488 -0.000133071 -0.000119175 -0.000102908 -8.4317e-05 -6.33159e-05 -3.95301e-05 -1.20542e-05 -1.92291e-05 -2.29584e-05 -2.43808e-05 -2.41028e-05 -2.24374e-05 -1.95562e-05 -1.55616e-05 -1.05158e-05 -4.44396e-06 2.67897e-06 6.46256e-06 1.1193e-05 1.67308e-05 2.29608e-05 2.97543e-05 3.69273e-05 4.41773e-05 5.09621e-05 5.62592e-05 5.81965e-05 0.000110682 0.000159305 0.00020535 0.000249084 0.000289988 0.00032682 0.000357622 0.000379931 0.00039151 -0.000178202 -0.000174627 -0.000167738 -0.000157721 -0.000144733 -0.00012892 -0.000110402 -8.92576e-05 -6.54902e-05 -3.89982e-05 -9.63503e-06 -1.6639e-05 -2.10456e-05 -2.32642e-05 -2.36579e-05 -2.24824e-05 -1.99105e-05 -1.60616e-05 -1.10206e-05 -4.84972e-06 2.39817e-06 5.78569e-06 1.01115e-05 1.52779e-05 2.11675e-05 2.7633e-05 3.44724e-05 4.13904e-05 4.79444e-05 5.34987e-05 5.73063e-05 0.000112645 0.000165767 0.000216871 0.000265871 0.000312154 0.000354379 0.000390283 0.000416748 0.000430665 -0.000195931 -0.000191887 -0.000184095 -0.000172772 -0.000158104 -0.000140271 -0.000119436 -9.57433e-05 -6.93127e-05 -4.02578e-05 -8.77048e-06 -1.55958e-05 -2.02933e-05 -2.29655e-05 -2.3794e-05 -2.29533e-05 -2.05884e-05 -1.68166e-05 -1.17343e-05 -5.42734e-06 2.01512e-06 5.04691e-06 9.05341e-06 1.39524e-05 1.96331e-05 2.59541e-05 3.27322e-05 3.97288e-05 4.66412e-05 5.3127e-05 5.89228e-05 0.000117277 0.000174513 0.000230394 0.000284598 0.000336419 0.000384431 0.00042607 0.000457442 0.000474229 -0.000215959 -0.000211394 -0.000202607 -0.000189855 -0.000173369 -0.000153375 -0.000130094 -0.000103743 -7.45407e-05 -4.27302e-05 -8.63765e-06 -1.54963e-05 -2.04091e-05 -2.33777e-05 -2.44893e-05 -2.38598e-05 -2.16054e-05 -1.78337e-05 -1.26435e-05 -6.13012e-06 1.60516e-06 4.31022e-06 8.06549e-06 1.27927e-05 1.83896e-05 2.47304e-05 3.16638e-05 3.90132e-05 4.65853e-05 5.42035e-05 6.17802e-05 0.000123638 0.000185076 0.000245737 0.000305212 0.000362774 0.000416985 0.000465057 0.000502243 0.000522595 -0.000238555 -0.000233404 -0.000223505 -0.000209168 -0.000190682 -0.000168335 -0.000142412 -0.0001132 -8.09903e-05 -4.61018e-05 -8.91151e-06 -1.60044e-05 -2.11624e-05 -2.43694e-05 -2.56762e-05 -2.51678e-05 -2.29412e-05 -1.90949e-05 -1.37247e-05 -6.92635e-06 1.1996e-06 3.61167e-06 7.17707e-06 1.18174e-05 1.74378e-05 2.39298e-05 3.11732e-05 3.90414e-05 4.74138e-05 5.61983e-05 6.53658e-05 0.000131189 0.000197072 0.00026267 0.000327579 0.000391127 0.000451959 0.000507204 0.000551286 0.000576121 -0.000264 -0.000258178 -0.000247011 -0.000230886 -0.000210168 -0.000185219 -0.000156397 -0.000124052 -8.85332e-05 -5.02e-05 -9.44536e-06 -1.69293e-05 -2.23866e-05 -2.58168e-05 -2.72676e-05 -2.68154e-05 -2.45494e-05 -2.05621e-05 -1.49451e-05 -7.78888e-06 8.1382e-07 2.9722e-06 6.40555e-06 1.10326e-05 1.67638e-05 2.3505e-05 3.11612e-05 3.96425e-05 4.88734e-05 5.8806e-05 6.94311e-05 0.000139596 0.000210199 0.000280954 0.000351515 0.000421317 0.000489183 0.000552353 0.00060458 0.000635106 -0.000292584 -0.000285974 -0.000273338 -0.000255161 -0.000231914 -0.000204054 -0.000172021 -0.000136228 -9.70656e-05 -5.49145e-05 -1.01617e-05 -1.81511e-05 -2.39547e-05 -2.76046e-05 -2.91654e-05 -2.87205e-05 -2.63611e-05 -2.21784e-05 -1.62596e-05 -8.68747e-06 4.58464e-07 2.40773e-06 5.76479e-06 1.04422e-05 1.63526e-05 2.34123e-05 3.15449e-05 4.06864e-05 5.07907e-05 6.18363e-05 7.38256e-05 0.000148622 0.000224193 0.000300332 0.000376783 0.000453115 0.0005284 0.000600206 0.000661963 0.000699761 -0.000324605 -0.000317051 -0.000302669 -0.000282095 -0.000255944 -0.0002248 -0.000189197 -0.000149614 -0.000106471 -6.01499e-05 -1.10089e-05 -1.95788e-05 -2.57555e-05 -2.96164e-05 -3.12568e-05 -3.0779e-05 -2.82838e-05 -2.38652e-05 -1.76072e-05 -9.58282e-06 1.45403e-07 1.93697e-06 5.27305e-06 1.00563e-05 1.61981e-05 2.36215e-05 3.22638e-05 4.20795e-05 5.30442e-05 6.51564e-05 7.84328e-05 0.00015806 0.000238787 0.000320508 0.000403072 0.000486202 0.000569251 0.000650312 0.000723045 0.000770161 -0.000360372 -0.000351647 -0.000335139 -0.00031171 -0.000282184 -0.000247311 -0.000207744 -0.000164022 -0.000116585 -6.579e-05 -1.19403e-05 -2.11239e-05 -2.76719e-05 -3.17205e-05 -3.34069e-05 -3.28604e-05 -3.01976e-05 -2.55187e-05 -1.89058e-05 -1.04215e-05 -1.08089e-07 1.58722e-06 4.95924e-06 9.89705e-06 1.63083e-05 2.41201e-05 3.328e-05 4.37576e-05 5.55459e-05 6.86622e-05 8.31429e-05 0.000167698 0.000253685 0.000341115 0.000429968 0.000520131 0.000611245 0.000702045 0.000787122 0.000846172 -0.000400194 -0.000389964 -0.000370788 -0.000343886 -0.000310389 -0.000271272 -0.000227321 -0.000179134 -0.000127148 -7.16664e-05 -1.28992e-05 -2.26803e-05 -2.95627e-05 -3.37562e-05 -3.54484e-05 -3.48014e-05 -3.19508e-05 -2.70059e-05 -2.00487e-05 -1.11318e-05 -2.76195e-07 1.39838e-06 4.86626e-06 1.00011e-05 1.67062e-05 2.4912e-05 3.45751e-05 4.56774e-05 5.82276e-05 7.2262e-05 8.78412e-05 0.000177304 0.000268537 0.000361696 0.000456918 0.000554279 0.000653698 0.000754568 0.00085309 0.00092733 -0.000444367 -0.000432108 -0.000409468 -0.000378252 -0.000340044 -0.000296104 -0.000247359 -0.000194444 -0.000137761 -7.75249e-05 -1.38062e-05 -2.41063e-05 -3.12471e-05 -3.55232e-05 -3.71768e-05 -3.6404e-05 -3.33604e-05 -2.81657e-05 -2.09044e-05 -1.16227e-05 -3.22834e-07 1.42361e-06 5.0497e-06 1.04162e-05 1.74248e-05 2.60112e-05 3.61406e-05 4.78065e-05 6.1031e-05 7.58677e-05 9.24032e-05 0.000186615 0.000282935 0.000381689 0.000483207 0.000587795 0.000695656 0.000806784 0.000919321 0.00101267 -0.000493137 -0.000477984 -0.000450676 -0.000414009 -0.000370203 -0.000320841 -0.000266963 -0.00020919 -0.000147839 -8.29933e-05 -1.45448e-05 -2.52118e-05 -3.24971e-05 -3.67816e-05 -3.83565e-05 -3.74464e-05 -3.42245e-05 -2.88212e-05 -2.13271e-05 -1.17899e-05 -2.03256e-07 1.72344e-06 5.56784e-06 1.11881e-05 1.84923e-05 2.74251e-05 3.79622e-05 5.01072e-05 6.38929e-05 7.93853e-05 9.66919e-05 0.000195338 0.000296406 0.000400422 0.000507944 0.000619564 0.000735801 0.00085725 0.000983548 0.00110045 -0.000546593 -0.000527017 -0.000493215 -0.000449624 -0.000399267 -0.000343991 -0.000284835 -0.00022231 -0.000156582 -8.75645e-05 -1.49527e-05 -2.57586e-05 -3.30534e-05 -3.72789e-05 -3.87548e-05 -3.77209e-05 -3.4361e-05 -2.88159e-05 -2.11877e-05 -1.15376e-05 1.26667e-07 2.34695e-06 6.45629e-06 1.23322e-05 1.99017e-05 2.91255e-05 3.99912e-05 5.25113e-05 6.67249e-05 8.27015e-05 0.000100557 0.000203143 0.000308417 0.000417122 0.000530072 0.000648207 0.000772375 0.000904059 0.00104278 0.00118772 -0.000604345 -0.000577493 -0.000534531 -0.000482378 -0.00042474 -0.000363438 -0.000299271 -0.000232493 -0.000163041 -9.06436e-05 -1.48365e-05 -2.55102e-05 -3.26981e-05 -3.68353e-05 -3.82313e-05 -3.71215e-05 -3.3692e-05 -2.80919e-05 -2.04409e-05 -1.08301e-05 6.85048e-07 3.28953e-06 7.67836e-06 1.37817e-05 2.15616e-05 3.1001e-05 4.21009e-05 5.48807e-05 6.93802e-05 8.56615e-05 0.000103827 0.000209665 0.000318379 0.000430939 0.000548406 0.000672119 0.000803196 0.000944652 0.00109339 0.00126962 -0.00066429 -0.000624855 -0.000569596 -0.0005079 -0.000443206 -0.000376653 -0.000308467 -0.000238496 -0.000166408 -9.17727e-05 -1.40758e-05 -2.44043e-05 -3.14506e-05 -3.55364e-05 -3.69185e-05 -3.58109e-05 -3.23948e-05 -2.68268e-05 -1.92469e-05 -9.78864e-06 1.40918e-06 4.41543e-06 9.04401e-06 1.53113e-05 2.32252e-05 3.2793e-05 4.40281e-05 5.69544e-05 7.1608e-05 8.80345e-05 0.000106301 0.000214496 0.000325664 0.000440978 0.000561708 0.000689573 0.000825861 0.00097556 0.00113167 0.00133805 -0.000717151 -0.000657931 -0.000589983 -0.000520765 -0.000451453 -0.000381893 -0.000311621 -0.000240108 -0.000166821 -9.12513e-05 -1.29616e-05 -2.29672e-05 -2.99542e-05 -3.40695e-05 -3.55086e-05 -3.44646e-05 -3.11145e-05 -2.56201e-05 -1.81377e-05 -8.83738e-06 2.05689e-06 5.34428e-06 1.01083e-05 1.64514e-05 2.44183e-05 3.40337e-05 4.53188e-05 5.82991e-05 7.30064e-05 8.94716e-05 0.00010772 0.000217173 0.000329622 0.00044637 0.000568825 0.000698891 0.00083817 0.000992348 0.00115478 0.00137987 0 0 0 0 0 0 0 0 0 0 0 0 0 0 0 0 0 0 0 0 0 0 0 0 0 0 0 0 0 0 0 0 0 0 0 0 0 0 0 0 -4.51995e-06 -4.48558e-06 -4.41855e-06 -4.32085e-06 -4.19437e-06 -4.04084e-06 -3.86184e-06 -3.65885e-06 -3.43317e-06 -3.18594e-06 -2.91812e-06 -2.63103e-06 -2.32457e-06 -1.99898e-06 -1.6543e-06 -1.29037e-06 -9.06862e-07 -5.03377e-07 -7.94951e-08 3.65128e-07 8.3066e-07 1.31679e-06 1.82317e-06 2.34873e-06 2.89174e-06 3.44966e-06 4.01907e-06 4.59557e-06 5.17371e-06 5.74702e-06 6.30806e-06 6.84919e-06 7.36087e-06 7.83389e-06 8.25907e-06 8.6277