# vtk DataFile Version 2.0
Velocidades
ASCII

DATASET STRUCTURED_GRID
DIMENSIONS   40   40   10

POINTS   16000   double
0.0125   0.0125   0.05
0.0125   0.0375   0.05
0.0125   0.0625   0.05
0.0125   0.0875   0.05
0.0125   0.1125   0.05
0.0125   0.1375   0.05
0.0125   0.1625   0.05
0.0125   0.1875   0.05
0.0125   0.2125   0.05
0.0125   0.2375   0.05
0.0125   0.2625   0.05
0.0125   0.2875   0.05
0.0125   0.3125   0.05
0.0125   0.3375   0.05
0.0125   0.3625   0.05
0.0125   0.3875   0.05
0.0125   0.4125   0.05
0.0125   0.4375   0.05
0.0125   0.4625   0.05
0.0125   0.4875   0.05
0.0125   0.5125   0.05
0.0125   0.5375   0.05
0.0125   0.5625   0.05
0.0125   0.5875   0.05
0.0125   0.6125   0.05
0.0125   0.6375   0.05
0.0125   0.6625   0.05
0.0125   0.6875   0.05
0.0125   0.7125   0.05
0.0125   0.7375   0.05
0.0125   0.7625   0.05
0.0125   0.7875   0.05
0.0125   0.8125   0.05
0.0125   0.8375   0.05
0.0125   0.8625   0.05
0.0125   0.8875   0.05
0.0125   0.9125   0.05
0.0125   0.9375   0.05
0.0125   0.9625   0.05
0.0125   0.9875   0.05
0.0375   0.0125   0.05
0.0375   0.0375   0.05
0.0375   0.0625   0.05
0.0375   0.0875   0.05
0.0375   0.1125   0.05
0.0375   0.1375   0.05
0.0375   0.1625   0.05
0.0375   0.1875   0.05
0.0375   0.2125   0.05
0.0375   0.2375   0.05
0.0375   0.2625   0.05
0.0375   0.2875   0.05
0.0375   0.3125   0.05
0.0375   0.3375   0.05
0.0375   0.3625   0.05
0.0375   0.3875   0.05
0.0375   0.4125   0.05
0.0375   0.4375   0.05
0.0375   0.4625   0.05
0.0375   0.4875   0.05
0.0375   0.5125   0.05
0.0375   0.5375   0.05
0.0375   0.5625   0.05
0.0375   0.5875   0.05
0.0375   0.6125   0.05
0.0375   0.6375   0.05
0.0375   0.6625   0.05
0.0375   0.6875   0.05
0.0375   0.7125   0.05
0.0375   0.7375   0.05
0.0375   0.7625   0.05
0.0375   0.7875   0.05
0.0375   0.8125   0.05
0.0375   0.8375   0.05
0.0375   0.8625   0.05
0.0375   0.8875   0.05
0.0375   0.9125   0.05
0.0375   0.9375   0.05
0.0375   0.9625   0.05
0.0375   0.9875   0.05
0.0625   0.0125   0.05
0.0625   0.0375   0.05
0.0625   0.0625   0.05
0.0625   0.0875   0.05
0.0625   0.1125   0.05
0.0625   0.1375   0.05
0.0625   0.1625   0.05
0.0625   0.1875   0.05
0.0625   0.2125   0.05
0.0625   0.2375   0.05
0.0625   0.2625   0.05
0.0625   0.2875   0.05
0.0625   0.3125   0.05
0.0625   0.3375   0.05
0.0625   0.3625   0.05
0.0625   0.3875   0.05
0.0625   0.4125   0.05
0.0625   0.4375   0.05
0.0625   0.4625   0.05
0.0625   0.4875   0.05
0.0625   0.5125   0.05
0.0625   0.5375   0.05
0.0625   0.5625   0.05
0.0625   0.5875   0.05
0.0625   0.6125   0.05
0.0625   0.6375   0.05
0.0625   0.6625   0.05
0.0625   0.6875   0.05
0.0625   0.7125   0.05
0.0625   0.7375   0.05
0.0625   0.7625   0.05
0.0625   0.7875   0.05
0.0625   0.8125   0.05
0.0625   0.8375   0.05
0.0625   0.8625   0.05
0.0625   0.8875   0.05
0.0625   0.9125   0.05
0.0625   0.9375   0.05
0.0625   0.9625   0.05
0.0625   0.9875   0.05
0.0875   0.0125   0.05
0.0875   0.0375   0.05
0.0875   0.0625   0.05
0.0875   0.0875   0.05
0.0875   0.1125   0.05
0.0875   0.1375   0.05
0.0875   0.1625   0.05
0.0875   0.1875   0.05
0.0875   0.2125   0.05
0.0875   0.2375   0.05
0.0875   0.2625   0.05
0.0875   0.2875   0.05
0.0875   0.3125   0.05
0.0875   0.3375   0.05
0.0875   0.3625   0.05
0.0875   0.3875   0.05
0.0875   0.4125   0.05
0.0875   0.4375   0.05
0.0875   0.4625   0.05
0.0875   0.4875   0.05
0.0875   0.5125   0.05
0.0875   0.5375   0.05
0.0875   0.5625   0.05
0.0875   0.5875   0.05
0.0875   0.6125   0.05
0.0875   0.6375   0.05
0.0875   0.6625   0.05
0.0875   0.6875   0.05
0.0875   0.7125   0.05
0.0875   0.7375   0.05
0.0875   0.7625   0.05
0.0875   0.7875   0.05
0.0875   0.8125   0.05
0.0875   0.8375   0.05
0.0875   0.8625   0.05
0.0875   0.8875   0.05
0.0875   0.9125   0.05
0.0875   0.9375   0.05
0.0875   0.9625   0.05
0.0875   0.9875   0.05
0.1125   0.0125   0.05
0.1125   0.0375   0.05
0.1125   0.0625   0.05
0.1125   0.0875   0.05
0.1125   0.1125   0.05
0.1125   0.1375   0.05
0.1125   0.1625   0.05
0.1125   0.1875   0.05
0.1125   0.2125   0.05
0.1125   0.2375   0.05
0.1125   0.2625   0.05
0.1125   0.2875   0.05
0.1125   0.3125   0.05
0.1125   0.3375   0.05
0.1125   0.3625   0.05
0.1125   0.3875   0.05
0.1125   0.4125   0.05
0.1125   0.4375   0.05
0.1125   0.4625   0.05
0.1125   0.4875   0.05
0.1125   0.5125   0.05
0.1125   0.5375   0.05
0.1125   0.5625   0.05
0.1125   0.5875   0.05
0.1125   0.6125   0.05
0.1125   0.6375   0.05
0.1125   0.6625   0.05
0.1125   0.6875   0.05
0.1125   0.7125   0.05
0.1125   0.7375   0.05
0.1125   0.7625   0.05
0.1125   0.7875   0.05
0.1125   0.8125   0.05
0.1125   0.8375   0.05
0.1125   0.8625   0.05
0.1125   0.8875   0.05
0.1125   0.9125   0.05
0.1125   0.9375   0.05
0.1125   0.9625   0.05
0.1125   0.9875   0.05
0.1375   0.0125   0.05
0.1375   0.0375   0.05
0.1375   0.0625   0.05
0.1375   0.0875   0.05
0.1375   0.1125   0.05
0.1375   0.1375   0.05
0.1375   0.1625   0.05
0.1375   0.1875   0.05
0.1375   0.2125   0.05
0.1375   0.2375   0.05
0.1375   0.2625   0.05
0.1375   0.2875   0.05
0.1375   0.3125   0.05
0.1375   0.3375   0.05
0.1375   0.3625   0.05
0.1375   0.3875   0.05
0.1375   0.4125   0.05
0.1375   0.4375   0.05
0.1375   0.4625   0.05
0.1375   0.4875   0.05
0.1375   0.5125   0.05
0.1375   0.5375   0.05
0.1375   0.5625   0.05
0.1375   0.5875   0.05
0.1375   0.6125   0.05
0.1375   0.6375   0.05
0.1375   0.6625   0.05
0.1375   0.6875   0.05
0.1375   0.7125   0.05
0.1375   0.7375   0.05
0.1375   0.7625   0.05
0.1375   0.7875   0.05
0.1375   0.8125   0.05
0.1375   0.8375   0.05
0.1375   0.8625   0.05
0.1375   0.8875   0.05
0.1375   0.9125   0.05
0.1375   0.9375   0.05
0.1375   0.9625   0.05
0.1375   0.9875   0.05
0.1625   0.0125   0.05
0.1625   0.0375   0.05
0.1625   0.0625   0.05
0.1625   0.0875   0.05
0.1625   0.1125   0.05
0.1625   0.1375   0.05
0.1625   0.1625   0.05
0.1625   0.1875   0.05
0.1625   0.2125   0.05
0.1625   0.2375   0.05
0.1625   0.2625   0.05
0.1625   0.2875   0.05
0.1625   0.3125   0.05
0.1625   0.3375   0.05
0.1625   0.3625   0.05
0.1625   0.3875   0.05
0.1625   0.4125   0.05
0.1625   0.4375   0.05
0.1625   0.4625   0.05
0.1625   0.4875   0.05
0.1625   0.5125   0.05
0.1625   0.5375   0.05
0.1625   0.5625   0.05
0.1625   0.5875   0.05
0.1625   0.6125   0.05
0.1625   0.6375   0.05
0.1625   0.6625   0.05
0.1625   0.6875   0.05
0.1625   0.7125   0.05
0.1625   0.7375   0.05
0.1625   0.7625   0.05
0.1625   0.7875   0.05
0.1625   0.8125   0.05
0.1625   0.8375   0.05
0.1625   0.8625   0.05
0.1625   0.8875   0.05
0.1625   0.9125   0.05
0.1625   0.9375   0.05
0.1625   0.9625   0.05
0.1625   0.9875   0.05
0.1875   0.0125   0.05
0.1875   0.0375   0.05
0.1875   0.0625   0.05
0.1875   0.0875   0.05
0.1875   0.1125   0.05
0.1875   0.1375   0.05
0.1875   0.1625   0.05
0.1875   0.1875   0.05
0.1875   0.2125   0.05
0.1875   0.2375   0.05
0.1875   0.2625   0.05
0.1875   0.2875   0.05
0.1875   0.3125   0.05
0.1875   0.3375   0.05
0.1875   0.3625   0.05
0.1875   0.3875   0.05
0.1875   0.4125   0.05
0.1875   0.4375   0.05
0.1875   0.4625   0.05
0.1875   0.4875   0.05
0.1875   0.5125   0.05
0.1875   0.5375   0.05
0.1875   0.5625   0.05
0.1875   0.5875   0.05
0.1875   0.6125   0.05
0.1875   0.6375   0.05
0.1875   0.6625   0.05
0.1875   0.6875   0.05
0.1875   0.7125   0.05
0.1875   0.7375   0.05
0.1875   0.7625   0.05
0.1875   0.7875   0.05
0.1875   0.8125   0.05
0.1875   0.8375   0.05
0.1875   0.8625   0.05
0.1875   0.8875   0.05
0.1875   0.9125   0.05
0.1875   0.9375   0.05
0.1875   0.9625   0.05
0.1875   0.9875   0.05
0.2125   0.0125   0.05
0.2125   0.0375   0.05
0.2125   0.0625   0.05
0.2125   0.0875   0.05
0.2125   0.1125   0.05
0.2125   0.1375   0.05
0.2125   0.1625   0.05
0.2125   0.1875   0.05
0.2125   0.2125   0.05
0.2125   0.2375   0.05
0.2125   0.2625   0.05
0.2125   0.2875   0.05
0.2125   0.3125   0.05
0.2125   0.3375   0.05
0.2125   0.3625   0.05
0.2125   0.3875   0.05
0.2125   0.4125   0.05
0.2125   0.4375   0.05
0.2125   0.4625   0.05
0.2125   0.4875   0.05
0.2125   0.5125   0.05
0.2125   0.5375   0.05
0.2125   0.5625   0.05
0.2125   0.5875   0.05
0.2125   0.6125   0.05
0.2125   0.6375   0.05
0.2125   0.6625   0.05
0.2125   0.6875   0.05
0.2125   0.7125   0.05
0.2125   0.7375   0.05
0.2125   0.7625   0.05
0.2125   0.7875   0.05
0.2125   0.8125   0.05
0.2125   0.8375   0.05
0.2125   0.8625   0.05
0.2125   0.8875   0.05
0.2125   0.9125   0.05
0.2125   0.9375   0.05
0.2125   0.9625   0.05
0.2125   0.9875   0.05
0.2375   0.0125   0.05
0.2375   0.0375   0.05
0.2375   0.0625   0.05
0.2375   0.0875   0.05
0.2375   0.1125   0.05
0.2375   0.1375   0.05
0.2375   0.1625   0.05
0.2375   0.1875   0.05
0.2375   0.2125   0.05
0.2375   0.2375   0.05
0.2375   0.2625   0.05
0.2375   0.2875   0.05
0.2375   0.3125   0.05
0.2375   0.3375   0.05
0.2375   0.3625   0.05
0.2375   0.3875   0.05
0.2375   0.4125   0.05
0.2375   0.4375   0.05
0.2375   0.4625   0.05
0.2375   0.4875   0.05
0.2375   0.5125   0.05
0.2375   0.5375   0.05
0.2375   0.5625   0.05
0.2375   0.5875   0.05
0.2375   0.6125   0.05
0.2375   0.6375   0.05
0.2375   0.6625   0.05
0.2375   0.6875   0.05
0.2375   0.7125   0.05
0.2375   0.7375   0.05
0.2375   0.7625   0.05
0.2375   0.7875   0.05
0.2375   0.8125   0.05
0.2375   0.8375   0.05
0.2375   0.8625   0.05
0.2375   0.8875   0.05
0.2375   0.9125   0.05
0.2375   0.9375   0.05
0.2375   0.9625   0.05
0.2375   0.9875   0.05
0.2625   0.0125   0.05
0.2625   0.0375   0.05
0.2625   0.0625   0.05
0.2625   0.0875   0.05
0.2625   0.1125   0.05
0.2625   0.1375   0.05
0.2625   0.1625   0.05
0.2625   0.1875   0.05
0.2625   0.2125   0.05
0.2625   0.2375   0.05
0.2625   0.2625   0.05
0.2625   0.2875   0.05
0.2625   0.3125   0.05
0.2625   0.3375   0.05
0.2625   0.3625   0.05
0.2625   0.3875   0.05
0.2625   0.4125   0.05
0.2625   0.4375   0.05
0.2625   0.4625   0.05
0.2625   0.4875   0.05
0.2625   0.5125   0.05
0.2625   0.5375   0.05
0.2625   0.5625   0.05
0.2625   0.5875   0.05
0.2625   0.6125   0.05
0.2625   0.6375   0.05
0.2625   0.6625   0.05
0.2625   0.6875   0.05
0.2625   0.7125   0.05
[...]
POINT_DATA   16000
VECTORS Velocidades double

0 0.320977 0
0 0.733344 0
0 0.857554 0
0 0.905338 0
0 0.928546 0
0 0.941942 0
0 0.950588 0
0 0.956575 0
0 0.960913 0
0 0.964155 0
0 0.966626 0
0 0.968531 0
0 0.970006 0
0 0.971144 0
0 0.972007 0
0 0.972641 0
0 0.973079 0
0 0.973341 0
0 0.973443 0
0 0.973392 0
0 0.973191 0
0 0.972838 0
0 0.972326 0
0 0.97164 0
0 0.970763 0
0 0.969666 0
0 0.96831 0
0 0.966644 0
0 0.964594 0
0 0.962058 0
0 0.958887 0
0 0.954859 0
0 0.949626 0
0 0.942604 0
0 0.932732 0
0 0.917825 0
0 0.892646 0
0 0.84217 0
0 0.71519 0
0 0.311296 0
0 0.186969 0
0 0.48075 0
0 0.646396 0
0 0.739387 0
0 0.794816 0
0 0.83021 0
0 0.854195 0
0 0.871223 0
0 0.883738 0
0 0.893169 0
0 0.900398 0
0 0.905995 0
0 0.91034 0
0 0.913696 0
0 0.916248 0
0 0.918125 0
0 0.91942 0
0 0.920196 0
0 0.920497 0
0 0.920345 0
0 0.919748 0
0 0.9187 0
0 0.91718 0
0 0.915149 0
0 0.91255 0
0 0.909303 0
0 0.905299 0
0 0.900385 0
0 0.894355 0
0 0.88692 0
0 0.877664 0
0 0.865983 0
0 0.85095 0
0 0.831091 0
0 0.803925 0
0 0.765022 0
0 0.706002 0
0 0.61042 0
0 0.447018 0
0 0.17164 0
0 0.126771 0
0 0.346652 0
0 0.502824 0
0 0.608204 0
0 0.679492 0
0 0.72888 0
0 0.764115 0
0 0.789958 0
0 0.80936 0
0 0.824191 0
0 0.835673 0
0 0.844625 0
0 0.851612 0
0 0.857029 0
0 0.861158 0
0 0.864202 0
0 0.866303 0
0 0.867564 0
0 0.86805 0
0 0.867798 0
0 0.866823 0
0 0.865113 0
0 0.862634 0
0 0.859328 0
0 0.855105 0
0 0.849841 0
0 0.843366 0
0 0.835449 0
0 0.825778 0
0 0.813924 0
0 0.79929 0
0 0.781026 0
0 0.757894 0
0 0.728042 0
0 0.68863 0
0 0.635225 0
0 0.560931 0
0 0.455584 0
0 0.306913 0
0 0.110086 0
0 0.0948022 0
0 0.267399 0
0 0.404474 0
0 0.507628 0
0 0.583853 0
0 0.640265 0
0 0.68247 0
0 0.714489 0
0 0.739111 0
0 0.758262 0
0 0.773275 0
0 0.78509 0
0 0.794375 0
0 0.801611 0
0 0.807148 0
0 0.811239 0
0 0.814069 0
0 0.815767 0
0 0.816417 0
0 0.81607 0
0 0.814742 0
0 0.812421 0
0 0.809063 0
0 0.804594 0
0 0.798898 0
0 0.79182 0
0 0.783148 0
0 0.772596 0
0 0.759788 0
0 0.744217 0
0 0.725199 0
0 0.701799 0
0 0.672727 0
0 0.636189 0
0 0.58969 0
0 0.529826 0
0 0.452214 0
0 0.352011 0
0 0.226077 0
0 0.0782476 0
0 0.0753764 0
0 0.216059 0
0 0.334748 0
0 0.430373 0
0 0.505575 0
0 0.564183 0
0 0.609857 0
0 0.645615 0
0 0.673779 0
0 0.696085 0
0 0.713815 0
0 0.727916 0
0 0.739087 0
0 0.747846 0
0 0.754578 0
0 0.759568 0
0 0.763026 0
0 0.7651 0
0 0.765889 0
0 0.76545 0
0 0.763806 0
0 0.76094 0
0 0.756805 0
0 0.751314 0
0 0.744339 0
0 0.735704 0
0 0.725172 0
0 0.712436 0
0 0.697091 0
0 0.678613 0
0 0.656317 0
0 0.62931 0
0 0.596429 0
0 0.556179 0
0 0.50668 0
0 0.445707 0
0 0.370931 0
0 0.280641 0
0 0.175242 0
0 0.0595045 0
0 0.0623259 0
0 0.180249 0
0 0.283306 0
0 0.37009 0
0 0.441426 0
0 0.499278 0
0 0.545914 0
0 0.583448 0
0 0.613676 0
0 0.638044 0
0 0.657685 0
0 0.673478 0
0 0.686096 0
0 0.696056 0
0 0.703749 0
0 0.709471 0
0 0.713444 0
0 0.715826 0
0 0.716724 0
0 0.7162 0
0 0.71428 0
0 0.710948 0
0 0.706153 0
0 0.699804 0
0 0.691767 0
0 0.68186 0
0 0.669843 0
0 0.655405 0
0 0.638153 0
0 0.617589 0
0 0.593088 0
0 0.563877 0
0 0.529009 0
0 0.487361 0
0 0.437672 0
0 0.37867 0
0 0.309369 0
0 0.229619 0
0 0.140934 0
0 0.0473409 0
0 0.0528954 0
0 0.153785 0
0 0.243907 0
0 0.322074 0
0 0.388402 0
0 0.443859 0
0 0.489805 0
0 0.527669 0
0 0.558774 0
0 0.584262 0
0 0.605084 0
0 0.622007 0
0 0.635646 0
0 0.646483 0
0 0.654897 0
0 0.661179 0
0 0.665549 0
0 0.668167 0
0 0.669143 0
0 0.668542 0
0 0.666391 0
0 0.662676 0
0 0.657346 0
0 0.650313 0
0 0.641443 0
0 0.63056 0
0 0.617434 0
0 0.601774 0
0 0.583219 0
0 0.561329 0
0 0.535576 0
0 0.505335 0
0 0.469895 0
0 0.428485 0
0 0.380346 0
0 0.324871 0
0 0.261848 0
0 0.191808 0
0 0.116439 0
0 0.0388592 0
0 0.045708 0
0 0.133334 0
0 0.212735 0
0 0.283021 0
0 0.344058 0
0 0.3963 0
0 0.440545 0
0 0.477737 0
0 0.508823 0
0 0.534674 0
0 0.556055 0
0 0.573612 0
0 0.587879 0
0 0.599291 0
0 0.608197 0
0 0.61487 0
0 0.61952 0
0 0.622303 0
0 0.623328 0
0 0.622659 0
0 0.620324 0
0 0.616311 0
0 0.610574 0
0 0.603029 0
0 0.593553 0
0 0.581982 0
0 0.568106 0
0 0.551668 0
0 0.532355 0
0 0.5098 0
0 0.483579 0
0 0.453224 0
0 0.418235 0
0 0.378132 0
0 0.332521 0
0 0.281216 0
0 0.224409 0
0 0.162873 0
0 0.0981519 0
0 0.0326203 0
0 0.0400085 0
0 0.116969 0
0 0.18739 0
0 0.250635 0
0 0.306508 0
0 0.355199 0
0 0.397172 0
0 0.433038 0
0 0.463463 0
0 0.489096 0
0 0.510534 0
0 0.528305 0
0 0.54286 0
0 0.554576 0
0 0.563763 0
0 0.570671 0
0 0.575493 0
0 0.578375 0
0 0.579421 0
0 0.578693 0
0 0.57622 0
0 0.571994 0
0 0.565973 0
0 0.558082 0
0 0.548212 0
0 0.536218 0
0 0.521919 0
0 0.505095 0
0 0.48549 0
0 0.462811 0
0 0.43674 0
0 0.406943 0
0 0.373101 0
0 0.334949 0
0 0.292341 0
0 0.24534 0
0 0.194325 0
0 0.140106 0
0 0.0840046 0
0 0.0278406 0
0 0.0353504 0
0 0.103512 0
0 0.166315 0
0 0.223317 0
0 0.274327 0
0 0.319407 0
0 0.358821 0
0 0.392961 0
0 0.422287 0
0 0.447275 0
0 0.468383 0
0 0.48603 0
0 0.500587 0
0 0.512375 0
0 0.52166 0
0 0.528663 0
0 0.533559 0
0 0.53648 0
0 0.537523 0
0 0.536748 0
0 0.534181 0
0 0.52982 0
0 0.523629 0
0 0.515545 0
0 0.505474 0
0 0.493294 0
0 0.478855 0
0 0.461977 0
0 0.44246 0
0 0.420084 0
0 0.394621 0
0 0.365853 0
0 0.333598 0
0 0.297745 0
0 0.258306 0
0 0.215478 0
0 0.16971 0
0 0.121765 0
0 0.0727428 0
0 0.024061 0
0 0.0314535 0
0 0.0922052 0
0 0.148465 0
0 0.19993 0
0 0.246441 0
0 0.288 0
0 0.32475 0
0 0.356941 0
0 0.384888 0
0 0.408933 0
0 0.429422 0
0 0.446682 0
0 0.461013 0
0 0.472679 0
0 0.481907 0
0 0.488887 0
0 0.493772 0
0 0.496681 0
0 0.497702 0
0 0.496889 0
0 0.49427 0
0 0.489845 0
0 0.483587 0
0 0.475445 0
0 0.465342 0
0 0.453178 0
0 0.438835 0
0 0.422175 0
0 0.403046 0
0 0.381292 0
0 0.356764 0
0 0.329333 0
0 0.298919 0
0 0.265514 0
0 0.229227 0
0 0.190318 0
0 0.149245 0
0 0.10669 0
0 0.0635671 0
0 0.0209961 0
0 0.0281328 0
0 0.0825398 0
0 0.133115 0
0 0.179659 0
0 0.222043 0
0 0.260245 0
0 0.294339 0
0 0.32448 0
0 0.35088 0
0 0.373784 0
0 0.393449 0
0 0.410126 0
0 0.424054 0
0 0.435445 0
0 0.44449 0
0 0.451349 0
0 0.456153 0
0 0.459008 0
0 0.45999 0
0 0.45915 0
0 0.456516 0
0 0.452091 0
0 0.445856 0
0 0.437771 0
0 0.427777 0
0 0.415798 0
0 0.401743 0
0 0.385511 0
0 0.366996 0
0 0.346096 0
0 0.322721 0
0 0.296813 0
0 0.268362 0
0 0.23743 0
0 0.204175 0
0 0.168883 0
0 0.131989 0
0 0.09409 0
0 0.0559472 0
0 0.0184597 0
0 0.0252614 0
0 0.0741628 0
0 0.119753 0
0 0.161902 0
0 0.200516 0
0 0.235562 0
0 0.267072 0
0 0.295141 0
0 0.319911 0
0 0.341554 0
0 0.360257 0
0 0.376213 0
0 0.389604 0
0 0.400605 0
0 0.409368 0
0 0.416027 0
0 0.420694 0
0 0.42346 0
0 0.424392 0
0 0.423536 0
0 0.420919 0
0 0.416548 0
0 0.410411 0
0 0.40248 0
0 0.392712 0
0 0.381051 0
0 0.367434 0
0 0.35179 0
0 0.334052 0
0 0.31416 0
0 0.292074 0
0 0.267785 0
0 0.241331 0
0 0.212815 0
0 0.182422 0
0 0.150436 0
0 0.117259 0
0 0.0834077 0
0 0.0495186 0
0 0.0163254 0
0 0.0227494 0
0 0.0668209 0
0 0.108001 0
0 0.146212 0
0 0.181385 0
0 0.213485 0
0 0.242523 0
0 0.268554 0
0 0.291669 0
0 0.311987 0
0 0.329644 0
0 0.344783 0
0 0.357546 0
0 0.368069 0
0 0.376476 0
0 0.382877 0
0 0.387364 0
0 0.390015 0
0 0.390888 0
0 0.390026 0
0 0.387454 0
0 0.383182 0
0 0.377205 0
0 0.369506 0
0 0.360055 0
0 0.348816 0
0 0.335747 0
0 0.320806 0
0 0.303955 0
0 0.28517 0
0 0.264444 0
0 0.241806 0
0 0.217324 0
0 0.191123 0
0 0.163398 0
0 0.134421 0
0 0.104552 0
0 0.0742415 0
0 0.0440234 0
0 0.0145046 0
0 0.0205308 0
0 0.0603278 0
0 0.0975804 0
0 0.132247 0
0 0.164279 0
0 0.193645 0
0 0.220342 0
0 0.244399 0
0 0.265873 0
0 0.284846 0
0 0.301412 0
0 0.315679 0
0 0.327753 0
0 0.337739 0
0 0.345738 0
0 0.351836 0
0 0.356111 0
0 0.358629 0
0 0.359439 0
0 0.35858 0
0 0.356076 0
0 0.351939 0
0 0.346171 0
0 0.338763 0
0 0.3297 0
0 0.318958 0
0 0.306518 0
0 0.292356 0
0 0.276461 0
0 0.258833 0
0 0.239494 0
0 0.218493 0
0 0.195919 0
0 0.171909 0
0 0.146653 0
0 0.120406 0
0 0.0934909 0
0 0.0662959 0
0 0.0392741 0
0 0.0129334 0
0 0.0185563 0
0 0.054543 0
0 0.0882768 0
0 0.119742 0
0 0.148905 0
0 0.175739 0
0 0.200236 0
0 0.222405 0
0 0.242281 0
0 0.259917 0
0 0.27538 0
0 0.288746 0
0 0.300095 0
0 0.309508 0
0 0.317062 0
0 0.322829 0
0 0.326872 0
0 0.329243 0
0 0.329988 0
0 0.32914 0
0 0.326723 0
0 0.32275 0
0 0.317228 0
0 0.310156 0
0 0.301529 0
0 0.291339 0
0 0.279578 0
0 0.266243 0
0 0.251339 0
0 0.234887 0
0 0.216925 0
0 0.197519 0
0 0.176768 0
0 0.15481 0
0 0.131829 0
0 0.10806 0
0 0.0837869 0
0 0.0593487 0
0 0.0351314 0
0 0.0115646 0
0 0.0167881 0
0 0.049358 0
0 0.0799241 0
0 0.108488 0
0 0.135029 0
0 0.159524 0
0 0.181961 0
0 0.202339 0
0 0.220677 0
0 0.237008 0
0 0.251376 0
0 0.263835 0
0 0.274444 0
0 0.283264 0
0 0.290354 0
0 0.295772 0
0 0.299569 0
0 0.301788 0
0 0.302468 0
0 0.301637 0
0 0.29932 0
0 0.295532 0
0 0.290284 0
0 0.283579 0
0 0.275423 0
0 0.265817 0
0 0.254765 0
0 0.242279 0
0 0.228376 0
0 0.213092 0
0 0.196475 0
0 0.178602 0
0 0.159576 0
0 0.139531 0
0 0.118641 0
0 0.0971181 0
0 0.0752166 0
0 0.0532298 0
0 0.0314896 0
0 0.0103624 0
0 0.0151966 0
0 0.0446878 0
0 0.0723907 0
0 0.0983183 0
0 0.122459 0
0 0.144796 0
0 0.165312 0
0 0.184002 0
0 0.200873 0
0 0.215943 0
0 0.229241 0
0 0.240803 0
0 0.250673 0
0 0.258894 0
0 0.265514 0
0 0.270575 0
0 0.274119 0
0 0.276183 0
0 0.276798 0
0 0.275992 0
0 0.273787 0
0 0.270198 0
0 0.26524 0
0 0.258923 0
0 0.251257 0
0 0.242252 0
0 0.231923 0
0 0.220288 0
0 0.207378 0
0 0.193235 0
0 0.177917 0
0 0.161503 0
0 0.144096 0
0 0.125826 0
0 0.106854 0
0 0.0873719 0
0 0.067604 0
0 0.0478068 0
0 0.0282669 0
0 0.00929945 0
0 0.0137581 0
0 0.0404644 0
0 0.0655704 0
0 0.0890972 0
0 0.11104 0
0 0.131384 0
0 0.150114 0
0 0.16722 0
0 0.182701 0
0 0.196566 0
0 0.20883 0
0 0.219518 0
0 0.22866 0
0 0.236288 0
0 0.242437 0
0 0.247141 0
0 0.250432 0
0 0.252341 0
0 0.252895 0
0 0.252119 0
0 0.250032 0
0 0.246652 0
0 0.241995 0
0 0.236076 0
0 0.228909 0
0 0.22051 0
0 0.210901 0
0 0.200108 0
0 0.188168 0
0 0.175128 0
0 0.16105 0
0 0.146014 0
0 0.130122 0
0 0.113494 0
0 0.0962802 0
0 0.0786521 0
0 0.060809 0
0 0.042975 0
0 0.0253992 0
0 0.00835419 0
0 0.0124534 0
0 0.0366322 0
0 0.0593766 0
0 0.0807124 0
0 0.10064 0
0 0.119147 0
0 0.136218 0
0 0.151843 0
0 0.166014 0
0 0.178733 0
0 0.190007 0
0 0.199852 0
0 0.208287 0
0 0.215335 0
0 0.221022 0
0 0.225373 0
0 0.228415 0
0 0.230173 0
0 0.230669 0
0 0.229926 0
0 0.227962 0
0 0.224796 0
0 0.220445 0
0 0.214926 0
0 0.208257 0
0 0.20046 0
0 0.191559 0
0 0.181587 0
0 0.170583 0
0 0.158599 0
0 0.145698 0
0 0.131958 0
0 0.117475 0
0 0.102365 0
0 0.086762 0
0 0.0708208 0
0 0.054718 0
0 0.0386504 0
0 0.0228352 0
0 0.00750948 0
0 0.0112668 0
0 0.0331455 0
0 0.0537369 0
0 0.0730698 0
0 0.0911475 0
0 0.107961 0
0 0.123495 0
0 0.137737 0
0 0.150679 0
0 0.162315 0
0 0.172648 0
0 0.181686 0
0 0.189441 0
0 0.195928 0
0 0.201166 0
0 0.205175 0
0 0.207974 0
0 0.209586 0
0 0.210028 0
0 0.209321 0
0 0.207483 0
0 0.204532 0
0 0.200486 0
0 0.195363 0
0 0.189186 0
0 0.181977 0
0 0.173765 0
0 0.164585 0
0 0.154479 0
0 0.143498 0
0 0.131706 0
0 0.119179 0
0 0.106007 0
0 0.0922961 0
0 0.0781686 0
0 0.0637639 0
0 0.0492382 0
0 0.0347647 0
0 0.0205333 0
0 0.00675149 0
0 0.0101849 0
0 0.0299656 0
0 0.0485906 0
0 0.0660897 0
0 0.0824686 0
0 0.0977198 0
0 0.11183 0
0 0.124786 0
0 0.136577 0
0 0.147195 0
0 0.156638 0
0 0.164909 0
0 0.172014 0
0 0.177963 0
0 0.182769 0
0 0.186448 0
0 0.189014 0
0 0.190485 0
0 0.190878 0
0 0.19021 0
0 0.188498 0
0 0.18576 0
0 0.182014 0
0 0.17728 0
0 0.171582 0
0 0.164943 0
0 0.157395 0
0 0.148974 0
0 0.139721 0
0 0.129689 0
0 0.118939 0
0 0.107544 0
0 0.0955863 0
0 0.0831647 0
0 0.0703898 0
0 0.0573862 0
0 0.0442925 0
0 0.0312613 0
0 0.0184595 0
0 0.00606883 0
0 0.00919657 0
0 0.0270598 0
0 0.0438854 0
0 0.0597034 0
0 0.0745208 0
0 0.0883318 0
0 0.101124 0
0 0.112885 0
0 0.123601 0
0 0.133265 0
0 0.141869 0
0 0.149415 0
0 0.155903 0
0 0.16134 0
0 0.165734 0
0 0.169097 0
0 0.17144 0
0 0.172779 0
0 0.173126 0
0 0.172498 0
0 0.170911 0
0 0.168382 0
0 0.164929 0
0 0.160572 0
0 0.155336 0
0 0.149246 0
0 0.142333 0
0 0.134634 0
0 0.126189 0
0 0.117051 0
0 0.107276 0
0 0.0969333 0
0 0.0861005 0
0 0.0748667 0
0 0.0633317 0
0 0.0516072 0
0 0.0398162 0
0 0.0280933 0
0 0.0165853 0
0 0.00545208 0
0 0.00829193 0
0 0.0243996 0
0 0.0395762 0
0 0.0538511 0
0 0.0672321 0
0 0.0797146 0
0 0.0912877 0
0 0.101938 0
0 0.111654 0
0 0.120424 0
0 0.128242 0
0 0.135104 0
0 0.141009 0
0 0.145961 0
0 0.149964 0
0 0.153027 0
0 0.15516 0
0 0.156373 0
0 0.156679 0
0 0.156092 0
0 0.154627 0
0 0.152301 0
0 0.149131 0
0 0.145139 0
0 0.140346 0
0 0.13478 0
0 0.128472 0
0 0.121455 0
0 0.113773 0
0 0.105472 0
0 0.0966078 0
0 0.0872437 0
0 0.0774511 0
0 0.0673111 0
0 0.0569137 0
0 0.0463583 0
0 0.0357544 0
0 0.0252207 0
0 0.0148868 0
0 0.00489328 0
0 0.00746252 0
0 0.0219602 0
0 0.0356234 0
0 0.0484801 0
0 0.0605386 0
0 0.0717953 0
0 0.0822402 0
0 0.091861 0
0 0.100645 0
0 0.108582 0
0 0.115663 0
0 0.121883 0
0 0.12724 0
0 0.131734 0
0 0.135368 0
0 0.138148 0
0 0.140081 0
0 0.141176 0
0 0.141445 0
0 0.1409 0
0 0.139554 0
0 0.137424 0
0 0.134527 0
0 0.130882 0
0 0.126513 0
0 0.121445 0
0 0.115709 0
0 0.109337 0
0 0.102371 0
0 0.0948537 0
0 0.086838 0
0 0.078382 0
0 0.0695512 0
0 0.0604187 0
0 0.0510654 0
0 0.0415802 0
0 0.0320598 0
0 0.0226096 0
0 0.0133435 0
0 0.00438566 0
0 0.0067008 0
0 0.0197196 0
0 0.0319916 0
0 0.0435432 0
0 0.0543829 0
0 0.0645078 0
0 0.0739088 0
0 0.0825744 0
0 0.0904926 0
0 0.0976524 0
0 0.104045 0
0 0.109664 0
0 0.114506 0
0 0.118569 0
0 0.121856 0
0 0.124369 0
0 0.126115 0
0 0.127101 0
0 0.127336 0
0 0.126832 0
0 0.125602 0
0 0.12366 0
0 0.121023 0
0 0.11771 0
0 0.113743 0
0 0.109147 0
0 0.10395 0
0 0.0981853 0
0 0.0918895 0
0 0.0851048 0
0 0.0778789 0
0 0.0702652 0
0 0.0623234 0
0 0.0541193 0
0 0.0457255 0
0 0.037221 0
0 0.0286916 0
0 0.0202303 0
0 0.0119378 0
0 0.00392338 0
0 0.00600003 0
0 0.017658 0
0 0.0286491 0
0 0.0389982 0
0 0.0487133 0
0 0.0577922 0
0 0.0662269 0
0 0.0740065 0
0 0.0811196 0
0 0.0875557 0
0 0.0933056 0
0 0.0983625 0
0 0.102722 0
0 0.106382 0
0 0.109342 0
0 0.111605 0
0 0.113175 0
0 0.114058 0
0 0.114264 0
0 0.113801 0
0 0.112682 0
0 0.110919 0
0 0.10853 0
0 0.105532 0
0 0.101946 0
0 0.0977955 0
0 0.0931071 0
0 0.0879116 0
0 0.0822436 0
0 0.0761421 0
0 0.0696507 0
0 0.0628182 0
0 0.0556985 0
0 0.0483507 0
0 0.0408395 0
0 0.0332352 0
0 0.0256137 0
0 0.0180572 0
0 0.0106542 0
0 0.00350133 0
0 0.0053541 0
0 0.0157575 0
0 0.0255674 0
0 0.0348064 0
0 0.0434824 0
0 0.0515936 0
0 0.0591328 0
0 0.0660901 0
0 0.0724549 0
0 0.0782168 0
0 0.0833671 0
0 0.0878987 0
0 0.0918067 0
0 0.0950881 0
0 0.0977423 0
0 0.0997707 0
0 0.101177 0
0 0.101965 0
0 0.102144 0
0 0.101721 0
0 0.100708 0
0 0.0991177 0
0 0.096964 0
0 0.0942641 0
0 0.0910376 0
0 0.0873065 0
0 0.0830959 0
0 0.0784342 0
0 0.0733533 0
0 0.0678889 0
0 0.0620807 0
0 0.055973 0
0 0.049614 0
0 0.0430567 0
0 0.0363586 0
0 0.0295821 0
0 0.0227942 0
0 0.0160672 0
0 0.0094792 0
0 0.00311503 0
0 0.00475744 0
0 0.0140019 0
0 0.02272 0
0 0.0309325 0
0 0.0386467 0
0 0.0458612 0
0 0.0525696 0
0 0.0587629 0
0 0.0644313 0
0 0.0695651 0
0 0.0741559 0
0 0.0781967 0
0 0.0816824 0
0 0.0846098 0
0 0.0869776 0
0 0.0887864 0
0 0.0900389 0
0 0.0907394 0
0 0.0908941 0
0 0.090511 0
0 0.0895997 0
0 0.0881719 0
0 0.0862412 0
0 0.0838233 0
0 0.080936 0
0 0.0775999 0
0 0.073838 0
0 0.0696764 0
0 0.0651443 0
0 0.0602742 0
0 0.0551019 0
0 0.049667 0
0 0.0440129 0
0 0.0381866 0
0 0.0322391 0
0 0.0262255 0
0 0.0202046 0
0 0.0142401 0
0 0.00840059 0
0 0.00276047 0
0 0.0042049 0
0 0.012376 0
0 0.0200826 0
0 0.0273436 0
0 0.0341656 0
0 0.0405475 0
0 0.0464837 0
0 0.0519661 0
0 0.0569857 0
0 0.0615336 0
0 0.0656019 0
0 0.0691839 0
0 0.0722745 0
0 0.0748704 0
0 0.07697 0
0 0.0785734 0
0 0.0796825 0
0 0.0803011 0
0 0.0804345 0
0 0.0800897 0
0 0.0792755 0
0 0.0780024 0
0 0.0762829 0
0 0.0741312 0
0 0.0715637 0
0 0.0685992 0
0 0.0652588 0
0 0.0615661 0
0 0.0575474 0
0 0.0532319 0
0 0.048652 0
0 0.0438429 0
0 0.0388431 0
0 0.0336941 0
0 0.028441 0
0 0.0231321 0
0 0.017819 0
0 0.0125575 0
0 0.00740744 0
0 0.00243403 0
0 0.00369171 0
0 0.0108657 0
0 0.0176326 0
0 0.024009 0
0 0.0300012 0
0 0.0356081 0
0 0.0408249 0
0 0.0456444 0
0 0.0500583 0
0 0.0540588 0
0 0.0576384 0
0 0.0607908 0
0 0.0635113 0
0 0.0657965 0
0 0.0676447 0
0 0.0690556 0
0 0.0700307 0
0 0.0705732 0
0 0.0706875 0
0 0.07038 0
0 0.0696584 0
0 0.0685321 0
0 0.0670125 0
0 0.0651123 0
0 0.0628465 0
0 0.060232 0
0 0.0572877 0
0 0.0540348 0
0 0.050497 0
0 0.0467003 0
0 0.0426734 0
0 0.0384474 0
0 0.0340563 0
0 0.0295366 0
0 0.0249277 0
0 0.0202717 0
0 0.0156139 0
0 0.0110025 0
0 0.0064898 0
0 0.00213244 0
0 0.00321337 0
0 0.00945799 0
0 0.0153486 0
0 0.0209001 0
0 0.0261178 0
0 0.0310011 0
0 0.0355456 0
0 0.0397451 0
0 0.0435922 0
0 0.0470797 0
0 0.0502011 0
0 0.0529506 0
0 0.0553237 0
0 0.0573172 0
0 0.0589293 0
0 0.0601596 0
0 0.0610092 0
0 0.0614807 0
0 0.061578 0
0 0.0613066 0
0 0.0606733 0
0 0.0596865 0
0 0.0583563 0
0 0.0566941 0
0 0.0547132 0
0 0.0524286 0
0 0.0498573 0
0 0.047018 0
0 0.0439316 0
0 0.0406211 0
0 0.0371117 0
0 0.0334307 0
0 0.0296076 0
0 0.0256744 0
0 0.0216652 0
0 0.0176165 0
0 0.0135675 0
0 0.00955976 0
0 0.00563851 0
0 0.00185267 0
0 0.00276565 0
0 0.00814031 0
0 0.0132106 0
0 0.0179894 0
0 0.0224816 0
0 0.0266865 0
0 0.0306005 0
0 0.0342179 0
0 0.0375326 0
0 0.0405382 0
0 0.0432286 0
0 0.0455989 0
0 0.047645 0
0 0.0493638 0
0 0.0507536 0
0 0.0518139 0
0 0.0525456 0
0 0.0529508 0
0 0.0530328 0
0 0.0527964 0
0 0.0522475 0
0 0.0513935 0
0 0.0502431 0
0 0.0488064 0
0 0.0470952 0
0 0.0451225 0
0 0.0429032 0
0 0.0404538 0
0 0.0377925 0
0 0.0349392 0
0 0.0319158 0
0 0.0287459 0
0 0.025455 0
0 0.0220706 0
0 0.018622 0
0 0.0151405 0
0 0.0116596 0
0 0.00821494 0
0 0.00484511 0
0 0.00159194 0
0 0.00234452 0
0 0.00690084 0
0 0.0111993 0
0 0.0152511 0
0 0.0190602 0
0 0.0226262 0
0 0.025946 0
0 0.0290149 0
0 0.0318273 0
0 0.0343779 0
0 0.0366614 0
0 0.0386735 0
0 0.0404104 0
0 0.0418695 0
0 0.0430493 0
0 0.0439492 0
0 0.0445697 0
0 0.0449127 0
0 0.0449809 0
0 0.0447784 0
0 0.0443103 0
0 0.0435829 0
0 0.0426037 0
0 0.0413815 0
0 0.0399263 0
0 0.0382495 0
0 0.0363638 0
0 0.0342833 0
0 0.0320237 0
0 0.0296021 0
0 0.0270371 0
0 0.0243487 0
0 0.0215587 0
0 0.0186903 0
0 0.0157684 0
0 0.0128193 0
0 0.00987137 0
0 0.00695466 0
0 0.00410166 0
0 0.00134765 0
0 0.00194612 0
0 0.00572824 0
0 0.0092965 0
0 0.0126601 0
0 0.0158226 0
0 0.0187836 0
0 0.0215405 0
0 0.0240893 0
0 0.0264255 0
0 0.0285445 0
0 0.0304418 0
0 0.0321138 0
0 0.0335572 0
0 0.0347698 0
0 0.0357501 0
0 0.0364976 0
0 0.0370128 0
0 0.0372971 0
0 0.0373528 0
0 0.0371832 0
0 0.0367927 0
0 0.0361865 0
0 0.035371 0
0 0.0343535 0
0 0.0331425 0
0 0.0317475 0
0 0.0301793 0
0 0.0284497 0
0 0.0265717 0
0 0.0245597 0
0 0.0224292 0
0 0.0201969 0
0 0.017881 0
0 0.0155005 0
0 0.0130762 0
0 0.0106299 0
0 0.00818497 0
0 0.0057663 0
0 0.00340069 0
0 0.00111732 0
0 0.00156673 0
0 0.00461157 0
0 0.00748433 0
0 0.0101925 0
0 0.0127389 0
0 0.0151232 0
0 0.0173435 0
0 0.0193964 0
0 0.0212782 0
0 0.0229852 0
0 0.0245138 0
0 0.025861 0
0 0.027024 0
0 0.0280011 0
0 0.0287909 0
0 0.0293931 0
0 0.0298079 0
0 0.0300365 0
0 0.0300807 0
0 0.0299432 0
0 0.0296275 0
0 0.0291379 0
0 0.0284796 0
0 0.0276585 0
0 0.0266816 0
0 0.0255566 0
0 0.0242921 0
0 0.0228979 0
0 0.0213846 0
0 0.0197636 0
0 0.0180476 0
0 0.0162501 0
0 0.0143855 0
0 0.0124696 0
0 0.0105186 0
0 0.00855032 0
0 0.00658339 0
0 0.00463783 0
0 0.00273511 0
0 0.000898628 0
0 0.00120275 0
0 0.00354024 0
0 0.00574568 0
0 0.00782484 0
0 0.0097799 0
0 0.0116107 0
0 0.0133156 0
0 0.0148921 0
0 0.0163374 0
0 0.0176485 0
0 0.0188227 0
0 0.0198575 0
0 0.020751 0
0 0.0215015 0
0 0.0221082 0
0 0.0225707 0
0 0.0228892 0
0 0.0230645 0
0 0.023098 0
0 0.0229919 0
0 0.0227487 0
0 0.022372 0
0 0.0218655 0
0 0.021234 0
0 0.0204828 0
0 0.019618 0
0 0.0186461 0
0 0.0175748 0
0 0.0164121 0
0 0.015167 0
0 0.0138492 0
0 0.012469 0
0 0.0110377 0
0 0.00956703 0
0 0.00806981 0
0 0.00655946 0
0 0.00505034 0
0 0.00355773 0
0 0.0020981 0
0 0.000689329 0
0 0.000850669 0
0 0.00250391 0
0 0.00406379 0
0 0.00553439 0
0 0.00691727 0
0 0.00821231 0
0 0.00941836 0
0 0.0105337 0
0 0.0115562 0
0 0.0124838 0
0 0.0133147 0
0 0.0140469 0
0 0.0146791 0