# vtk DataFile Version 2.0
Presion
ASCII

DATASET STRUCTURED_GRID
DIMENSIONS   40   40   20

POINTS   32000   double
0.0125   0.0125   0.025
0.0375   0.0125   0.025
0.0625   0.0125   0.025
0.0875   0.0125   0.025
0.1125   0.0125   0.025
0.1375   0.0125   0.025
0.1625   0.0125   0.025
0.1875   0.0125   0.025
0.2125   0.0125   0.025
0.2375   0.0125   0.025
0.2625   0.0125   0.025
0.2875   0.0125   0.025
0.3125   0.0125   0.025
0.3375   0.0125   0.025
0.3625   0.0125   0.025
0.3875   0.0125   0.025
0.4125   0.0125   0.025
0.4375   0.0125   0.025
0.4625   0.0125   0.025
0.4875   0.0125   0.025
0.5125   0.0125   0.025
0.5375   0.0125   0.025
0.5625   0.0125   0.025
0.5875   0.0125   0.025
0.6125   0.0125   0.025
0.6375   0.0125   0.025
0.6625   0.0125   0.025
0.6875   0.0125   0.025
0.7125   0.0125   0.025
0.7375   0.0125   0.025
0.7625   0.0125   0.025
0.7875   0.0125   0.025
0.8125   0.0125   0.025
0.8375   0.0125   0.025
0.8625   0.0125   0.025
0.8875   0.0125   0.025
0.9125   0.0125   0.025
0.9375   0.0125   0.025
0.9625   0.0125   0.025
0.9875   0.0125   0.025
0.0125   0.0375   0.025
0.0375   0.0375   0.025
0.0625   0.0375   0.025
0.0875   0.0375   0.025
0.1125   0.0375   0.025
0.1375   0.0375   0.025
0.1625   0.0375   0.025
0.1875   0.0375   0.025
0.2125   0.0375   0.025
0.2375   0.0375   0.025
0.2625   0.0375   0.025
0.2875   0.0375   0.025
0.3125   0.0375   0.025
0.3375   0.0375   0.025
0.3625   0.0375   0.025
0.3875   0.0375   0.025
0.4125   0.0375   0.025
0.4375   0.0375   0.025
0.4625   0.0375   0.025
0.4875   0.0375   0.025
0.5125   0.0375   0.025
0.5375   0.0375   0.025
0.5625   0.0375   0.025
0.5875   0.0375   0.025
0.6125   0.0375   0.025
0.6375   0.0375   0.025
0.6625   0.0375   0.025
0.6875   0.0375   0.025
0.7125   0.0375   0.025
0.7375   0.0375   0.025
0.7625   0.0375   0.025
0.7875   0.0375   0.025
0.8125   0.0375   0.025
0.8375   0.0375   0.025
0.8625   0.0375   0.025
0.8875   0.0375   0.025
0.9125   0.0375   0.025
0.9375   0.0375   0.025
0.9625   0.0375   0.025
0.9875   0.0375   0.025
0.0125   0.0625   0.025
0.0375   0.0625   0.025
0.0625   0.0625   0.025
0.0875   0.0625   0.025
0.1125   0.0625   0.025
0.1375   0.0625   0.025
0.1625   0.0625   0.025
0.1875   0.0625   0.025
0.2125   0.0625   0.025
0.2375   0.0625   0.025
0.2625   0.0625   0.025
0.2875   0.0625   0.025
0.3125   0.0625   0.025
0.3375   0.0625   0.025
0.3625   0.0625   0.025
0.3875   0.0625   0.025
0.4125   0.0625   0.025
0.4375   0.0625   0.025
0.4625   0.0625   0.025
0.4875   0.0625   0.025
0.5125   0.0625   0.025
0.5375   0.0625   0.025
0.5625   0.0625   0.025
0.5875   0.0625   0.025
0.6125   0.0625   0.025
0.6375   0.0625   0.025
0.6625   0.0625   0.025
0.6875   0.0625   0.025
0.7125   0.0625   0.025
0.7375   0.0625   0.025
0.7625   0.0625   0.025
0.7875   0.0625   0.025
0.8125   0.0625   0.025
0.8375   0.0625   0.025
0.8625   0.0625   0.025
0.8875   0.0625   0.025
0.9125   0.0625   0.025
0.9375   0.0625   0.025
0.9625   0.0625   0.025
0.9875   0.0625   0.025
0.0125   0.0875   0.025
0.0375   0.0875   0.025
0.0625   0.0875   0.025
0.0875   0.0875   0.025
0.1125   0.0875   0.025
0.1375   0.0875   0.025
0.1625   0.0875   0.025
0.1875   0.0875   0.025
0.2125   0.0875   0.025
0.2375   0.0875   0.025
0.2625   0.0875   0.025
0.2875   0.0875   0.025
0.3125   0.0875   0.025
0.3375   0.0875   0.025
0.3625   0.0875   0.025
0.3875   0.0875   0.025
0.4125   0.0875   0.025
0.4375   0.0875   0.025
0.4625   0.0875   0.025
0.4875   0.0875   0.025
0.5125   0.0875   0.025
0.5375   0.0875   0.025
0.5625   0.0875   0.025
0.5875   0.0875   0.025
0.6125   0.0875   0.025
0.6375   0.0875   0.025
0.6625   0.0875   0.025
0.6875   0.0875   0.025
0.7125   0.0875   0.025
0.7375   0.0875   0.025
0.7625   0.0875   0.025
0.7875   0.0875   0.025
0.8125   0.0875   0.025
0.8375   0.0875   0.025
0.8625   0.0875   0.025
0.8875   0.0875   0.025
0.9125   0.0875   0.025
0.9375   0.0875   0.025
0.9625   0.0875   0.025
0.9875   0.0875   0.025
0.0125   0.1125   0.025
0.0375   0.1125   0.025
0.0625   0.1125   0.025
0.0875   0.1125   0.025
0.1125   0.1125   0.025
0.1375   0.1125   0.025
0.1625   0.1125   0.025
0.1875   0.1125   0.025
0.2125   0.1125   0.025
0.2375   0.1125   0.025
0.2625   0.1125   0.025
0.2875   0.1125   0.025
0.3125   0.1125   0.025
0.3375   0.1125   0.025
0.3625   0.1125   0.025
0.3875   0.1125   0.025
0.4125   0.1125   0.025
0.4375   0.1125   0.025
0.4625   0.1125   0.025
0.4875   0.1125   0.025
0.5125   0.1125   0.025
0.5375   0.1125   0.025
0.5625   0.1125   0.025
0.5875   0.1125   0.025
0.6125   0.1125   0.025
0.6375   0.1125   0.025
0.6625   0.1125   0.025
0.6875   0.1125   0.025
0.7125   0.1125   0.025
0.7375   0.1125   0.025
0.7625   0.1125   0.025
0.7875   0.1125   0.025
0.8125   0.1125   0.025
0.8375   0.1125   0.025
0.8625   0.1125   0.025
0.8875   0.1125   0.025
0.9125   0.1125   0.025
0.9375   0.1125   0.025
0.9625   0.1125   0.025
0.9875   0.1125   0.025
0.0125   0.1375   0.025
0.0375   0.1375   0.025
0.0625   0.1375   0.025
0.0875   0.1375   0.025
0.1125   0.1375   0.025
0.1375   0.1375   0.025
0.1625   0.1375   0.025
0.1875   0.1375   0.025
0.2125   0.1375   0.025
0.2375   0.1375   0.025
0.2625   0.1375   0.025
0.2875   0.1375   0.025
0.3125   0.1375   0.025
0.3375   0.1375   0.025
0.3625   0.1375   0.025
0.3875   0.1375   0.025
0.4125   0.1375   0.025
0.4375   0.1375   0.025
0.4625   0.1375   0.025
0.4875   0.1375   0.025
0.5125   0.1375   0.025
0.5375   0.1375   0.025
0.5625   0.1375   0.025
0.5875   0.1375   0.025
0.6125   0.1375   0.025
0.6375   0.1375   0.025
0.6625   0.1375   0.025
0.6875   0.1375   0.025
0.7125   0.1375   0.025
0.7375   0.1375   0.025
0.7625   0.1375   0.025
0.7875   0.1375   0.025
0.8125   0.1375   0.025
0.8375   0.1375   0.025
0.8625   0.1375   0.025
0.8875   0.1375   0.025
0.9125   0.1375   0.025
0.9375   0.1375   0.025
0.9625   0.1375   0.025
0.9875   0.1375   0.025
0.0125   0.1625   0.025
0.0375   0.1625   0.025
0.0625   0.1625   0.025
0.0875   0.1625   0.025
0.1125   0.1625   0.025
0.1375   0.1625   0.025
0.1625   0.1625   0.025
0.1875   0.1625   0.025
0.2125   0.1625   0.025
0.2375   0.1625   0.025
0.2625   0.1625   0.025
0.2875   0.1625   0.025
0.3125   0.1625   0.025
0.3375   0.1625   0.025
0.3625   0.1625   0.025
0.3875   0.1625   0.025
0.4125   0.1625   0.025
0.4375   0.1625   0.025
0.4625   0.1625   0.025
0.4875   0.1625   0.025
0.5125   0.1625   0.025
0.5375   0.1625   0.025
0.5625   0.1625   0.025
0.5875   0.1625   0.025
0.6125   0.1625   0.025
0.6375   0.1625   0.025
0.6625   0.1625   0.025
0.6875   0.1625   0.025
0.7125   0.1625   0.025
0.7375   0.1625   0.025
0.7625   0.1625   0.025
0.7875   0.1625   0.025
0.8125   0.1625   0.025
0.8375   0.1625   0.025
0.8625   0.1625   0.025
0.8875   0.1625   0.025
0.9125   0.1625   0.025
0.9375   0.1625   0.025
0.9625   0.1625   0.025
0.9875   0.1625   0.025
0.0125   0.1875   0.025
0.0375   0.1875   0.025
0.0625   0.1875   0.025
0.0875   0.1875   0.025
0.1125   0.1875   0.025
0.1375   0.1875   0.025
0.1625   0.1875   0.025
0.1875   0.1875   0.025
0.2125   0.1875   0.025
0.2375   0.1875   0.025
0.2625   0.1875   0.025
0.2875   0.1875   0.025
0.3125   0.1875   0.025
0.3375   0.1875   0.025
0.3625   0.1875   0.025
0.3875   0.1875   0.025
0.4125   0.1875   0.025
0.4375   0.1875   0.025
0.4625   0.1875   0.025
0.4875   0.1875   0.025
0.5125   0.1875   0.025
0.5375   0.1875   0.025
0.5625   0.1875   0.025
0.5875   0.1875   0.025
0.6125   0.1875   0.025
0.6375   0.1875   0.025
0.6625   0.1875   0.025
0.6875   0.1875   0.025
0.7125   0.1875   0.025
0.7375   0.1875   0.025
0.7625   0.1875   0.025
0.7875   0.1875   0.025
0.8125   0.1875   0.025
0.8375   0.1875   0.025
0.8625   0.1875   0.025
0.8875   0.1875   0.025
0.9125   0.1875   0.025
0.9375   0.1875   0.025
0.9625   0.1875   0.025
0.9875   0.1875   0.025
0.0125   0.2125   0.025
0.0375   0.2125   0.025
0.0625   0.2125   0.025
0.0875   0.2125   0.025
0.1125   0.2125   0.025
0.1375   0.2125   0.025
0.1625   0.2125   0.025
0.1875   0.2125   0.025
0.2125   0.2125   0.025
0.2375   0.2125   0.025
0.2625   0.2125   0.025
0.2875   0.2125   0.025
0.3125   0.2125   0.025
0.3375   0.2125   0.025
0.3625   0.2125   0.025
0.3875   0.2125   0.025
0.4125   0.2125   0.025
0.4375   0.2125   0.025
0.4625   0.2125   0.025
0.4875   0.2125   0.025
0.5125   0.2125   0.025
0.5375   0.2125   0.025
0.5625   0.2125   0.025
0.5875   0.2125   0.025
0.6125   0.2125   0.025
0.6375   0.2125   0.025
0.6625   0.2125   0.025
0.6875   0.2125   0.025
0.7125   0.2125   0.025
0.7375   0.2125   0.025
0.7625   0.2125   0.025
0.7875   0.2125   0.025
0.8125   0.2125   0.025
0.8375   0.2125   0.025
0.8625   0.2125   0.025
0.8875   0.2125   0.025
0.9125   0.2125   0.025
0.9375   0.2125   0.025
0.9625   0.2125   0.025
0.9875   0.2125   0.025
0.0125   0.2375   0.025
0.0375   0.2375   0.025
0.0625   0.2375   0.025
0.0875   0.2375   0.025
0.1125   0.2375   0.025
0.1375   0.2375   0.025
0.1625   0.2375   0.025
0.1875   0.2375   0.025
0.2125   0.2375   0.025
0.2375   0.2375   0.025
0.2625   0.2375   0.025
0.2875   0.2375   0.025
0.3125   0.2375   0.025
0.3375   0.2375   0.025
0.3625   0.2375   0.025
0.3875   0.2375   0.025
0.4125   0.2375   0.025
0.4375   0.2375   0.025
0.4625   0.2375   0.025
0.4875   0.2375   0.025
0.5125   0.2375   0.025
0.5375   0.2375   0.025
0.5625   0.2375   0.025
0.5875   0.2375   0.025
0.6125   0.2375   0.025
0.6375   0.2375   0.025
0.6625   0.2375   0.025
0.6875   0.2375   0.025
0.7125   0.2375   0.025
0.7375   0.2375   0.025
0.7625   0.2375   0.025
0.7875   0.2375   0.025
0.8125   0.2375   0.025
0.8375   0.2375   0.025
0.8625   0.2375   0.025
0.8875   0.2375   0.025
0.9125   0.2375   0.025
0.9375   0.2375   0.025
0.9625   0.2375   0.025
0.9875   0.2375   0.025
0.0125   0.2625   0.025
0.0375   0.2625   0.025
0.0625   0.2625   0.025
0.0875   0.2625   0.025
0.1125   0.2625   0.025
0.1375   0.2625   0.025
0.1625   0.2625   0.025
0.1875   0.2625   0.025
0.2125   0.2625   0.025
0.2375   0.2625   0.025
0.2625   0.2625   0.025
[...]
POINT_DATA   32000
SCALARS Presion double
LOOKUP_TABLE   Presion

0 0 0 0 0 0 0 0 0 0 0 0 0 0 0 0 0 0 0 0 0 0 0 0 0 0 0 0 0 0 0 0 0 0 0 0 0 0 0 0 -3.92085e-06 -3.88818e-06 -3.82583e-06 -3.73574e-06 -3.61945e-06 -3.47841e-06 -3.314e-06 -3.12757e-06 -2.92039e-06 -2.69363e-06 -2.44831e-06 -2.18631e-06 -1.90721e-06 -1.61145e-06 -1.29926e-06 -9.70681e-07 -6.25625e-07 -2.63914e-07 1.14643e-07 5.10178e-07 9.22668e-07 1.35162e-06 1.79667e-06 2.25674e-06 2.7302e-06 3.21475e-06 3.70736e-06 4.20422e-06 4.70064e-06 5.19115e-06 5.66951e-06 6.13016e-06 6.56449e-06 6.96499e-06 7.32421e-06 7.63512e-06 7.89145e-06 8.08801e-06 8.22108e-06 8.28869e-06 -7.85923e-06 -7.79393e-06 -7.66898e-06 -7.48823e-06 -7.25486e-06 -6.97182e-06 -6.64196e-06 -6.26805e-06 -5.85271e-06 -5.39834e-06 -4.90703e-06 -4.38255e-06 -3.8241e-06 -3.23256e-06 -2.60836e-06 -1.95158e-06 -1.26197e-06 -5.39127e-07 2.17402e-07 1.00796e-06 1.83259e-06 2.6904e-06 3.58075e-06 4.50158e-06 5.44971e-06 6.42066e-06 7.40843e-06 8.40539e-06 9.40222e-06 1.03879e-05 1.13499e-05 1.2277e-05 1.31517e-05 1.39588e-05 1.46832e-05 1.53105e-05 1.58279e-05 1.62249e-05 1.64938e-05 1.66306e-05 -1.18382e-05 -1.17397e-05 -1.1551e-05 -1.12779e-05 -1.09255e-05 -1.04982e-05 -1.00005e-05 -9.43682e-06 -8.81116e-06 -8.1273e-06 -7.38848e-06 -6.60042e-06 -5.762e-06 -4.87451e-06 -3.93859e-06 -2.95422e-06 -1.92096e-06 -8.38038e-07 2.95416e-07 1.48011e-06 2.71633e-06 4.00298e-06 5.33931e-06 6.72252e-06 8.14806e-06 9.60941e-06 1.10977e-05 1.26017e-05 1.41073e-05 1.55979e-05 1.70546e-05 1.846e-05 1.97876e-05 2.10139e-05 2.21156e-05 2.30705e-05 2.38587e-05 2.44638e-05 2.48738e-05 2.50822e-05 -1.58802e-05 -1.57474e-05 -1.54929e-05 -1.51249e-05 -1.465e-05 -1.40748e-05 -1.34056e-05 -1.26483e-05 -1.18089e-05 -1.08926e-05 -9.90385e-06 -8.85047e-06 -7.73109e-06 -6.54742e-06 -5.30019e-06 -3.98927e-06 -2.61379e-06 -1.17246e-06 3.3622e-07 1.91358e-06 3.56042e-06 5.2757e-06 7.05892e-06 8.90678e-06 1.08137e-05 1.27713e-05 1.47682e-05 1.67895e-05 1.88165e-05 2.0827e-05 2.27951e-05 2.46971e-05 2.64968e-05 2.81617e-05 2.96595e-05 3.09593e-05 3.20331e-05 3.2858e-05 3.34171e-05 3.37013e-05 -2.00074e-05 -1.98386e-05 -1.95154e-05 -1.90484e-05 -1.84464e-05 -1.77181e-05 -1.68719e-05 -1.59158e-05 -1.48577e-05 -1.37046e-05 -1.24626e-05 -1.11415e-05 -9.73987e-06 -8.25975e-06 -6.70195e-06 -5.06602e-06 -3.35052e-06 -1.55334e-06 3.27939e-07 2.29559e-06 4.3513e-06 6.4945e-06 8.72531e-06 1.10404e-05 1.34334e-05 1.58948e-05 1.84107e-05 2.09628e-05 2.3528e-05 2.60782e-05 2.85805e-05 3.10039e-05 3.3302e-05 3.54323e-05 3.73521e-05 3.90205e-05 4.04006e-05 4.14616e-05 4.21809e-05 4.25464e-05 -2.42412e-05 -2.40343e-05 -2.36385e-05 -2.30672e-05 -2.23318e-05 -2.14433e-05 -2.04127e-05 -1.92506e-05 -1.79673e-05 -1.65718e-05 -1.5072e-05 -1.34801e-05 -1.17945e-05 -1.00178e-05 -8.15059e-06 -6.19199e-06 -4.13968e-06 -1.99042e-06 2.5952e-07 2.61379e-06 5.07542e-06 7.64479e-06 1.03232e-05 1.31077e-05 1.59921e-05 1.89657e-05 2.20128e-05 2.51122e-05 2.82364e-05 3.13512e-05 3.44164e-05 3.73931e-05 4.02234e-05 4.28536e-05 4.52293e-05 4.72978e-05 4.90113e-05 5.03298e-05 5.12241e-05 5.16782e-05 -2.86033e-05 -2.83554e-05 -2.78819e-05 -2.71993e-05 -2.6322e-05 -2.5264e-05 -2.40395e-05 -2.2662e-05 -2.11448e-05 -1.94995e-05 -1.77363e-05 -1.58696e-05 -1.38982e-05 -1.18249e-05 -9.65016e-06 -7.37231e-06 -4.98781e-06 -2.49186e-06 1.21032e-07 2.85643e-06 5.71925e-06 8.71143e-06 1.18361e-05 1.50915e-05 1.8472e-05 2.19667e-05 2.55587e-05 2.92242e-05 3.29316e-05 3.66409e-05 4.03039e-05 4.3873e-05 4.72777e-05 5.04513e-05 5.33256e-05 5.58339e-05 5.79156e-05 5.95193e-05 6.06075e-05 6.11597e-05 -3.3115e-05 -3.28226e-05 -3.22649e-05 -3.14619e-05 -3.04319e-05 -2.91925e-05 -2.77616e-05 -2.61566e-05 -2.43944e-05 -2.24899e-05 -2.0456e-05 -1.83097e-05 -1.60502e-05 -1.36808e-05 -1.12014e-05 -8.60917e-06 -5.89893e-06 -3.06381e-06 -9.59844e-08 3.01262e-06 6.26947e-06 9.67877e-06 1.32462e-05 1.69722e-05 2.08523e-05 2.48765e-05 2.90276e-05 3.32798e-05 3.75979e-05 4.19362e-05 4.62383e-05 5.04468e-05 5.44772e-05 5.82477e-05 6.16735e-05 6.46715e-05 6.71649e-05 6.90886e-05 7.03947e-05 7.10569e-05 -3.77983e-05 -3.74569e-05 -3.68066e-05 -3.58719e-05 -3.46753e-05 -3.3239e-05 -3.15857e-05 -2.97377e-05 -2.77162e-05 -2.55406e-05 -2.32268e-05 -2.07951e-05 -1.82453e-05 -1.55808e-05 -1.28009e-05 -9.90105e-06 -6.8739e-06 -3.70986e-06 -3.98083e-07 3.07269e-06 6.71322e-06 1.05308e-05 1.45346e-05 1.87279e-05 2.3109e-05 2.76697e-05 3.23935e-05 3.72539e-05 4.22127e-05 4.7219e-05 5.22078e-05 5.7111e-05 6.18284e-05 6.62606e-05 7.03031e-05 7.38522e-05 7.68116e-05 7.90988e-05 8.06529e-05 8.14402e-05 -4.2676e-05 -4.22799e-05 -4.15265e-05 -4.04455e-05 -3.90647e-05 -3.74119e-05 -3.55157e-05 -3.34046e-05 -3.11057e-05 -2.86436e-05 -2.60387e-05 -2.33146e-05 -2.04721e-05 -1.75146e-05 -1.44401e-05 -1.1242e-05 -7.90981e-06 -4.43049e-06 -7.8942e-07 3.02861e-06 7.03845e-06 1.12513e-05 1.56809e-05 2.03345e-05 2.52144e-05 3.03156e-05 3.56239e-05 4.11135e-05 4.67448e-05 5.24618e-05 5.81916e-05 6.38539e-05 6.9331e-05 7.45027e-05 7.92409e-05 8.34168e-05 8.69092e-05 8.96141e-05 9.14538e-05 9.2385e-05 -4.77725e-05 -4.73148e-05 -4.6445e-05 -4.51994e-05 -4.36119e-05 -4.17173e-05 -3.9552e-05 -3.71521e-05 -3.45526e-05 -3.17847e-05 -2.88744e-05 -2.58496e-05 -2.27121e-05 -1.94651e-05 -1.61047e-05 -1.26208e-05 -8.99926e-06 -5.22247e-06 -1.27121e-06 2.87449e-06 7.23437e-06 1.18245e-05 1.6664e-05 2.17656e-05 2.7137e-05 3.27781e-05 3.86793e-05 4.48172e-05 5.11526e-05 5.76264e-05 6.41574e-05 7.06528e-05 7.69751e-05 8.29796e-05 8.85094e-05 9.34044e-05 9.75127e-05 0.000100703 0.000102875 0.000103973 -5.31152e-05 -5.25869e-05 -5.15844e-05 -5.01508e-05 -4.83279e-05 -4.61595e-05 -4.36912e-05 -4.09695e-05 -3.80393e-05 -3.4941e-05 -3.17076e-05 -2.83723e-05 -2.49381e-05 -2.14073e-05 -1.77728e-05 -1.40202e-05 -1.01296e-05 -6.07824e-06 -1.84113e-06 2.6072e-06 7.29209e-06 1.22353e-05 1.74623e-05 2.29928e-05 2.88413e-05 3.50153e-05 4.15117e-05 4.8313e-05 5.53827e-05 6.26608e-05 7.00595e-05 7.74723e-05 8.47398e-05 9.16883e-05 9.81255e-05 0.000103853 0.000108679 0.000112437 0.000115 0.000116295 -5.87353e-05 -5.81256e-05 -5.69694e-05 -5.53186e-05 -5.32242e-05 -5.07407e-05 -4.79259e-05 -4.48395e-05 -4.15397e-05 -3.80791e-05 -3.45006e-05 -3.08434e-05 -2.7112e-05 -2.33065e-05 -1.94147e-05 -1.54157e-05 -1.12826e-05 -6.98539e-06 -2.49277e-06 2.22698e-06 7.20535e-06 1.24703e-05 1.80548e-05 2.39864e-05 3.02888e-05 3.69792e-05 4.40646e-05 5.15368e-05 5.93666e-05 6.74965e-05 7.58343e-05 8.426e-05 9.25897e-05 0.000100615 0.0001081 0.000114797 0.000120468 0.000124897 0.000127923 0.000129452 -6.46699e-05 -6.39653e-05 -6.26298e-05 -6.07249e-05 -5.8313e-05 -5.54616e-05 -5.22439e-05 -4.87369e-05 -4.50166e-05 -4.11526e-05 -3.7201e-05 -3.32089e-05 -2.91822e-05 -2.51164e-05 -2.09911e-05 -1.67756e-05 -1.24336e-05 -7.92633e-06 -3.21515e-06 1.7382e-06 6.97144e-06 1.25191e-05 1.84219e-05 2.47167e-05 3.14381e-05 3.8616e-05 4.62715e-05 5.44111e-05 6.30183e-05 7.20443e-05 8.13965e-05 9.09427e-05 0.000100471 0.000109731 0.000118434 0.000126272 0.000132941 0.00013817 0.00014175 0.000143558 -7.0964e-05 -7.0148e-05 -6.86014e-05 -6.63967e-05 -6.36093e-05 -6.03225e-05 -5.66288e-05 -5.26275e-05 -4.84192e-05 -4.40972e-05 -3.97369e-05 -3.53962e-05 -3.10807e-05 -2.67774e-05 -2.24523e-05 -1.80603e-05 -1.35519e-05 -8.87822e-06 -3.99237e-06 1.15008e-06 6.59245e-06 1.23753e-05 1.85474e-05 2.51554e-05 3.22468e-05 3.98672e-05 4.80565e-05 5.68424e-05 6.62301e-05 7.61884e-05 8.66325e-05 9.74199e-05 0.000108308 0.000118993 0.000129121 0.000138306 0.000146166 0.000152354 0.000156599 0.000158745 -7.76735e-05 -7.67261e-05 -7.49295e-05 -7.23685e-05 -6.91331e-05 -6.53248e-05 -6.10598e-05 -5.64664e-05 -5.16789e-05 -4.68252e-05 -4.20103e-05 -3.73072e-05 -3.27188e-05 -2.82147e-05 -2.37384e-05 -1.92231e-05 -1.4602e-05 -9.81365e-06 -4.8036e-06 4.77496e-07 6.07666e-06 1.20391e-05 1.84205e-05 2.52782e-05 3.26737e-05 4.0671e-05 4.9334e-05 5.87199e-05 6.88677e-05 7.97791e-05 9.13904e-05 0.000103556 0.000115995 0.000128338 0.000140144 0.000150931 0.000160216 0.000167559 0.00017261 0.000175163 -8.48673e-05 -8.37649e-05 -8.16717e-05 -7.86859e-05 -7.49126e-05 -7.0474e-05 -6.55139e-05 -6.01972e-05 -5.47045e-05 -4.92164e-05 -4.38855e-05 -3.881e-05 -3.39817e-05 -2.93367e-05 -2.47801e-05 -2.02126e-05 -1.55448e-05 -1.0702e-05 -5.62344e-06 -2.58189e-07 5.44055e-06 1.15194e-05 1.80398e-05 2.5069e-05 3.26833e-05 4.09668e-05 5.00117e-05 5.99142e-05 7.0764e-05 8.26197e-05 9.54657e-05 0.000109166 0.000123391 0.00013768 0.000151477 0.000164178 0.000175176 0.000183915 0.000189944 0.000192992 -9.26316e-05 -9.13464e-05 -8.89023e-05 -8.54101e-05 -8.09902e-05 -7.57856e-05 -6.997e-05 -6.37527e-05 -5.73766e-05 -5.11034e-05 -4.51704e-05 -3.97235e-05 -3.47229e-05 -3.00359e-05 -2.55026e-05 -2.09771e-05 -1.63429e-05 -1.15124e-05 -6.42281e-06 -1.02797e-06 4.71153e-06 1.08379e-05 1.74164e-05 2.45243e-05 3.22515e-05 4.07017e-05 4.99965e-05 6.02791e-05 7.17112e-05 8.44481e-05 9.85746e-05 0.000113999 0.000130313 0.000146913 0.000163088 0.000178084 0.000191145 0.000201571 0.000208788 0.000212439 -0.000101072 -9.9573e-05 -9.67159e-05 -9.26234e-05 -8.74288e-05 -8.12932e-05 -7.44183e-05 -6.70603e-05 -5.95415e-05 -5.2248e-05 -4.55787e-05 -3.97945e-05 -3.47585e-05 -3.01943e-05 -2.58351e-05 -2.14742e-05 -1.69667e-05 -1.22179e-05 -7.1705e-06 -1.79344e-06 3.93235e-06 1.00332e-05 1.65793e-05 2.36594e-05 3.13745e-05 3.9842e-05 4.9207e-05 5.96603e-05 7.14552e-05 8.49043e-05 0.000100303 0.000117702 0.000136525 0.000155917 0.000174954 0.000192703 0.000208244 0.000220708 0.000229366 0.000233751 -0.000110317 -0.00010857 -0.000105232 -0.000100435 -9.4322e-05 -8.70631e-05 -7.88782e-05 -7.00604e-05 -6.10148e-05 -5.23042e-05 -4.46488e-05 -3.86599e-05 -3.38703e-05 -2.97016e-05 -2.57294e-05 -2.16843e-05 -1.74051e-05 -1.28022e-05 -7.83575e-06 -2.50375e-06 3.16976e-06 9.16713e-06 1.55791e-05 2.25137e-05 3.00789e-05 3.83913e-05 4.75997e-05 5.7922e-05 6.97022e-05 8.34798e-05 9.99904e-05 0.000119776 0.000141749 0.000164586 0.000187082 0.000208123 0.000226625 0.000241535 0.000251935 0.000257211 -0.000120519 -0.000118488 -0.000114598 -0.000108989 -0.000101803 -9.3212e-05 -8.34299e-05 -7.27507e-05 -6.16167e-05 -5.07707e-05 -4.15285e-05 -3.58001e-05 -3.18419e-05 -2.85004e-05 -2.51924e-05 -2.16319e-05 -1.76782e-05 -1.32689e-05 -8.39342e-06 -3.09111e-06 2.53555e-06 8.33081e-06 1.44875e-05 2.11533e-05 2.84318e-05 3.64144e-05 4.52134e-05 5.50135e-05 6.61741e-05 7.94545e-05 9.64226e-05 0.000119504 0.000145719 0.000172894 0.000199557 0.000224487 0.000246481 0.000264299 0.000276791 0.000283146 -0.000131853 -0.000129504 -0.000124991 -0.000118461 -0.000110054 -9.99267e-05 -8.82597e-05 -7.52796e-05 -6.13157e-05 -4.70186e-05 -3.42898e-05 -3.05665e-05 -2.86025e-05 -2.66809e-05 -2.43323e-05 -2.14058e-05 -1.7849e-05 -1.36525e-05 -8.83764e-06 -3.47177e-06 2.2515e-06 7.64344e-06 1.33847e-05 1.96631e-05 2.65448e-05 3.40604e-05 4.22326e-05 5.1105e-05 6.08226e-05 7.19481e-05 8.6833e-05 0.000116011 0.0001484 0.000181032 0.0002126 0.000242016 0.000268048 0.000289278 0.000304266 0.000311922 -0.00014452 -0.000141816 -0.000136611 -0.00012906 -0.000119299 -0.000107467 -9.36958e-05 -7.80885e-05 -6.06438e-05 -4.09923e-05 -1.73477e-05 -2.28827e-05 -2.46428e-05 -2.46218e-05 -2.3395e-05 -2.11654e-05 -1.80253e-05 -1.40301e-05 -9.21862e-06 -3.60577e-06 2.89002e-06 7.18908e-06 1.23148e-05 1.81254e-05 2.45622e-05 3.1565e-05 3.90359e-05 4.67923e-05 5.44423e-05 6.09707e-05 6.31219e-05 0.000109313 0.000150595 0.000189614 0.000226623 0.000261006 0.000291591 0.000316765 0.00033471 0.000343933 -0.000158738 -0.000155642 -0.000149679 -0.000141013 -0.000129787 -0.000116133 -0.000100161 -8.19311e-05 -6.13746e-05 -3.81501e-05 -1.14107e-05 -1.8186e-05 -2.16926e-05 -2.30115e-05 -2.27168e-05 -2.11044e-05 -1.83377e-05 -1.45164e-05 -9.70514e-06 -3.93866e-06 2.78869e-06 6.56824e-06 1.1209e-05 1.65966e-05 2.26321e-05 2.91985e-05 3.61224e-05 4.31144e-05 4.96523e-05 5.47478e-05 5.65887e-05 0.000107642 0.000154936 0.000199693 0.000242148 0.000281775 0.000317365 0.00034704 0.000368477 0.000379595 -0.000174738 -0.000171215 -0.000164424 -0.000154552 -0.000141756 -0.000126185 -0.000107965 -8.71838e-05 -6.38566e-05 -3.79008e-05 -9.1891e-06 -1.58615e-05 -2.00535e-05 -2.21556e-05 -2.25131e-05 -2.13696e-05 -1.88908e-05 -1.51927e-05 -1.03605e-05 -4.4597e-06 2.45267e-06 5.83264e-06 1.00911e-05 1.51411e-05 2.08762e-05 2.71595e-05 3.37995e-05 4.05127e-05 4.6872e-05 5.22615e-05 5.59533e-05 0.000109985 0.000161849 0.00021172 0.000259494 0.000304547 0.000345558 0.000380333 0.000405897 0.000419326 -0.000192769 -0.000188775 -0.000181079 -0.000169897 -0.000155419 -0.000137823 -0.000117279 -9.39363e-05 -6.79225e-05 -3.93585e-05 -8.43925e-06 -1.4999e-05 -1.95093e-05 -2.207e-05 -2.28555e-05 -2.20334e-05 -1.97435e-05 -1.60998e-05 -1.11973e-05 -5.12095e-06 2.04229e-06 5.06029e-06 9.01045e-06 1.38152e-05 1.93707e-05 2.55432e-05 3.21584e-05 3.89866e-05 4.57351e-05 5.20708e-05 5.77334e-05 0.000114903 0.000170972 0.000225698 0.000278749 0.00032941 0.000376263 0.000416798 0.000447256 0.00046353 -0.000213085 -0.000208568 -0.000199874 -0.000187259 -0.000170955 -0.000151189 -0.000128185 -0.000102164 -7.33465e-05 -4.19782e-05 -8.38229e-06 -1.50291e-05 -1.97852e-05 -2.26549e-05 -2.37241e-05 -2.31051e-05 -2.09109e-05 -1.72464e-05 -1.22079e-05 -5.88795e-06 1.6164e-06 4.30259e-06 8.00749e-06 1.26551e-05 1.81475e-05 2.43645e-05 3.11613e-05 3.83674e-05 4.57956e-05 5.32731e-05 6.07103e-05 0.00012149 0.000181853 0.000241446 0.000299853 0.000356341 0.00040947 0.000456486 0.000492765 0.000512587 -0.000235954 -0.000230848 -0.000221037 -0.00020683 -0.000188517 -0.000166385 -0.000140722 -0.000111815 -7.99573e-05 -4.54649e-05 -8.7109e-06 -1.56346e-05 -2.06639e-05 -2.37868e-05 -2.50551e-05 -2.45527e-05 -2.23747e-05 -1.86171e-05 -1.33734e-05 -6.73568e-06 1.19995e-06 3.58908e-06 7.10743e-06 1.16778e-05 1.72085e-05 2.35945e-05 3.07203e-05 3.84636e-05 4.67069e-05 5.53598e-05 6.43905e-05 0.000129227 0.000194123 0.000258739 0.000322669 0.000385235 0.000445077 0.000499339 0.000542543 0.000566839 -0.000261651 -0.000255871 -0.000244788 -0.000228785 -0.000208229 -0.000183481 -0.0001549 -0.000122835 -8.7635e-05 -4.96561e-05 -9.28647e-06 -1.66351e-05 -2.19878e-05 -2.53482e-05 -2.6766e-05 -2.63174e-05 -2.40908e-05 -2.01767e-05 -1.46642e-05 -7.64064e-06 8.05666e-07 2.93753e-06 6.32557e-06 1.08893e-05 1.65411e-05 2.31894e-05 3.07424e-05 3.91127e-05 4.82271e-05 5.8038e-05 6.85346e-05 0.000137793 0.000207489 0.000277343 0.000347011 0.000415924 0.0004829 0.000545177 0.000596577 0.000626566 -0.000290465 -0.000283896 -0.000271336 -0.000253273 -0.000230177 -0.000202503 -0.000170692 -0.000135155 -9.62812e-05 -5.44473e-05 -1.00356e-05 -1.7917e-05 -2.36363e-05 -2.72292e-05 -2.87625e-05 -2.83201e-05 -2.59928e-05 -2.18704e-05 -1.60378e-05 -8.57469e-06 4.43094e-07 2.36251e-06 5.67492e-06 1.02934e-05 1.61319e-05 2.31085e-05 3.11489e-05 4.01909e-05 5.01899e-05 6.11247e-05 7.29968e-05 0.000146957 0.000221693 0.000297006 0.000372644 0.000448176 0.000522669 0.000593684 0.000654685 0.00069196 -0.000322694 -0.000315176 -0.000300865 -0.000280398 -0.000254386 -0.000223414 -0.000188015 -0.000148665 -0.000105784 -5.97464e-05 -1.09091e-05 -1.9393e-05 -2.55021e-05 -2.93171e-05 -3.09353e-05 -3.04597e-05 -2.79909e-05 -2.36219e-05 -1.74347e-05 -9.49981e-06 1.2368e-07 1.88219e-06 5.1736e-06 9.90089e-06 1.59763e-05 2.33241e-05 3.1883e-05 4.16091e-05 5.24789e-05 6.44914e-05 7.76632e-05 0.000156516 0.000236473 0.000317436 0.000399259 0.00048167 0.00056402 0.000644394 0.000716456 0.000763078 -0.000358644 -0.000349952 -0.000333511 -0.00031018 -0.000280782 -0.000246069 -0.000206688 -0.000163179 -0.000115978 -6.54397e-05 -1.18615e-05 -2.0977e-05 -2.74713e-05 -3.14833e-05 -3.31521e-05 -3.26078e-05 -2.9967e-05 -2.5329e-05 -1.87744e-05 -1.03634e-05 -1.35442e-07 1.52378e-06 4.85066e-06 9.73446e-06 1.60834e-05 2.38255e-05 3.29096e-05 4.3306e-05 5.5009e-05 6.80365e-05 8.24254e-05 0.000166261 0.000251535 0.000338268 0.000426445 0.00051596 0.000606457 0.000696668 0.00078117 0.000839765 -0.000398624 -0.000388425 -0.00036931 -0.000342499 -0.000309122 -0.000270152 -0.000226373 -0.000178381 -0.00012661 -7.13601e-05 -1.28373e-05 -2.25646e-05 -2.94046e-05 -3.35692e-05 -3.52478e-05 -3.46032e-05 -3.17712e-05 -2.68603e-05 -1.99511e-05 -1.10943e-05 -3.08475e-07 1.32721e-06 4.74927e-06 9.8314e-06 1.64773e-05 2.46183e-05 3.42117e-05 4.52403e-05 5.7714e-05 7.16698e-05 8.71694e-05 0.000175961 0.000266532 0.000359048 0.000453651 0.000550426 0.000649298 0.000749664 0.000847706 0.000921542 -0.000442931 -0.000430701 -0.000408118 -0.000376987 -0.00033889 -0.000295086 -0.0002465 -0.000193765 -0.000137279 -7.72546e-05 -1.37577e-05 -2.40156e-05 -3.11229e-05 -3.53764e-05 -3.70197e-05 -3.62496e-05 -3.32219e-05 -2.80557e-05 -2.08342e-05 -1.16021e-05 -3.5933e-07 1.34573e-06 4.92523e-06 1.02399e-05 1.71918e-05 2.57172e-05 3.57821e-05 4.73808e-05 6.05365e-05 7.5304e-05 9.17709e-05 0.000185354 0.000281056 0.000379212 0.000480161 0.000584216 0.00069159 0.000802282 0.000914427 0.00100743 -0.000491811 -0.000476685 -0.000449432 -0.000412844 -0.000369142 -0.000319907 -0.000266177 -0.000208571 -0.000147403 -8.27518e-05 -1.45069e-05 -2.51405e-05 -3.23995e-05 -3.66663e-05 -3.82337e-05 -3.73266e-05 -3.41185e-05 -2.87394e-05 -2.12788e-05 -1.17828e-05 -2.43256e-07 1.63994e-06 5.43699e-06 1.10061e-05 1.82554e-05 2.71304e-05 3.76072e-05 4.96904e-05 6.34141e-05 7.88453e-05 9.6093e-05 0.000194145 0.000294633 0.00039809 0.000505084 0.000616216 0.000732014 0.000853082 0.000979061 0.00109567 -0.000545355 -0.000525805 -0.000492053 -0.000448538 -0.000398279 -0.000343123 -0.000284106 -0.000221738 -0.000156181 -8.73453e-05 -1.49227e-05 -2.5702e-05 -3.29759e-05 -3.71877e-05 -3.86581e-05 -3.76275e-05 -3.428e-05 -2.87558e-05 -2.11562e-05 -1.1541e-05 8.38647e-08 2.2589e-06 6.32024e-06 1.21453e-05 1.96615e-05 2.88299e-05 3.96387e-05 5.21015e-05 6.62585e-05 8.21806e-05 9.99848e-05 0.000202005 0.000306729 0.000414907 0.000527363 0.000645046 0.000768813 0.000900158 0.00103861 0.00118332 -0.000603172 -0.000576344 -0.000533431 -0.00048135 -0.000423806 -0.000362618 -0.000298585 -0.000231956 -0.000162666 -9.04407e-05 -1.48121e-05 -2.54643e-05 -3.26353e-05 -3.67614e-05 -3.81534e-05 -3.70473e-05 -3.3629e-05 -2.80476e-05 -2.04217e-05 -1.08412e-05 6.40125e-07 3.19803e-06 7.53834e-06 1.35911e-05 2.13187e-05 3.07044e-05 4.17501e-05 5.4476e-05 6.89231e-05 8.5155e-05 0.000103276 0.00020857 0.000316756 0.000428813 0.000545811 0.0006691 0.000799806 0.000940953 0.00108946 0.00126551 -0.000663161 -0.000623749 -0.000568537 -0.000506911 -0.000442308 -0.000375866 -0.000307809 -0.000237982 -0.000166051 -9.15805e-05 -1.40552e-05 -2.43653e-05 -3.13972e-05 -3.54738e-05 -3.6853e-05 -3.57491e-05 -3.23437e-05 -2.67928e-05 -1.92357e-05 -9.80474e-06 1.3628e-06 4.32158e-06 8.90127e-06 1.51182e-05 2.29805e-05 3.24958e-05 4.36785e-05 5.65531e-05 7.11571e-05 8.75378e-05 0.000105764 0.000213429 0.000324085 0.000438913 0.000559192 0.000686651 0.000822588 0.000971998 0.00112791 0.00133414 -0.000716044 -0.000656847 -0.000588945 -0.000519796 -0.000450574 -0.000381123 -0.000310978 -0.000239605 -0.000166472 -9.10647e-05 -1.29428e-05 -2.29316e-05 -2.99056e-05 -3.40126e-05 -3.54493e-05 -3.44092e-05 -3.10693e-05 -2.55913e-05 -1.81306e-05 -8.85606e-06 2.00976e-06 5.24923e-06 9.96421e-06 1.6257e-05 2.41727e-05 3.37363e-05 4.49698e-05 5.78997e-05 7.25589e-05 8.89799e-05 0.00010719 0.000216121 0.000328067 0.000444337 0.00056635 0.000696019 0.000834957 0.000988859 0.00115109 0.00137607 0 0 0 0 0 0 0 0 0 0 0 0 0 0 0 0 0 0 0 0 0 0 0 0 0 0 0 0 0 0 0 0 0 0 0 0 0 0 0 0 -3.90411e-06 -3.87359e-06 -3.81367e-06 -3.72577e-06 -3.61136e-06 -3.4719e-06 -3.30886e-06 -3.12362e-06 -2.9175e-06 -2.69172e-06 -2.4473e-06 -2.18614e-06 -1.90787e-06 -1.61291e-06 -1.30151e-06 -9.7372e-07 -6.2945e-07 -2.68528e-07 1.09244e-07 5.04003e-07 9.15743e-07 1.34397e-06 1.78834e-06 2.2478e-06 2.72077e-06 3.20499e-06 3.69747e-06 4.19443e-06 4.69127e-06 5.18253e-06 5.66203e-06 6.12421e-06 6.56048e-06 6.96331e-06 7.32522e-06 7.6391e-06 7.89857e-06 8.09829e-06 8.234