# vtk DataFile Version 2.0
Presion
ASCII

DATASET STRUCTURED_GRID
DIMENSIONS   40   40   20

POINTS   32000   double
0.0125   0.0125   0.025
0.0375   0.0125   0.025
0.0625   0.0125   0.025
0.0875   0.0125   0.025
0.1125   0.0125   0.025
0.1375   0.0125   0.025
0.1625   0.0125   0.025
0.1875   0.0125   0.025
0.2125   0.0125   0.025
0.2375   0.0125   0.025
0.2625   0.0125   0.025
0.2875   0.0125   0.025
0.3125   0.0125   0.025
0.3375   0.0125   0.025
0.3625   0.0125   0.025
0.3875   0.0125   0.025
0.4125   0.0125   0.025
0.4375   0.0125   0.025
0.4625   0.0125   0.025
0.4875   0.0125   0.025
0.5125   0.0125   0.025
0.5375   0.0125   0.025
0.5625   0.0125   0.025
0.5875   0.0125   0.025
0.6125   0.0125   0.025
0.6375   0.0125   0.025
0.6625   0.0125   0.025
0.6875   0.0125   0.025
0.7125   0.0125   0.025
0.7375   0.0125   0.025
0.7625   0.0125   0.025
0.7875   0.0125   0.025
0.8125   0.0125   0.025
0.8375   0.0125   0.025
0.8625   0.0125   0.025
0.8875   0.0125   0.025
0.9125   0.0125   0.025
0.9375   0.0125   0.025
0.9625   0.0125   0.025
0.9875   0.0125   0.025
0.0125   0.0375   0.025
0.0375   0.0375   0.025
0.0625   0.0375   0.025
0.0875   0.0375   0.025
0.1125   0.0375   0.025
0.1375   0.0375   0.025
0.1625   0.0375   0.025
0.1875   0.0375   0.025
0.2125   0.0375   0.025
0.2375   0.0375   0.025
0.2625   0.0375   0.025
0.2875   0.0375   0.025
0.3125   0.0375   0.025
0.3375   0.0375   0.025
0.3625   0.0375   0.025
0.3875   0.0375   0.025
0.4125   0.0375   0.025
0.4375   0.0375   0.025
0.4625   0.0375   0.025
0.4875   0.0375   0.025
0.5125   0.0375   0.025
0.5375   0.0375   0.025
0.5625   0.0375   0.025
0.5875   0.0375   0.025
0.6125   0.0375   0.025
0.6375   0.0375   0.025
0.6625   0.0375   0.025
0.6875   0.0375   0.025
0.7125   0.0375   0.025
0.7375   0.0375   0.025
0.7625   0.0375   0.025
0.7875   0.0375   0.025
0.8125   0.0375   0.025
0.8375   0.0375   0.025
0.8625   0.0375   0.025
0.8875   0.0375   0.025
0.9125   0.0375   0.025
0.9375   0.0375   0.025
0.9625   0.0375   0.025
0.9875   0.0375   0.025
0.0125   0.0625   0.025
0.0375   0.0625   0.025
0.0625   0.0625   0.025
0.0875   0.0625   0.025
0.1125   0.0625   0.025
0.1375   0.0625   0.025
0.1625   0.0625   0.025
0.1875   0.0625   0.025
0.2125   0.0625   0.025
0.2375   0.0625   0.025
0.2625   0.0625   0.025
0.2875   0.0625   0.025
0.3125   0.0625   0.025
0.3375   0.0625   0.025
0.3625   0.0625   0.025
0.3875   0.0625   0.025
0.4125   0.0625   0.025
0.4375   0.0625   0.025
0.4625   0.0625   0.025
0.4875   0.0625   0.025
0.5125   0.0625   0.025
0.5375   0.0625   0.025
0.5625   0.0625   0.025
0.5875   0.0625   0.025
0.6125   0.0625   0.025
0.6375   0.0625   0.025
0.6625   0.0625   0.025
0.6875   0.0625   0.025
0.7125   0.0625   0.025
0.7375   0.0625   0.025
0.7625   0.0625   0.025
0.7875   0.0625   0.025
0.8125   0.0625   0.025
0.8375   0.0625   0.025
0.8625   0.0625   0.025
0.8875   0.0625   0.025
0.9125   0.0625   0.025
0.9375   0.0625   0.025
0.9625   0.0625   0.025
0.9875   0.0625   0.025
0.0125   0.0875   0.025
0.0375   0.0875   0.025
0.0625   0.0875   0.025
0.0875   0.0875   0.025
0.1125   0.0875   0.025
0.1375   0.0875   0.025
0.1625   0.0875   0.025
0.1875   0.0875   0.025
0.2125   0.0875   0.025
0.2375   0.0875   0.025
0.2625   0.0875   0.025
0.2875   0.0875   0.025
0.3125   0.0875   0.025
0.3375   0.0875   0.025
0.3625   0.0875   0.025
0.3875   0.0875   0.025
0.4125   0.0875   0.025
0.4375   0.0875   0.025
0.4625   0.0875   0.025
0.4875   0.0875   0.025
0.5125   0.0875   0.025
0.5375   0.0875   0.025
0.5625   0.0875   0.025
0.5875   0.0875   0.025
0.6125   0.0875   0.025
0.6375   0.0875   0.025
0.6625   0.0875   0.025
0.6875   0.0875   0.025
0.7125   0.0875   0.025
0.7375   0.0875   0.025
0.7625   0.0875   0.025
0.7875   0.0875   0.025
0.8125   0.0875   0.025
0.8375   0.0875   0.025
0.8625   0.0875   0.025
0.8875   0.0875   0.025
0.9125   0.0875   0.025
0.9375   0.0875   0.025
0.9625   0.0875   0.025
0.9875   0.0875   0.025
0.0125   0.1125   0.025
0.0375   0.1125   0.025
0.0625   0.1125   0.025
0.0875   0.1125   0.025
0.1125   0.1125   0.025
0.1375   0.1125   0.025
0.1625   0.1125   0.025
0.1875   0.1125   0.025
0.2125   0.1125   0.025
0.2375   0.1125   0.025
0.2625   0.1125   0.025
0.2875   0.1125   0.025
0.3125   0.1125   0.025
0.3375   0.1125   0.025
0.3625   0.1125   0.025
0.3875   0.1125   0.025
0.4125   0.1125   0.025
0.4375   0.1125   0.025
0.4625   0.1125   0.025
0.4875   0.1125   0.025
0.5125   0.1125   0.025
0.5375   0.1125   0.025
0.5625   0.1125   0.025
0.5875   0.1125   0.025
0.6125   0.1125   0.025
0.6375   0.1125   0.025
0.6625   0.1125   0.025
0.6875   0.1125   0.025
0.7125   0.1125   0.025
0.7375   0.1125   0.025
0.7625   0.1125   0.025
0.7875   0.1125   0.025
0.8125   0.1125   0.025
0.8375   0.1125   0.025
0.8625   0.1125   0.025
0.8875   0.1125   0.025
0.9125   0.1125   0.025
0.9375   0.1125   0.025
0.9625   0.1125   0.025
0.9875   0.1125   0.025
0.0125   0.1375   0.025
0.0375   0.1375   0.025
0.0625   0.1375   0.025
0.0875   0.1375   0.025
0.1125   0.1375   0.025
0.1375   0.1375   0.025
0.1625   0.1375   0.025
0.1875   0.1375   0.025
0.2125   0.1375   0.025
0.2375   0.1375   0.025
0.2625   0.1375   0.025
0.2875   0.1375   0.025
0.3125   0.1375   0.025
0.3375   0.1375   0.025
0.3625   0.1375   0.025
0.3875   0.1375   0.025
0.4125   0.1375   0.025
0.4375   0.1375   0.025
0.4625   0.1375   0.025
0.4875   0.1375   0.025
0.5125   0.1375   0.025
0.5375   0.1375   0.025
0.5625   0.1375   0.025
0.5875   0.1375   0.025
0.6125   0.1375   0.025
0.6375   0.1375   0.025
0.6625   0.1375   0.025
0.6875   0.1375   0.025
0.7125   0.1375   0.025
0.7375   0.1375   0.025
0.7625   0.1375   0.025
0.7875   0.1375   0.025
0.8125   0.1375   0.025
0.8375   0.1375   0.025
0.8625   0.1375   0.025
0.8875   0.1375   0.025
0.9125   0.1375   0.025
0.9375   0.1375   0.025
0.9625   0.1375   0.025
0.9875   0.1375   0.025
0.0125   0.1625   0.025
0.0375   0.1625   0.025
0.0625   0.1625   0.025
0.0875   0.1625   0.025
0.1125   0.1625   0.025
0.1375   0.1625   0.025
0.1625   0.1625   0.025
0.1875   0.1625   0.025
0.2125   0.1625   0.025
0.2375   0.1625   0.025
0.2625   0.1625   0.025
0.2875   0.1625   0.025
0.3125   0.1625   0.025
0.3375   0.1625   0.025
0.3625   0.1625   0.025
0.3875   0.1625   0.025
0.4125   0.1625   0.025
0.4375   0.1625   0.025
0.4625   0.1625   0.025
0.4875   0.1625   0.025
0.5125   0.1625   0.025
0.5375   0.1625   0.025
0.5625   0.1625   0.025
0.5875   0.1625   0.025
0.6125   0.1625   0.025
0.6375   0.1625   0.025
0.6625   0.1625   0.025
0.6875   0.1625   0.025
0.7125   0.1625   0.025
0.7375   0.1625   0.025
0.7625   0.1625   0.025
0.7875   0.1625   0.025
0.8125   0.1625   0.025
0.8375   0.1625   0.025
0.8625   0.1625   0.025
0.8875   0.1625   0.025
0.9125   0.1625   0.025
0.9375   0.1625   0.025
0.9625   0.1625   0.025
0.9875   0.1625   0.025
0.0125   0.1875   0.025
0.0375   0.1875   0.025
0.0625   0.1875   0.025
0.0875   0.1875   0.025
0.1125   0.1875   0.025
0.1375   0.1875   0.025
0.1625   0.1875   0.025
0.1875   0.1875   0.025
0.2125   0.1875   0.025
0.2375   0.1875   0.025
0.2625   0.1875   0.025
0.2875   0.1875   0.025
0.3125   0.1875   0.025
0.3375   0.1875   0.025
0.3625   0.1875   0.025
0.3875   0.1875   0.025
0.4125   0.1875   0.025
0.4375   0.1875   0.025
0.4625   0.1875   0.025
0.4875   0.1875   0.025
0.5125   0.1875   0.025
0.5375   0.1875   0.025
0.5625   0.1875   0.025
0.5875   0.1875   0.025
0.6125   0.1875   0.025
0.6375   0.1875   0.025
0.6625   0.1875   0.025
0.6875   0.1875   0.025
0.7125   0.1875   0.025
0.7375   0.1875   0.025
0.7625   0.1875   0.025
0.7875   0.1875   0.025
0.8125   0.1875   0.025
0.8375   0.1875   0.025
0.8625   0.1875   0.025
0.8875   0.1875   0.025
0.9125   0.1875   0.025
0.9375   0.1875   0.025
0.9625   0.1875   0.025
0.9875   0.1875   0.025
0.0125   0.2125   0.025
0.0375   0.2125   0.025
0.0625   0.2125   0.025
0.0875   0.2125   0.025
0.1125   0.2125   0.025
0.1375   0.2125   0.025
0.1625   0.2125   0.025
0.1875   0.2125   0.025
0.2125   0.2125   0.025
0.2375   0.2125   0.025
0.2625   0.2125   0.025
0.2875   0.2125   0.025
0.3125   0.2125   0.025
0.3375   0.2125   0.025
0.3625   0.2125   0.025
0.3875   0.2125   0.025
0.4125   0.2125   0.025
0.4375   0.2125   0.025
0.4625   0.2125   0.025
0.4875   0.2125   0.025
0.5125   0.2125   0.025
0.5375   0.2125   0.025
0.5625   0.2125   0.025
0.5875   0.2125   0.025
0.6125   0.2125   0.025
0.6375   0.2125   0.025
0.6625   0.2125   0.025
0.6875   0.2125   0.025
0.7125   0.2125   0.025
0.7375   0.2125   0.025
0.7625   0.2125   0.025
0.7875   0.2125   0.025
0.8125   0.2125   0.025
0.8375   0.2125   0.025
0.8625   0.2125   0.025
0.8875   0.2125   0.025
0.9125   0.2125   0.025
0.9375   0.2125   0.025
0.9625   0.2125   0.025
0.9875   0.2125   0.025
0.0125   0.2375   0.025
0.0375   0.2375   0.025
0.0625   0.2375   0.025
0.0875   0.2375   0.025
0.1125   0.2375   0.025
0.1375   0.2375   0.025
0.1625   0.2375   0.025
0.1875   0.2375   0.025
0.2125   0.2375   0.025
0.2375   0.2375   0.025
0.2625   0.2375   0.025
0.2875   0.2375   0.025
0.3125   0.2375   0.025
0.3375   0.2375   0.025
0.3625   0.2375   0.025
0.3875   0.2375   0.025
0.4125   0.2375   0.025
0.4375   0.2375   0.025
0.4625   0.2375   0.025
0.4875   0.2375   0.025
0.5125   0.2375   0.025
0.5375   0.2375   0.025
0.5625   0.2375   0.025
0.5875   0.2375   0.025
0.6125   0.2375   0.025
0.6375   0.2375   0.025
0.6625   0.2375   0.025
0.6875   0.2375   0.025
0.7125   0.2375   0.025
0.7375   0.2375   0.025
0.7625   0.2375   0.025
0.7875   0.2375   0.025
0.8125   0.2375   0.025
0.8375   0.2375   0.025
0.8625   0.2375   0.025
0.8875   0.2375   0.025
0.9125   0.2375   0.025
0.9375   0.2375   0.025
0.9625   0.2375   0.025
0.9875   0.2375   0.025
0.0125   0.2625   0.025
0.0375   0.2625   0.025
0.0625   0.2625   0.025
0.0875   0.2625   0.025
0.1125   0.2625   0.025
0.1375   0.2625   0.025
0.1625   0.2625   0.025
0.1875   0.2625   0.025
0.2125   0.2625   0.025
0.2375   0.2625   0.025
0.2625   0.2625   0.025
[...]
POINT_DATA   32000
SCALARS Presion double
LOOKUP_TABLE   Presion

0 0 0 0 0 0 0 0 0 0 0 0 0 0 0 0 0 0 0 0 0 0 0 0 0 0 0 0 0 0 0 0 0 0 0 0 0 0 0 0 -0.00200994 -0.00238773 -0.00302919 -0.00376321 -0.00451089 -0.00522114 -0.00585646 -0.00638904 -0.00679881 -0.00707189 -0.00719938 -0.00717634 -0.00700116 -0.00667519 -0.00620266 -0.00559073 -0.00484965 -0.00399288 -0.00303716 -0.0020024 -0.000911413 0.000210525 0.00133632 0.00243785 0.00348685 0.0044559 0.00531943 0.00605465 0.00664254 0.00706867 0.00732395 0.00740529 0.00731598 0.00706587 0.00667108 0.00615329 0.00553877 0.00485989 0.00417245 0.00366196 -0.0021777 -0.00239767 -0.00290064 -0.00354172 -0.00422958 -0.00490346 -0.00552081 -0.0060512 -0.00647295 -0.00677093 -0.00693506 -0.00695919 -0.00684045 -0.00657886 -0.00617717 -0.0056409 -0.00497842 -0.0042011 -0.00332334 -0.00236254 -0.00133891 -0.000275107 0.000804224 0.00187311 0.00290498 0.00387355 0.00475371 0.00552246 0.00615991 0.00665014 0.00698216 0.00715068 0.00715683 0.00700873 0.00672208 0.00632086 0.0058395 0.00532933 0.00487878 0.00467058 -0.00185765 -0.00214414 -0.00264216 -0.00326149 -0.00392913 -0.00459045 -0.00520542 -0.00574489 -0.00618782 -0.00651919 -0.00672849 -0.00680876 -0.00675589 -0.00656831 -0.00624684 -0.0057948 -0.00521808 -0.00452532 -0.00372807 -0.00284081 -0.00188091 -0.000868438 0.000174169 0.00122261 0.00225133 0.0032343 0.00414592 0.00496199 0.00566075 0.00622398 0.0066381 0.00689517 0.00699385 0.00694028 0.00674897 0.00644399 0.00606121 0.00565333 0.00530084 0.00513095 -0.00126676 -0.00169963 -0.00227129 -0.00292647 -0.00361327 -0.00428903 -0.00492079 -0.00548375 -0.00595948 -0.0063343 -0.00659807 -0.00674338 -0.00676498 -0.00665961 -0.00642591 -0.00606459 -0.00557865 -0.00497364 -0.0042579 -0.00344278 -0.0025427 -0.00157519 -0.000560689 0.000477811 0.00151526 0.00252528 0.00348106 0.00435642 0.00512698 0.00577145 0.00627293 0.00662015 0.00680866 0.00684184 0.00673185 0.0065007 0.0061818 0.00582258 0.0054889 0.00526876 -0.000546049 -0.00114825 -0.00183229 -0.00256085 -0.00329785 -0.00401252 -0.00468029 -0.00528214 -0.00580341 -0.00623265 -0.00656065 -0.00677987 -0.00688409 -0.00686829 -0.00672882 -0.00646361 -0.00607253 -0.00555779 -0.00492433 -0.0041802 -0.00333685 -0.00240927 -0.00141599 -0.000378915 0.000677111 0.00172497 0.00273614 0.0036819 0.00453459 0.0052691 0.00586444 0.0063052 0.00658293 0.00669735 0.00665727 0.00648148 0.00619955 0.00585299 0.00549635 0.00519631 0.000207026 -0.000565096 -0.00137685 -0.00219958 -0.00300784 -0.00378058 -0.00450111 -0.00515634 -0.00573574 -0.00623044 -0.00663246 -0.00693437 -0.00712904 -0.00720981 -0.00717067 -0.00700668 -0.00671448 -0.00629281 -0.00574309 -0.00506999 -0.00428183 -0.00339101 -0.00241415 -0.00137206 -0.000289489 0.000805518 0.00188246 0.00290961 0.00385543 0.0046903 0.00538827 0.00592883 0.00629858 0.00649262 0.00651562 0.00638256 0.00611921 0.00576248 0.00536021 0.00496938 0.000919708 -1.40346e-05 -0.000955958 -0.00188191 -0.00277367 -0.00361774 -0.00440411 -0.00512506 -0.00577398 -0.00634451 -0.00682997 -0.00722308 -0.00751592 -0.0077002 -0.00776758 -0.00771028 -0.00752165 -0.00719689 -0.00673382 -0.00613353 -0.0054011 -0.00454614 -0.00358316 -0.00253174 -0.00141639 -0.000266085 0.000886541 0.00200644 0.0030577 0.00400543 0.00481779 0.00546811 0.00593695 0.00621377 0.00629827 0.0062013 0.00594524 0.00556399 0.00510246 0.00461485 0.00153391 0.000450431 -0.000617112 -0.00164763 -0.00262831 -0.0035516 -0.00441299 -0.00520929 -0.00593728 -0.00659285 -0.00717045 -0.0076629 -0.00806154 -0.00835645 -0.00853707 -0.00859276 -0.00851359 -0.00829118 -0.00791959 -0.00739617 -0.00672249 -0.00590504 -0.00495586 -0.00389295 -0.00274028 -0.00152759 -0.000289588 0.000935152 0.00210586 0.00318161 0.00412366 0.004898 0.00547783 0.00584578 0.00599567 0.00593378 0.00567936 0.00526467 0.00473434 0.00414395 0.00200083 0.000781045 -0.00040371 -0.00153523 -0.00260528 -0.00361127 -0.00455324 -0.00543171 -0.00624628 -0.00699466 -0.00767218 -0.00827169 -0.00878369 -0.00919675 -0.00949808 -0.00967424 -0.00971203 -0.00959939 -0.00932646 -0.0088866 -0.00827747 -0.00750199 -0.00656922 -0.005495 -0.00430231 -0.0030212 -0.00168832 -0.000345827 0.000960243 0.00218216 0.00327317 0.00419054 0.00489858 0.00537162 0.0055964 0.00557391 0.00532027 0.0048669 0.00425996 0.00355902 0.00227808 0.000936212 -0.000355118 -0.00158091 -0.0027373 -0.00382606 -0.00485109 -0.00581601 -0.00672263 -0.00757009 -0.00835435 -0.00906811 -0.00970105 -0.0102402 -0.0106707 -0.0109762 -0.0111403 -0.0111471 -0.0109827 -0.0106359 -0.0101002 -0.00937431 -0.00846352 -0.00738083 -0.00614748 -0.00479327 -0.00335638 -0.00188247 -0.000423186 0.000966194 0.00222971 0.0033143 0.00417359 0.00477177 0.00508689 0.0051135 0.00486414 0.00436977 0.00367913 0.00285748 0.00232815 0.000878994 -0.000506893 -0.00181821 -0.00305546 -0.00422451 -0.00533263 -0.00638602 -0.0073883 -0.00833967 -0.00923647 -0.0100712 -0.0108326 -0.0115064 -0.0120753 -0.0125206 -0.0128223 -0.0129607 -0.0129173 -0.0126765 -0.0122264 -0.011561 -0.0106811 -0.0095958 -0.00832368 -0.00689347 -0.00534424 -0.00372488 -0.0020928 -0.000511537 0.000952475 0.00223405 0.003274 0.00402406 0.00445145 0.00454262 0.00430555 0.00377053 0.00298952 0.00203452 0.00211768 0.000576567 -0.000890927 -0.00227768 -0.00358864 -0.00483358 -0.00602284 -0.00716486 -0.00826473 -0.00932347 -0.0103377 -0.0112995 -0.0121969 -0.0130141 -0.0137319 -0.0143287 -0.0147812 -0.0150656 -0.0151588 -0.0150397 -0.014691 -0.0141008 -0.0132644 -0.0121858 -0.01088 -0.00937335 -0.00770494 -0.00592637 -0.00410069 -0.0023003 -0.000603378 0.00091082 0.00216774 0.00310382 0.00367269 0.00385033 0.00363853 0.00306621 0.00218863 0.00108522 0.00161723 3.3509e-08 -0.00153546 -0.00298665 -0.00436298 -0.00567799 -0.00694487 -0.00817405 -0.0093719 -0.0105401 -0.0116755 -0.0127699 -0.0138105 -0.0147802 -0.0156578 -0.0164191 -0.0170373 -0.0174844 -0.0177322 -0.0177539 -0.0175258 -0.0170293 -0.0162529 -0.0151947 -0.013864 -0.0122838 -0.0104919 -0.00854154 -0.00650116 -0.00445225 -0.00248592 -0.000697594 0.000819925 0.00198436 0.00273214 0.00302554 0.00285779 0.00225507 0.0012756 6.56463e-06 0.000801403 -0.000875529 -0.00246495 -0.00396897 -0.00540147 -0.00677957 -0.00811917 -0.00943252 -0.0107272 -0.0120055 -0.0132646 -0.0144961 -0.0156866 -0.0168176 -0.0178662 -0.0188057 -0.0196057 -0.0202338 -0.0206565 -0.0208408 -0.0207558 -0.0203753 -0.0196799 -0.0186599 -0.0173178 -0.0156713 -0.0137552 -0.0116232 -0.009348 -0.00702022 -0.00474478 -0.00263533 -0.000806105 0.000637799 0.0016111 0.00205814 0.00196011 0.00133834 0.000253154 -0.00120052 -0.000350878 -0.00207086 -0.0036999 -0.00524476 -0.00672352 -0.00815671 -0.00956274 -0.0109557 -0.0123443 -0.0137317 -0.0151154 -0.016487 -0.0178327 -0.0191331 -0.0203636 -0.0214948 -0.0224932 -0.0233216 -0.0239411 -0.0243118 -0.0243952 -0.0241565 -0.0235671 -0.022608 -0.0212731 -0.0195728 -0.0175369 -0.0152176 -0.0126904 -0.0100542 -0.00742823 -0.00494617 -0.00274707 -0.000963481 0.000292079 0.000940416 0.00094601 0.000322144 -0.000870259 -0.00252889 -0.00185594 -0.00360225 -0.0052566 -0.00683007 -0.00834457 -0.00982374 -0.0112884 -0.0127544 -0.0142319 -0.0157252 -0.0172321 -0.0187449 -0.0202494 -0.0217256 -0.0231473 -0.024483 -0.0256955 -0.0267435 -0.0275819 -0.028164 -0.028443 -0.0283744 -0.0279195 -0.0270485 -0.025745 -0.0240095 -0.0218646 -0.0193583 -0.0165669 -0.013596 -0.0105787 -0.00767 -0.00503689 -0.00284457 -0.00123936 -0.000331046 -0.000178223 -0.00078024 -0.00207799 -0.0039626 -0.00372493 -0.00548124 -0.00714693 -0.00873673 -0.0102758 -0.0117905 -0.013304 -0.0148342 -0.0163929 -0.0179856 -0.0196116 -0.0212635 -0.0229275 -0.0245831 -0.0262031 -0.0277536 -0.0291944 -0.0304794 -0.0315581 -0.0323761 -0.032878 -0.0330093 -0.0327199 -0.0319681 -0.030725 -0.0289793 -0.0267436 -0.0240585 -0.0209982 -0.0176725 -0.0142268 -0.0108375 -0.0077025 -0.00502473 -0.00299182 -0.00175289 -0.00139803 -0.00194569 -0.00334224 -0.00547373 -0.00596349 -0.00771448 -0.00937831 -0.0109722 -0.0125238 -0.0140619 -0.0156119 -0.0171942 -0.0188226 -0.0205048 -0.0222414 -0.0240265 -0.0258468 -0.0276817 -0.0295032 -0.0312753 -0.032955 -0.0344917 -0.0358289 -0.0369051 -0.0376558 -0.0380161 -0.037924 -0.0373245 -0.0361748 -0.0344498 -0.0321489 -0.0293024 -0.0259783 -0.0222868 -0.0183828 -0.0144633 -0.010758 -0.00751267 -0.00496427 -0.00331172 -0.00268745 -0.00313793 -0.00462058 -0.00701877 -0.00857152 -0.0103037 -0.0119538 -0.0135399 -0.0150909 -0.0166379 -0.0182087 -0.0198267 -0.0215087 -0.0232651 -0.025099 -0.0270061 -0.0289743 -0.0309834 -0.0330046 -0.0350004 -0.0369246 -0.0387226 -0.0403321 -0.0416844 -0.0427061 -0.0433216 -0.0434566 -0.0430424 -0.042021 -0.0403516 -0.0380181 -0.0350366 -0.0314648 -0.0274086 -0.0230279 -0.0185369 -0.0141971 -0.0103003 -0.007141 -0.00497984 -0.00400514 -0.00430361 -0.00585179 -0.00853424 -0.0115433 -0.0132462 -0.0148724 -0.016439 -0.017975 -0.0195132 -0.0210846 -0.0227166 -0.0244301 -0.0262393 -0.0281507 -0.0301625 -0.0322641 -0.0344361 -0.0366491 -0.0388642 -0.0410323 -0.0430949 -0.044984 -0.0466239 -0.0479324 -0.0488235 -0.0492107 -0.0490115 -0.048152 -0.0465746 -0.0442453 -0.0411632 -0.0373709 -0.0329646 -0.0281032 -0.0230128 -0.0179835 -0.0133546 -0.00948502 -0.0067098 -0.00528961 -0.00536751 -0.00695092 -0.00993156 -0.0148678 -0.016535 -0.0181301 -0.0196659 -0.0211704 -0.0226778 -0.0242239 -0.0258411 -0.0275566 -0.0293898 -0.0313515 -0.0334433 -0.0356569 -0.0379734 -0.0403635 -0.0427865 -0.0451908 -0.0475135 -0.0496815 -0.051612 -0.0532147 -0.0543935 -0.0550503 -0.0550885 -0.0544193 -0.0529672 -0.0506794 -0.0475354 -0.0435588 -0.0388302 -0.0335004 -0.0277997 -0.0220407 -0.0166082 -0.0119299 -0.00842759 -0.00645321 -0.00622686 -0.00780345 -0.0110911 -0.0185294 -0.0201605 -0.0217207 -0.0232149 -0.0246682 -0.0261175 -0.0276045 -0.02917 -0.030849 -0.0326685 -0.0346451 -0.0367846 -0.0390811 -0.0415169 -0.044062 -0.0466742 -0.0492988 -0.051869 -0.0543062 -0.056521 -0.058415 -0.0598828 -0.0608153 -0.0611031 -0.0606423 -0.059341 -0.0571269 -0.0539587 -0.0498379 -0.0448247 -0.0390538 -0.0327507 -0.0262412 -0.0199486 -0.0143701 -0.0100245 -0.00737501 -0.0067446 -0.00825849 -0.011855 -0.0225097 -0.0241121 -0.025638 -0.0270797 -0.0284581 -0.0298141 -0.031199 -0.0326651 -0.0342592 -0.0360178 -0.0379652 -0.040112 -0.0424553 -0.0449779 -0.0476493 -0.050425 -0.0532469 -0.0560437 -0.0587313 -0.0612138 -0.063385 -0.0651308 -0.0663317 -0.0668669 -0.0666188 -0.0654798 -0.0633598 -0.0601965 -0.0559683 -0.0507111 -0.0445371 -0.0376565 -0.0303961 -0.0232071 -0.0166503 -0.0113473 -0.00789235 -0.00674142 -0.00812073 -0.0120193 -0.0267892 -0.0283807 -0.0298784 -0.0312559 -0.0325293 -0.0337469 -0.0349745 -0.0362815 -0.0377306 -0.0393711 -0.0412365 -0.0433431 -0.0456905 -0.0482621 -0.0510255 -0.0539332 -0.056923 -0.0599184 -0.0628294 -0.0655532 -0.0679762 -0.0699758 -0.0714232 -0.0721869 -0.0721377 -0.0711539 -0.0691295 -0.0659831 -0.061671 -0.0562032 -0.049665 -0.0422422 -0.0342492 -0.026149 -0.0185542 -0.0121877 -0.00779102 -0.00598641 -0.00714101 -0.0113244 -0.0313504 -0.0329628 -0.0344445 -0.0357436 -0.0368724 -0.0378927 -0.038893 -0.0399671 -0.0411989 -0.0426542 -0.0443773 -0.0463903 -0.048695 -0.0512738 -0.0540914 -0.057096 -0.0602199 -0.0633806 -0.0664811 -0.0694116 -0.0720507 -0.0742675 -0.0759243 -0.07688 -0.076995 -0.0761361 -0.0741838 -0.0710408 -0.0666439 -0.0609792 -0.0541033 -0.0461719 -0.0374738 -0.0284661 -0.0197938 -0.0122706 -0.00679392 -0.00418614 -0.00500499 -0.00944342 -0.0361833 -0.0378661 -0.0393501 -0.0405508 -0.0414811 -0.0422271 -0.0429118 -0.043663 -0.044593 -0.0457872 -0.0473019 -0.0491648 -0.0513781 -0.0539215 -0.0567549 -0.0598203 -0.0630428 -0.0663323 -0.0695842 -0.0726805 -0.0754915 -0.0778777 -0.0796927 -0.0807865 -0.0810099 -0.0802201 -0.0782867 -0.0751005 -0.0705831 -0.0647011 -0.0574854 -0.0490596 -0.0396782 -0.0297743 -0.0200012 -0.0112422 -0.00454834 -0.000971486 -0.00131925 -0.00596817 -0.0412926 -0.0431184 -0.0446279 -0.0456983 -0.0463545 -0.0467245 -0.0469828 -0.0473041 -0.0478361 -0.048687 -0.049925 -0.0515814 -0.0536565 -0.0561246 -0.0589379 -0.0620297 -0.0653163 -0.068698 -0.0720611 -0.0752784 -0.0782109 -0.08071 -0.0826201 -0.0837821 -0.0840379 -0.0832357 -0.0812367 -0.0779229 -0.073206 -0.0670396 -0.0594354 -0.050489 -0.0404181 -0.0296176 -0.0187237 -0.00865936 -0.000611513 0.0041184 0.0044066 -0.00039073 -0.0467107 -0.0487813 -0.0503396 -0.0512257 -0.051499 -0.0513581 -0.0510528 -0.0508194 -0.0508479 -0.0512706 -0.0521654 -0.0535639 -0.0554602 -0.0578193 -0.0605824 -0.0636713 -0.0669908 -0.0704302 -0.0738647 -0.0771566 -0.0801566 -0.0827059 -0.0846388 -0.0857862 -0.0859805 -0.0850612 -0.0828818 -0.0793175 -0.0742746 -0.0677005 -0.0595971 -0.0500411 -0.0392185 -0.0274809 -0.0154256 -0.00397983 0.00556555 0.0116566 0.0127843 0.00792284 -0.0525193 -0.0549718 -0.0565921 -0.057199 -0.0569304 -0.0561 -0.0550631 -0.0541337 -0.0535481 -0.0534605 -0.0539533 -0.0550519 -0.056739 -0.0589651 -0.0616564 -0.0647202 -0.0680471 -0.0715133 -0.0749815 -0.0783021 -0.081314 -0.0838471 -0.0857241 -0.0867648 -0.0867906 -0.0856308 -0.0831303 -0.079158 -0.0736165 -0.0664522 -0.0576659 -0.0473285 -0.0356067 -0.0228145 -0.00949895 0.00344163 0.014656 0.0223554 0.0245818 0.019772 -0.0588878 -0.0618992 -0.0635608 -0.0637212 -0.0626769 -0.0609209 -0.0589509 -0.0571705 -0.0558611 -0.0551906 -0.0552361 -0.0560079 -0.0574692 -0.0595505 -0.0621588 -0.0651831 -0.0684979 -0.0719644 -0.0754314 -0.078736 -0.0817043 -0.0841532 -0.0858928 -0.0867297 -0.0864722 -0.084937 -0.0819575 -0.0773936 -0.0711429 -0.0631514 -0.0534248 -0.0420391 -0.0291587 -0.0150756 -0.000290365 0.0143487 0.0274756 0.0371042 0.040777 0.0361866 -0.0661429 -0.0699246 -0.0715245 -0.0709458 -0.068781 -0.0657908 -0.0626508 -0.0598572 -0.0577237 -0.0564149 -0.0559872 -0.0564234 -0.0576584 -0.0595961 -0.0621199 -0.0650981 -0.0683868 -0.0718308 -0.0752641 -0.0785095 -0.0813796 -0.0836772 -0.0851981 -0.0857341 -0.0850778 -0.08303 -0.0794082 -0.0740579 -0.0668655 -0.0577718 -0.0467845 -0.0339893 -0.0195618 -0.00379242 0.0128467 0.0295589 0.0449965 0.0570211 0.0626432 0.0585388 -0.0748986 -0.0796632 -0.0809165 -0.0790913 -0.0753006 -0.0706784 -0.0660988 -0.0621313 -0.0590914 -0.0571128 -0.0562094 -0.0563213 -0.0573452 -0.0591523 -0.0615984 -0.0645291 -0.0677811 -0.0711821 -0.0745507 -0.0776955 -0.0804148 -0.082497 -0.0837228 -0.0838673 -0.0827054 -0.0800181 -0.0756016 -0.0692793 -0.0609161 -0.0504346 -0.0378316 -0.0231923 -0.00670265 0.0113357 0.0304567 0.0498994 0.0683416 0.0835212 0.0918881 0.0887472 -0.0863068 -0.0921536 -0.0923893 -0.088449 -0.0823002 -0.075544 -0.0692287 -0.063939 -0.059938 -0.0572873 -0.0559308 -0.0557491 -0.0565906 -0.0582885 -0.060669 -0.0635535 -0.0667593 -0.0700977 -0.0733722 -0.0763775 -0.0788982 -0.0807086 -0.0815738 -0.0812519 -0.0794982 -0.0760707 -0.0707391 -0.0632958 -0.0535704 -0.0414476 -0.0268871 -0.00994404 0.00921342 0.0302877 0.0528172 0.0760633 0.0987196 0.118387 0.13088 0.129655 -0.102562 -0.109134 -0.106876 -0.0993564 -0.0898095 -0.080304 -0.0719431 -0.0652102 -0.0602306 -0.0569393 -0.0551785 -0.0547518 -0.055451 -0.0570678 -0.0593976 -0.0622391 -0.0653908 -0.068649 -0.071804 -0.074638 -0.076923 -0.0784205 -0.078881 -0.0780463 -0.0756514 -0.0714301 -0.0651212 -0.0564778 -0.04528 -0.0313505 -0.0145753 0.00507284 0.0275082 0.052506 0.0796682 0.108323 0.137215 0.163781 0.182992 0.185736 -0.127981 -0.133444 -0.125566 -0.112056 -0.0976805 -0.0847075 -0.0740096 -0.0657691 -0.0598524 -0.0560002 -0.0539187 -0.0533188 -0.0539304 -0.0555034 -0.0578046 -0.0606118 -0.0637085 -0.0668783 -0.0699009 -0.0725484 -0.0745831 -0.0757555 -0.0758043 -0.0744565 -0.071429 -0.0664316 -0.059171 -0.0493562 -0.0367062 -0.0209596 -0.00188819 0.0206844 0.0468573 0.0766197 0.109807 0.146011 0.184255 0.221996 0.253049 0.264388 -0.171449 -0.169436 -0.149522 -0.126211 -0.105161 -0.0879956 -0.0748006 -0.0651389 -0.0584528 -0.0542127 -0.0519586 -0.0513018 -0.0519117 -0.0535021 -0.0558168 -0.0586187 -0.0616809 -0.0647787 -0.0676852 -0.070166 -0.0719768 -0.0728613 -0.0725493 -0.0707571 -0.0671872 -0.061529 -0.0534597 -0.0426452 -0.0287401 -0.0113866 0.00978673 0.0351669 0.0651553 0.100158 0.14056 0.186671 0.23848 0.294445 0.347582 0.378287 -0.252266 -0.222589 -0.178107 -0.139427 -0.109792 -0.0881812 -0.0728472 -0.0622591 -0.0552565 -0.0509911 -0.0488391 -0.0483284 -0.0490872 -0.0508086 -0.0532261 -0.0560974 -0.0591926 -0.0622852 -0.0651464 -0.0675404 -0.0692206 -0.069928 -0.0693886 -0.067313 -0.0633948 -0.0573097 -0.0487132 -0.0372364 -0.0224785 -0.00399349 0.018733 0.046319 0.0795403 0.119407 0.167259 0.224891 0.294643 0.37876 0.47356 0.550053 -0.413213 -0.294639 -0.202854 -0.143116 -0.105344 -0.0811775 -0.0654935 -0.0553381 -0.0489818 -0.0453624 -0.043785 -0.0437625 -0.0449279 -0.0469847 -0.0496772 -0.0527725 -0.0560479 -0.0592834 -0.0622546 -0.0647297 -0.0664652 -0.0672041 -0.0666738 -0.064585 -0.0606294 -0.0544776 -0.0457752 -0.0341351 -0.0191244 -0.000241613 0.0231237 0.0517602 0.0867559 0.129712 0.18312 0.251035 0.340237 0.462023 0.630253 0.823279 -0.752817 -0.345318 -0.186294 -0.116544 -0.0812949 -0.0614276 -0.0495003 -0.0422534 -0.0380869 -0.0361215 -0.0358137 -0.0367877 -0.0387547 -0.041473 -0.0447255 -0.0483072 -0.0520159 -0.055647 -0.0589887 -0.0618189 -0.0639025 -0.0649897 -0.0648145 -0.063093 -0.0595221 -0.0537769 -0.0455066 -0.034327 -0.0198068 -0.00144374 0.0213781 0.0494647 0.0839549 0.126603 0.180389 0.250958 0.35027 0.505473 0.774778 1.27439 0 0 0 0 0 0 0 0 0 0 0 0 0 0 0 0 0 0 0 0 0 0 0 0 0 0 0 0 0 0 0 0 0 0 0 0 0 0 0 0 -0.00204559 -0.00240865 -0.00293554 -0.0034868 -0.00401156 -0.0044809 -0.00487421 -0.00517616 -0.00537574 -0.00546557 -0.00544137 -0.00530153 -0.00504682 -0.00468035 -0.00420757 -0.00363641 -0.00297738 -0.00224363 -0.00145093 -0.000617428 0.000236642 0.00108954 0.00191867 0.0027014 0.00341589 0.00404207 0.00456246 0.00496305 0.00523395 0.00537004 0.00537134 0.00524324 0.00499645 0.0046468 0.00421457 0.00372373 0.00320121 0.00267836 0.00220355 0.00190794 -0.00234782 -0.00254201 -0.00291625 -0.0033528 -0.00378831 -0.00418585 -0.00452176 -0.00477994 -0.00494934 -0.00502257 -0.00499515 -0.00486502 -0.00463234 -0.0042994 -0.00387072 -0.0033531 -0.00275577 -0.00209046 -0.00137131 -0.000614755 0.000160817 0.00093555 0.00168873 0.00239952 0.0030478 0.00361506 0.00408522 0.00444552 0.00468717 0.00480599 0.0048028 0.00468359 0.00445952 0.00414678 0.00376629 0.00334375 0.0029107 0.00250874 0.0022016 0.00210248 -0.00227201 -0.00249552 -0.00283326 -0.00321765 -0.00360077 -0.00395088 -0.00424695 -0.00447477 -0.00462465 -0.00469004 -0.00466674 -0.0045525 -0.00434682 -0.00405102 -0.00366829 -0.00320393 -0.00266545 -0.00206275 -0.00140812 -0.000716121 -3.40767e-06 0.000711712 0.00140981 0.00207104 0.00267594 0.00320637 0.00364643 0.00398335 0.00420834 0.00431729 0.00431118 0.00419632 0.00398436 0.00369206 0.00334102 0.00295771 0.00257421 0.00223043 0.0019783 0.00188498 -0.00201537 -0.00233623 -0.00270348 -0.00308391 -0.00344844 -0.00377554 -0.00405025 -0.00426229 -0.00440455 -0.00447201 -0.00446116 -0.00436971 -0.00419652 -0.00394175 -0.00360705 -0.00319591 -0.00271382 -0.00216858 -0.00157044 -0.000932075 -0.000268512 0.000403184 0.00106438 0.00169553 0.00227704 0.00279017 0.00321818 0.00354729 0.00376778 0.00387475 0.0038687 0.00375587 0.00354809 0.00326251 0.00292105 0.0025499 0.0021792 0.00184304 0.00157895 0.00142421 -0.0016969 -0.00213524 -0.00256445 -0.00297175 -0.00334345 -0.00366854 -0.00393918 -0.00414993 -0.00429691 -0.00437705 -0.00438775 -0.00432672 -0.00419214 -0.00398289 -0.0036989 -0.00334159 -0.00291423 -0.00242235 -0.001874 -0.00127995 -0.000653704 -1.13027e-05 0.000629044 0.00124759 0.0018239 0.00233793 0.0027712 0.00310806 0.00333692 0.00345129 0.00345049 0.00334004 0.00313157 0.00284228 0.00249408 0.00211247 0.0017253 0.00136137 0.00104829 0.000808517 -0.00139497 -0.00195302 -0.00245799 -0.00290976 -0.00330627 -0.00364575 -0.00392721 -0.00415014 -0.00431398 -0.00441766 -0.00445949 -0.00443716 -0.00434806 -0.00418964 -0.00395995 -0.00365815 -0.0032851 -0.00