# vtk DataFile Version 2.0
Presion
ASCII

DATASET STRUCTURED_GRID
DIMENSIONS   40   40   20

POINTS   32000   double
0.0125   0.0125   0.025
0.0375   0.0125   0.025
0.0625   0.0125   0.025
0.0875   0.0125   0.025
0.1125   0.0125   0.025
0.1375   0.0125   0.025
0.1625   0.0125   0.025
0.1875   0.0125   0.025
0.2125   0.0125   0.025
0.2375   0.0125   0.025
0.2625   0.0125   0.025
0.2875   0.0125   0.025
0.3125   0.0125   0.025
0.3375   0.0125   0.025
0.3625   0.0125   0.025
0.3875   0.0125   0.025
0.4125   0.0125   0.025
0.4375   0.0125   0.025
0.4625   0.0125   0.025
0.4875   0.0125   0.025
0.5125   0.0125   0.025
0.5375   0.0125   0.025
0.5625   0.0125   0.025
0.5875   0.0125   0.025
0.6125   0.0125   0.025
0.6375   0.0125   0.025
0.6625   0.0125   0.025
0.6875   0.0125   0.025
0.7125   0.0125   0.025
0.7375   0.0125   0.025
0.7625   0.0125   0.025
0.7875   0.0125   0.025
0.8125   0.0125   0.025
0.8375   0.0125   0.025
0.8625   0.0125   0.025
0.8875   0.0125   0.025
0.9125   0.0125   0.025
0.9375   0.0125   0.025
0.9625   0.0125   0.025
0.9875   0.0125   0.025
0.0125   0.0375   0.025
0.0375   0.0375   0.025
0.0625   0.0375   0.025
0.0875   0.0375   0.025
0.1125   0.0375   0.025
0.1375   0.0375   0.025
0.1625   0.0375   0.025
0.1875   0.0375   0.025
0.2125   0.0375   0.025
0.2375   0.0375   0.025
0.2625   0.0375   0.025
0.2875   0.0375   0.025
0.3125   0.0375   0.025
0.3375   0.0375   0.025
0.3625   0.0375   0.025
0.3875   0.0375   0.025
0.4125   0.0375   0.025
0.4375   0.0375   0.025
0.4625   0.0375   0.025
0.4875   0.0375   0.025
0.5125   0.0375   0.025
0.5375   0.0375   0.025
0.5625   0.0375   0.025
0.5875   0.0375   0.025
0.6125   0.0375   0.025
0.6375   0.0375   0.025
0.6625   0.0375   0.025
0.6875   0.0375   0.025
0.7125   0.0375   0.025
0.7375   0.0375   0.025
0.7625   0.0375   0.025
0.7875   0.0375   0.025
0.8125   0.0375   0.025
0.8375   0.0375   0.025
0.8625   0.0375   0.025
0.8875   0.0375   0.025
0.9125   0.0375   0.025
0.9375   0.0375   0.025
0.9625   0.0375   0.025
0.9875   0.0375   0.025
0.0125   0.0625   0.025
0.0375   0.0625   0.025
0.0625   0.0625   0.025
0.0875   0.0625   0.025
0.1125   0.0625   0.025
0.1375   0.0625   0.025
0.1625   0.0625   0.025
0.1875   0.0625   0.025
0.2125   0.0625   0.025
0.2375   0.0625   0.025
0.2625   0.0625   0.025
0.2875   0.0625   0.025
0.3125   0.0625   0.025
0.3375   0.0625   0.025
0.3625   0.0625   0.025
0.3875   0.0625   0.025
0.4125   0.0625   0.025
0.4375   0.0625   0.025
0.4625   0.0625   0.025
0.4875   0.0625   0.025
0.5125   0.0625   0.025
0.5375   0.0625   0.025
0.5625   0.0625   0.025
0.5875   0.0625   0.025
0.6125   0.0625   0.025
0.6375   0.0625   0.025
0.6625   0.0625   0.025
0.6875   0.0625   0.025
0.7125   0.0625   0.025
0.7375   0.0625   0.025
0.7625   0.0625   0.025
0.7875   0.0625   0.025
0.8125   0.0625   0.025
0.8375   0.0625   0.025
0.8625   0.0625   0.025
0.8875   0.0625   0.025
0.9125   0.0625   0.025
0.9375   0.0625   0.025
0.9625   0.0625   0.025
0.9875   0.0625   0.025
0.0125   0.0875   0.025
0.0375   0.0875   0.025
0.0625   0.0875   0.025
0.0875   0.0875   0.025
0.1125   0.0875   0.025
0.1375   0.0875   0.025
0.1625   0.0875   0.025
0.1875   0.0875   0.025
0.2125   0.0875   0.025
0.2375   0.0875   0.025
0.2625   0.0875   0.025
0.2875   0.0875   0.025
0.3125   0.0875   0.025
0.3375   0.0875   0.025
0.3625   0.0875   0.025
0.3875   0.0875   0.025
0.4125   0.0875   0.025
0.4375   0.0875   0.025
0.4625   0.0875   0.025
0.4875   0.0875   0.025
0.5125   0.0875   0.025
0.5375   0.0875   0.025
0.5625   0.0875   0.025
0.5875   0.0875   0.025
0.6125   0.0875   0.025
0.6375   0.0875   0.025
0.6625   0.0875   0.025
0.6875   0.0875   0.025
0.7125   0.0875   0.025
0.7375   0.0875   0.025
0.7625   0.0875   0.025
0.7875   0.0875   0.025
0.8125   0.0875   0.025
0.8375   0.0875   0.025
0.8625   0.0875   0.025
0.8875   0.0875   0.025
0.9125   0.0875   0.025
0.9375   0.0875   0.025
0.9625   0.0875   0.025
0.9875   0.0875   0.025
0.0125   0.1125   0.025
0.0375   0.1125   0.025
0.0625   0.1125   0.025
0.0875   0.1125   0.025
0.1125   0.1125   0.025
0.1375   0.1125   0.025
0.1625   0.1125   0.025
0.1875   0.1125   0.025
0.2125   0.1125   0.025
0.2375   0.1125   0.025
0.2625   0.1125   0.025
0.2875   0.1125   0.025
0.3125   0.1125   0.025
0.3375   0.1125   0.025
0.3625   0.1125   0.025
0.3875   0.1125   0.025
0.4125   0.1125   0.025
0.4375   0.1125   0.025
0.4625   0.1125   0.025
0.4875   0.1125   0.025
0.5125   0.1125   0.025
0.5375   0.1125   0.025
0.5625   0.1125   0.025
0.5875   0.1125   0.025
0.6125   0.1125   0.025
0.6375   0.1125   0.025
0.6625   0.1125   0.025
0.6875   0.1125   0.025
0.7125   0.1125   0.025
0.7375   0.1125   0.025
0.7625   0.1125   0.025
0.7875   0.1125   0.025
0.8125   0.1125   0.025
0.8375   0.1125   0.025
0.8625   0.1125   0.025
0.8875   0.1125   0.025
0.9125   0.1125   0.025
0.9375   0.1125   0.025
0.9625   0.1125   0.025
0.9875   0.1125   0.025
0.0125   0.1375   0.025
0.0375   0.1375   0.025
0.0625   0.1375   0.025
0.0875   0.1375   0.025
0.1125   0.1375   0.025
0.1375   0.1375   0.025
0.1625   0.1375   0.025
0.1875   0.1375   0.025
0.2125   0.1375   0.025
0.2375   0.1375   0.025
0.2625   0.1375   0.025
0.2875   0.1375   0.025
0.3125   0.1375   0.025
0.3375   0.1375   0.025
0.3625   0.1375   0.025
0.3875   0.1375   0.025
0.4125   0.1375   0.025
0.4375   0.1375   0.025
0.4625   0.1375   0.025
0.4875   0.1375   0.025
0.5125   0.1375   0.025
0.5375   0.1375   0.025
0.5625   0.1375   0.025
0.5875   0.1375   0.025
0.6125   0.1375   0.025
0.6375   0.1375   0.025
0.6625   0.1375   0.025
0.6875   0.1375   0.025
0.7125   0.1375   0.025
0.7375   0.1375   0.025
0.7625   0.1375   0.025
0.7875   0.1375   0.025
0.8125   0.1375   0.025
0.8375   0.1375   0.025
0.8625   0.1375   0.025
0.8875   0.1375   0.025
0.9125   0.1375   0.025
0.9375   0.1375   0.025
0.9625   0.1375   0.025
0.9875   0.1375   0.025
0.0125   0.1625   0.025
0.0375   0.1625   0.025
0.0625   0.1625   0.025
0.0875   0.1625   0.025
0.1125   0.1625   0.025
0.1375   0.1625   0.025
0.1625   0.1625   0.025
0.1875   0.1625   0.025
0.2125   0.1625   0.025
0.2375   0.1625   0.025
0.2625   0.1625   0.025
0.2875   0.1625   0.025
0.3125   0.1625   0.025
0.3375   0.1625   0.025
0.3625   0.1625   0.025
0.3875   0.1625   0.025
0.4125   0.1625   0.025
0.4375   0.1625   0.025
0.4625   0.1625   0.025
0.4875   0.1625   0.025
0.5125   0.1625   0.025
0.5375   0.1625   0.025
0.5625   0.1625   0.025
0.5875   0.1625   0.025
0.6125   0.1625   0.025
0.6375   0.1625   0.025
0.6625   0.1625   0.025
0.6875   0.1625   0.025
0.7125   0.1625   0.025
0.7375   0.1625   0.025
0.7625   0.1625   0.025
0.7875   0.1625   0.025
0.8125   0.1625   0.025
0.8375   0.1625   0.025
0.8625   0.1625   0.025
0.8875   0.1625   0.025
0.9125   0.1625   0.025
0.9375   0.1625   0.025
0.9625   0.1625   0.025
0.9875   0.1625   0.025
0.0125   0.1875   0.025
0.0375   0.1875   0.025
0.0625   0.1875   0.025
0.0875   0.1875   0.025
0.1125   0.1875   0.025
0.1375   0.1875   0.025
0.1625   0.1875   0.025
0.1875   0.1875   0.025
0.2125   0.1875   0.025
0.2375   0.1875   0.025
0.2625   0.1875   0.025
0.2875   0.1875   0.025
0.3125   0.1875   0.025
0.3375   0.1875   0.025
0.3625   0.1875   0.025
0.3875   0.1875   0.025
0.4125   0.1875   0.025
0.4375   0.1875   0.025
0.4625   0.1875   0.025
0.4875   0.1875   0.025
0.5125   0.1875   0.025
0.5375   0.1875   0.025
0.5625   0.1875   0.025
0.5875   0.1875   0.025
0.6125   0.1875   0.025
0.6375   0.1875   0.025
0.6625   0.1875   0.025
0.6875   0.1875   0.025
0.7125   0.1875   0.025
0.7375   0.1875   0.025
0.7625   0.1875   0.025
0.7875   0.1875   0.025
0.8125   0.1875   0.025
0.8375   0.1875   0.025
0.8625   0.1875   0.025
0.8875   0.1875   0.025
0.9125   0.1875   0.025
0.9375   0.1875   0.025
0.9625   0.1875   0.025
0.9875   0.1875   0.025
0.0125   0.2125   0.025
0.0375   0.2125   0.025
0.0625   0.2125   0.025
0.0875   0.2125   0.025
0.1125   0.2125   0.025
0.1375   0.2125   0.025
0.1625   0.2125   0.025
0.1875   0.2125   0.025
0.2125   0.2125   0.025
0.2375   0.2125   0.025
0.2625   0.2125   0.025
0.2875   0.2125   0.025
0.3125   0.2125   0.025
0.3375   0.2125   0.025
0.3625   0.2125   0.025
0.3875   0.2125   0.025
0.4125   0.2125   0.025
0.4375   0.2125   0.025
0.4625   0.2125   0.025
0.4875   0.2125   0.025
0.5125   0.2125   0.025
0.5375   0.2125   0.025
0.5625   0.2125   0.025
0.5875   0.2125   0.025
0.6125   0.2125   0.025
0.6375   0.2125   0.025
0.6625   0.2125   0.025
0.6875   0.2125   0.025
0.7125   0.2125   0.025
0.7375   0.2125   0.025
0.7625   0.2125   0.025
0.7875   0.2125   0.025
0.8125   0.2125   0.025
0.8375   0.2125   0.025
0.8625   0.2125   0.025
0.8875   0.2125   0.025
0.9125   0.2125   0.025
0.9375   0.2125   0.025
0.9625   0.2125   0.025
0.9875   0.2125   0.025
0.0125   0.2375   0.025
0.0375   0.2375   0.025
0.0625   0.2375   0.025
0.0875   0.2375   0.025
0.1125   0.2375   0.025
0.1375   0.2375   0.025
0.1625   0.2375   0.025
0.1875   0.2375   0.025
0.2125   0.2375   0.025
0.2375   0.2375   0.025
0.2625   0.2375   0.025
0.2875   0.2375   0.025
0.3125   0.2375   0.025
0.3375   0.2375   0.025
0.3625   0.2375   0.025
0.3875   0.2375   0.025
0.4125   0.2375   0.025
0.4375   0.2375   0.025
0.4625   0.2375   0.025
0.4875   0.2375   0.025
0.5125   0.2375   0.025
0.5375   0.2375   0.025
0.5625   0.2375   0.025
0.5875   0.2375   0.025
0.6125   0.2375   0.025
0.6375   0.2375   0.025
0.6625   0.2375   0.025
0.6875   0.2375   0.025
0.7125   0.2375   0.025
0.7375   0.2375   0.025
0.7625   0.2375   0.025
0.7875   0.2375   0.025
0.8125   0.2375   0.025
0.8375   0.2375   0.025
0.8625   0.2375   0.025
0.8875   0.2375   0.025
0.9125   0.2375   0.025
0.9375   0.2375   0.025
0.9625   0.2375   0.025
0.9875   0.2375   0.025
0.0125   0.2625   0.025
0.0375   0.2625   0.025
0.0625   0.2625   0.025
0.0875   0.2625   0.025
0.1125   0.2625   0.025
0.1375   0.2625   0.025
0.1625   0.2625   0.025
0.1875   0.2625   0.025
0.2125   0.2625   0.025
0.2375   0.2625   0.025
0.2625   0.2625   0.025
[...]
POINT_DATA   32000
SCALARS Presion double
LOOKUP_TABLE   Presion

0 0 0 0 0 0 0 0 0 0 0 0 0 0 0 0 0 0 0 0 0 0 0 0 0 0 0 0 0 0 0 0 0 0 0 0 0 0 0 0 -0.0020101 -0.00238789 -0.00302934 -0.00376333 -0.00451099 -0.0052212 -0.00585649 -0.00638904 -0.00679877 -0.00707182 -0.00719929 -0.00717624 -0.00700105 -0.00667507 -0.00620254 -0.00559062 -0.00484955 -0.0039928 -0.00303711 -0.00200237 -0.000911405 0.000210511 0.00133629 0.00243779 0.00348678 0.00445583 0.00531935 0.00605458 0.00664248 0.00706862 0.00732392 0.00740527 0.00731599 0.0070659 0.00667114 0.00615336 0.00553886 0.00485999 0.00417255 0.00366205 -0.00217792 -0.00239788 -0.00290083 -0.00354188 -0.00422971 -0.00490355 -0.00552086 -0.00605122 -0.00647294 -0.00677089 -0.00693499 -0.0069591 -0.00684035 -0.00657876 -0.00617706 -0.00564079 -0.00497832 -0.00420101 -0.00332327 -0.00236249 -0.00133888 -0.000275092 0.000804222 0.00187309 0.00290495 0.00387351 0.00475366 0.00552242 0.00615987 0.00665011 0.00698215 0.00715068 0.00715685 0.00700878 0.00672214 0.00632094 0.0058396 0.00532943 0.0048789 0.0046707 -0.00185794 -0.00214441 -0.0026424 -0.00326169 -0.00392929 -0.00459058 -0.0052055 -0.00574494 -0.00618784 -0.00651917 -0.00672844 -0.00680869 -0.0067558 -0.0065682 -0.00624673 -0.00579469 -0.00521796 -0.00452521 -0.00372797 -0.00284072 -0.00188084 -0.000868386 0.000174207 0.00122263 0.00225134 0.0032343 0.00414592 0.00496199 0.00566075 0.00622399 0.00663812 0.0068952 0.00699389 0.00694034 0.00674905 0.00644408 0.00606132 0.00565346 0.00530098 0.00513109 -0.00126713 -0.00169996 -0.00227158 -0.00292672 -0.00361347 -0.00428919 -0.00492091 -0.00548383 -0.00595952 -0.0063343 -0.00659804 -0.00674332 -0.0067649 -0.00665951 -0.00642579 -0.00606446 -0.00557852 -0.00497351 -0.00425777 -0.00344266 -0.00254259 -0.00157509 -0.000560603 0.000477884 0.00151532 0.00252533 0.00348111 0.00435646 0.00512701 0.00577149 0.00627298 0.00662021 0.00680874 0.00684192 0.00673195 0.00650082 0.00618194 0.00582273 0.00548906 0.00526893 -0.000546491 -0.00114865 -0.00183264 -0.00256114 -0.0032981 -0.00401272 -0.00468044 -0.00528224 -0.00580347 -0.00623267 -0.00656063 -0.00677982 -0.006884 -0.00686817 -0.00672869 -0.00646346 -0.00607237 -0.00555762 -0.00492415 -0.00418003 -0.00333669 -0.00240911 -0.00141584 -0.000378781 0.000677232 0.00172507 0.00273624 0.003682 0.00453468 0.00526919 0.00586453 0.0063053 0.00658304 0.00669747 0.0066574 0.00648162 0.00619972 0.00585318 0.00549655 0.00519651 0.000206512 -0.000565553 -0.00137725 -0.00219992 -0.00300813 -0.00378081 -0.00450129 -0.00515646 -0.00573582 -0.00623047 -0.00663245 -0.00693431 -0.00712894 -0.00720968 -0.0071705 -0.00700649 -0.00671427 -0.00629258 -0.00574286 -0.00506975 -0.00428159 -0.00339078 -0.00241393 -0.00137186 -0.000289296 0.000805697 0.00188263 0.00290976 0.00385558 0.00469044 0.00538841 0.00592897 0.00629873 0.00649278 0.00651579 0.00638274 0.00611941 0.0057627 0.00536044 0.00496962 0.000919129 -1.45467e-05 -0.000956405 -0.00188229 -0.00277399 -0.003618 -0.00440432 -0.00512521 -0.00577407 -0.00634454 -0.00682995 -0.00722301 -0.0075158 -0.00770003 -0.00776738 -0.00771004 -0.00752138 -0.0071966 -0.00673351 -0.00613321 -0.00540078 -0.00454583 -0.00358286 -0.00253145 -0.00141611 -0.000265823 0.000886786 0.00200667 0.00305792 0.00400564 0.00481798 0.00546831 0.00593715 0.00621397 0.00629849 0.00620153 0.00594548 0.00556425 0.00510274 0.00461515 0.00153327 0.000449872 -0.0006176 -0.00164805 -0.00262867 -0.00355189 -0.00441322 -0.00520945 -0.00593738 -0.00659288 -0.00717041 -0.00766281 -0.00806138 -0.00835625 -0.00853681 -0.00859246 -0.00851325 -0.00829081 -0.00791919 -0.00739576 -0.00672207 -0.00590462 -0.00495545 -0.00389255 -0.0027399 -0.00152723 -0.000289247 0.000935472 0.00210616 0.00318189 0.00412393 0.00489827 0.00547809 0.00584604 0.00599594 0.00593406 0.00567965 0.00526498 0.00473467 0.0041443 0.00200015 0.000780451 -0.000404227 -0.00153567 -0.00260565 -0.00361158 -0.00455347 -0.00543187 -0.00624637 -0.00699468 -0.00767213 -0.00827156 -0.00878349 -0.00919648 -0.00949775 -0.00967386 -0.0097116 -0.00959892 -0.00932596 -0.00888608 -0.00827693 -0.00750145 -0.00656869 -0.00549448 -0.00430181 -0.00302073 -0.00168787 -0.000345401 0.000960642 0.00218253 0.00327353 0.00419088 0.00489891 0.00537194 0.00559673 0.00557425 0.00532062 0.00486727 0.00426035 0.00355943 0.00227738 0.000935599 -0.000355651 -0.00158137 -0.00273768 -0.00382637 -0.00485133 -0.00581616 -0.00672271 -0.00757008 -0.00835425 -0.00906793 -0.00970079 -0.0102399 -0.0106703 -0.0109757 -0.0111397 -0.0111465 -0.010982 -0.0106353 -0.0100996 -0.00937364 -0.00846285 -0.00738017 -0.00614684 -0.00479266 -0.00335579 -0.00188192 -0.000422672 0.000966674 0.00223017 0.00331473 0.004174 0.00477217 0.00508728 0.0051139 0.00486455 0.0043702 0.00367958 0.00285796 0.00232745 0.000878379 -0.000507425 -0.00181867 -0.00305584 -0.00422481 -0.00533284 -0.00638615 -0.00738834 -0.00833962 -0.00923633 -0.010071 -0.0108323 -0.011506 -0.0120748 -0.01252 -0.0128216 -0.01296 -0.0129166 -0.0126757 -0.0122256 -0.0115602 -0.0106803 -0.00959498 -0.00832288 -0.0068927 -0.00534351 -0.0037242 -0.00209216 -0.000510936 0.000953038 0.00223458 0.00327451 0.00402454 0.00445192 0.00454309 0.00430603 0.00377103 0.00299004 0.00203507 0.00211699 0.000575971 -0.000891441 -0.00227812 -0.00358899 -0.00483385 -0.00602303 -0.00716496 -0.00826473 -0.00932336 -0.0103374 -0.0112992 -0.0121965 -0.0130136 -0.0137313 -0.014328 -0.0147804 -0.0150648 -0.0151579 -0.0150387 -0.01469 -0.0140998 -0.0132633 -0.0121848 -0.010879 -0.00937241 -0.00770405 -0.00592552 -0.0040999 -0.00229956 -0.00060269 0.000911463 0.00216834 0.0031044 0.00367325 0.00385088 0.00363909 0.00306678 0.00218922 0.00108585 0.00161659 -5.22361e-07 -0.00153593 -0.00298705 -0.00436329 -0.00567822 -0.00694501 -0.00817409 -0.00937183 -0.0105399 -0.0116752 -0.0127695 -0.01381 -0.0147796 -0.0156571 -0.0164183 -0.0170364 -0.0174834 -0.0177311 -0.0177527 -0.0175246 -0.0170281 -0.0162517 -0.0151935 -0.0138628 -0.0122827 -0.0104908 -0.00854052 -0.0065002 -0.00445136 -0.0024851 -0.000696825 0.000820643 0.00198504 0.00273279 0.00302618 0.00285843 0.00225572 0.00127627 7.27496e-06 0.000800827 -0.000876023 -0.00246537 -0.00396932 -0.00540173 -0.00677975 -0.00811924 -0.00943249 -0.010727 -0.0120053 -0.0132642 -0.0144956 -0.0156859 -0.0168168 -0.0178653 -0.0188047 -0.0196046 -0.0202326 -0.0206553 -0.0208394 -0.0207544 -0.0203739 -0.0196785 -0.0186585 -0.0173164 -0.01567 -0.0137539 -0.011622 -0.00934687 -0.00701916 -0.00474381 -0.00263442 -0.000805262 0.00063859 0.00161186 0.00205887 0.00196083 0.00133907 0.000253911 -0.00119972 -0.000351364 -0.00207127 -0.00370024 -0.00524502 -0.0067237 -0.00815681 -0.00956274 -0.0109556 -0.012344 -0.0137314 -0.0151149 -0.0164864 -0.017832 -0.0191322 -0.0203626 -0.0214937 -0.0224919 -0.0233202 -0.0239396 -0.0243103 -0.0243937 -0.0241549 -0.0235654 -0.0226064 -0.0212715 -0.0195713 -0.0175355 -0.0152162 -0.012689 -0.010053 -0.00742709 -0.00494512 -0.00274609 -0.000962572 0.000292938 0.000941242 0.000946823 0.000322962 -0.00086942 -0.00252802 -0.00185631 -0.00360255 -0.00525684 -0.00683024 -0.00834467 -0.00982375 -0.0112883 -0.0127542 -0.0142316 -0.0157247 -0.0172315 -0.0187442 -0.0202485 -0.0217245 -0.0231461 -0.0244816 -0.025694 -0.0267419 -0.0275802 -0.0281623 -0.0284412 -0.0283725 -0.0279176 -0.0270467 -0.0257432 -0.0240078 -0.0218629 -0.0193567 -0.0165654 -0.0135946 -0.0105774 -0.0076688 -0.00503578 -0.00284354 -0.00123839 -0.000330121 -0.000177321 -0.00077934 -0.00207707 -0.00396164 -0.00372517 -0.00548142 -0.00714706 -0.0087368 -0.0102758 -0.0117904 -0.0133038 -0.0148339 -0.0163924 -0.017985 -0.0196109 -0.0212626 -0.0229265 -0.0245819 -0.0262017 -0.0277521 -0.0291927 -0.0304777 -0.0315562 -0.0323742 -0.032876 -0.0330073 -0.0327179 -0.0319661 -0.030723 -0.0289774 -0.0267417 -0.0240567 -0.0209965 -0.0176709 -0.0142253 -0.0108362 -0.00770125 -0.00502358 -0.00299074 -0.00175187 -0.00139704 -0.0019447 -0.00334124 -0.00547269 -0.00596357 -0.00771453 -0.00937831 -0.0109722 -0.0125237 -0.0140617 -0.0156116 -0.0171937 -0.018822 -0.0205041 -0.0222405 -0.0240255 -0.0258456 -0.0276803 -0.0295016 -0.0312736 -0.0329531 -0.0344897 -0.0358269 -0.036903 -0.0376537 -0.0380139 -0.0379218 -0.0373223 -0.0361726 -0.0344477 -0.0321468 -0.0293005 -0.0259764 -0.022285 -0.0183812 -0.0144618 -0.0107566 -0.0075114 -0.00496308 -0.00331061 -0.00268638 -0.00313687 -0.00461952 -0.00701767 -0.00857145 -0.0103036 -0.0119536 -0.0135397 -0.0150907 -0.0166375 -0.0182083 -0.0198261 -0.0215081 -0.0232643 -0.025098 -0.027005 -0.028973 -0.0309819 -0.0330029 -0.0349985 -0.0369226 -0.0387205 -0.0403299 -0.0416822 -0.0427038 -0.0433192 -0.0434542 -0.04304 -0.0420187 -0.0403494 -0.0380159 -0.0350345 -0.0314628 -0.0274067 -0.0230261 -0.0185352 -0.0141956 -0.0102989 -0.00713972 -0.00497864 -0.004004 -0.00430249 -0.00585067 -0.00853308 -0.011543 -0.0132459 -0.0148721 -0.0164387 -0.0179747 -0.0195127 -0.0210841 -0.0227159 -0.0244293 -0.0262384 -0.0281496 -0.0301612 -0.0322627 -0.0344344 -0.0366473 -0.0388622 -0.0410302 -0.0430927 -0.0449817 -0.0466215 -0.0479299 -0.048821 -0.0492082 -0.049009 -0.0481496 -0.0465722 -0.044243 -0.041161 -0.0373688 -0.0329626 -0.0281013 -0.023011 -0.0179819 -0.0133531 -0.00948365 -0.00670853 -0.00528841 -0.00536633 -0.00694975 -0.00993036 -0.0148673 -0.0165345 -0.0181296 -0.0196655 -0.0211699 -0.0226773 -0.0242232 -0.0258404 -0.0275557 -0.0293887 -0.0313503 -0.0334419 -0.0356553 -0.0379717 -0.0403616 -0.0427845 -0.0451886 -0.0475112 -0.049679 -0.0516095 -0.0532121 -0.0543909 -0.0550477 -0.055086 -0.0544167 -0.0529647 -0.0506771 -0.0475332 -0.0435566 -0.0388282 -0.0334985 -0.0277979 -0.0220391 -0.0166067 -0.0119285 -0.00842626 -0.00645195 -0.00622565 -0.00780226 -0.0110898 -0.0185288 -0.0201599 -0.0217201 -0.0232143 -0.0246676 -0.0261168 -0.0276038 -0.0291691 -0.030848 -0.0326674 -0.0346438 -0.0367832 -0.0390795 -0.041515 -0.04406 -0.0466721 -0.0492966 -0.0518666 -0.0543037 -0.0565184 -0.0584124 -0.0598802 -0.0608127 -0.0611005 -0.0606398 -0.0593385 -0.0571246 -0.0539564 -0.0498357 -0.0448226 -0.0390519 -0.0327489 -0.0262395 -0.019947 -0.0143686 -0.0100231 -0.00737373 -0.00674338 -0.00825729 -0.0118538 -0.022509 -0.0241113 -0.0256373 -0.027079 -0.0284574 -0.0298134 -0.0311982 -0.0326642 -0.0342581 -0.0360166 -0.0379639 -0.0401105 -0.0424536 -0.044976 -0.0476473 -0.0504228 -0.0532446 -0.0560413 -0.0587288 -0.0612112 -0.0633824 -0.0651282 -0.0663291 -0.0668643 -0.0666163 -0.0654774 -0.0633575 -0.0601943 -0.0559662 -0.0507091 -0.0445352 -0.0376547 -0.0303945 -0.0232056 -0.0166489 -0.0113459 -0.00789108 -0.0067402 -0.00811954 -0.0120181 -0.0267882 -0.0283798 -0.0298776 -0.0312551 -0.0325285 -0.033746 -0.0349736 -0.0362805 -0.0377295 -0.0393699 -0.0412351 -0.0433416 -0.0456888 -0.0482602 -0.0510234 -0.053931 -0.0569207 -0.059916 -0.0628269 -0.0655506 -0.0679736 -0.0699733 -0.0714207 -0.0721845 -0.0721353 -0.0711516 -0.0691273 -0.065981 -0.061669 -0.0562014 -0.0496632 -0.0422405 -0.0342475 -0.0261475 -0.0185527 -0.0121863 -0.00778978 -0.00598523 -0.00713986 -0.0113233 -0.0313493 -0.0329617 -0.0344435 -0.0357426 -0.0368714 -0.0378918 -0.0388921 -0.039966 -0.0411978 -0.042653 -0.0443759 -0.0463888 -0.0486933 -0.0512719 -0.0540894 -0.0570938 -0.0602176 -0.0633782 -0.0664786 -0.0694091 -0.0720482 -0.074265 -0.0759218 -0.0768777 -0.0769928 -0.076134 -0.0741817 -0.0710389 -0.0666421 -0.0609775 -0.0541017 -0.0461703 -0.0374723 -0.0284647 -0.0197924 -0.0122693 -0.00679275 -0.00418503 -0.00500392 -0.00944236 -0.036182 -0.0378649 -0.039349 -0.0405497 -0.0414801 -0.0422261 -0.0429108 -0.043662 -0.0445918 -0.045786 -0.0473006 -0.0491633 -0.0513764 -0.0539197 -0.056753 -0.0598181 -0.0630406 -0.06633 -0.0695818 -0.0726781 -0.0754891 -0.0778753 -0.0796904 -0.0807843 -0.0810079 -0.0802181 -0.0782849 -0.0750988 -0.0705815 -0.0646996 -0.057484 -0.0490582 -0.0396769 -0.0297731 -0.02 -0.0112411 -0.00454727 -0.00097048 -0.00131829 -0.00596724 -0.0412912 -0.0431172 -0.0446267 -0.0456972 -0.0463535 -0.0467235 -0.0469817 -0.0473031 -0.0478349 -0.0486858 -0.0499236 -0.0515799 -0.0536549 -0.0561229 -0.058936 -0.0620277 -0.0653141 -0.0686958 -0.0720589 -0.0752761 -0.0782086 -0.0807078 -0.082618 -0.0837801 -0.084036 -0.0832339 -0.0812351 -0.0779214 -0.0732046 -0.0670383 -0.0594343 -0.0504879 -0.040417 -0.0296166 -0.0187227 -0.0086584 -0.000610597 0.00411927 0.00440743 -0.000389938 -0.0467092 -0.0487799 -0.0503384 -0.0512246 -0.0514979 -0.0513571 -0.0510517 -0.0508184 -0.0508468 -0.0512695 -0.0521642 -0.0535625 -0.0554587 -0.0578176 -0.0605806 -0.0636694 -0.0669888 -0.0704281 -0.0738626 -0.0771545 -0.0801545 -0.0827039 -0.0846368 -0.0857844 -0.0859788 -0.0850597 -0.0828804 -0.0793163 -0.0742735 -0.0676996 -0.0595962 -0.0500403 -0.0392177 -0.0274801 -0.0154249 -0.00397908 0.00556628 0.0116573 0.0127849 0.00792346 -0.0525178 -0.0549705 -0.0565908 -0.0571978 -0.0569293 -0.056099 -0.0550622 -0.0541328 -0.0535471 -0.0534594 -0.0539521 -0.0550507 -0.0567376 -0.0589635 -0.0616548 -0.0647184 -0.0680452 -0.0715113 -0.0749795 -0.0783001 -0.0813121 -0.0838452 -0.0857223 -0.0867631 -0.0867891 -0.0856295 -0.0831292 -0.079157 -0.0736157 -0.0664515 -0.0576653 -0.0473279 -0.0356063 -0.022814 -0.00949846 0.00344214 0.0146565 0.0223559 0.0245823 0.0197725 -0.0588863 -0.0618978 -0.0635595 -0.06372 -0.0626758 -0.0609199 -0.05895 -0.0571696 -0.0558603 -0.0551897 -0.0552352 -0.0560068 -0.057468 -0.0595492 -0.0621573 -0.0651815 -0.0684962 -0.0719626 -0.0754296 -0.0787341 -0.0817025 -0.0841515 -0.0858912 -0.0867282 -0.0864709 -0.0849359 -0.0819565 -0.0773928 -0.0711423 -0.063151 -0.0534245 -0.0420388 -0.0291585 -0.0150754 -0.00029015 0.0143489 0.0274759 0.0371045 0.0407773 0.0361868 -0.0661414 -0.0699233 -0.0715233 -0.0709446 -0.06878 -0.0657899 -0.06265 -0.0598565 -0.057723 -0.0564141 -0.0559863 -0.0564224 -0.0576573 -0.0595949 -0.0621185 -0.0650966 -0.0683852 -0.0718292 -0.0752624 -0.0785078 -0.0813779 -0.0836756 -0.0851967 -0.0857328 -0.0850767 -0.0830291 -0.0794075 -0.0740574 -0.0668652 -0.0577716 -0.0467844 -0.0339894 -0.0195619 -0.00379251 0.0128466 0.0295589 0.0449966 0.0570211 0.0626433 0.0585388 -0.0748973 -0.0796619 -0.0809153 -0.0790902 -0.0752997 -0.0706776 -0.0660982 -0.0621307 -0.0590908 -0.0571122 -0.0562087 -0.0563206 -0.0573443 -0.0591512 -0.0615972 -0.0645278 -0.0677796 -0.0711806 -0.0745492 -0.077694 -0.0804133 -0.0824956 -0.0837215 -0.0838662 -0.0827045 -0.0800173 -0.075601 -0.069279 -0.060916 -0.0504346 -0.0378317 -0.0231926 -0.00670297 0.0113353 0.0304564 0.0498991 0.0683413 0.083521 0.0918879 0.0887469 -0.0863055 -0.0921524 -0.0923882 -0.0884481 -0.0822994 -0.0755433 -0.0692282 -0.0639386 -0.0599376 -0.0572868 -0.0559303 -0.0557485 -0.0565898 -0.0582876 -0.0606679 -0.0635523 -0.066758 -0.0700963 -0.0733708 -0.0763761 -0.0788968 -0.0807073 -0.0815726 -0.0812509 -0.0794973 -0.0760701 -0.0707387 -0.0632956 -0.0535704 -0.0414478 -0.0268874 -0.00994448 0.0092129 0.0302871 0.0528167 0.0760628 0.0987192 0.118387 0.130879 0.129655 -0.102561 -0.109133 -0.106875 -0.0993556 -0.0898089 -0.0803035 -0.0719428 -0.0652099 -0.0602304 -0.056939 -0.0551782 -0.0547514 -0.0554504 -0.057067 -0.0593967 -0.062238 -0.0653896 -0.0686478 -0.0718027 -0.0746367 -0.0769218 -0.0784193 -0.07888 -0.0780453 -0.0756507 -0.0714296 -0.0651208 -0.0564777 -0.0452801 -0.0313508 -0.0145758 0.00507226 0.0275075 0.0525053 0.0796674 0.108323 0.137214 0.16378 0.182991 0.185736 -0.12798 -0.133443 -0.125565 -0.112055 -0.09768 -0.0847072 -0.0740094 -0.065769 -0.0598523 -0.0560001 -0.0539185 -0.0533185 -0.0539299 -0.0555027 -0.0578037 -0.0606108 -0.0637074 -0.0668771 -0.0698997 -0.0725472 -0.0745819 -0.0757544 -0.0758033 -0.0744557 -0.0714284 -0.0664312 -0.0591708 -0.0493562 -0.0367063 -0.0209599 -0.00188872 0.0206837 0.0468566 0.0766188 0.109806 0.14601 0.184255 0.221995 0.253048 0.264387 -0.171448 -0.169435 -0.149521 -0.126211 -0.105161 -0.0879954 -0.0748006 -0.0651389 -0.0584528 -0.0542126 -0.0519585 -0.0513015 -0.0519113 -0.0535015 -0.055816 -0.0586179 -0.0616799 -0.0647777 -0.0676841 -0.0701649 -0.0719758 -0.0728602 -0.0725484 -0.0707563 -0.0671866 -0.0615286 -0.0534595 -0.0426453 -0.0287403 -0.011387 0.00978618 0.0351662 0.0651546 0.100157 0.140559 0.186671 0.238479 0.294444 0.347582 0.378286 -0.252265 -0.222589 -0.178106 -0.139426 -0.109792 -0.0881811 -0.0728472 -0.0622592 -0.0552566 -0.0509911 -0.048839 -0.0483282 -0.0490869 -0.0508081 -0.0532254 -0.0560967 -0.0591917 -0.0622842 -0.0651454 -0.0675393 -0.0692196 -0.069927 -0.0693878 -0.0673123 -0.0633943 -0.0573093 -0.048713 -0.0372364 -0.0224787 -0.00399387 0.0187325 0.0463183 0.0795396 0.119406 0.167259 0.22489 0.294643 0.378759 0.473559 0.550052 -0.413213 -0.294638 -0.202854 -0.143116 -0.105344 -0.0811775 -0.0654935 -0.0553382 -0.048982 -0.0453624 -0.043785 -0.0437624 -0.0449277 -0.0469843 -0.0496767 -0.0527718 -0.0560471 -0.0592824 -0.0622537 -0.0647287 -0.0664642 -0.0672031 -0.066673 -0.0645843 -0.0606288 -0.0544772 -0.045775 -0.0341351 -0.0191246 -0.000241961 0.0231232 0.0517596 0.0867552 0.129711 0.183119 0.251034 0.340236 0.462023 0.630252 0.823278 -0.752816 -0.345318 -0.186294 -0.116544 -0.0812946 -0.0614275 -0.0495004 -0.0422535 -0.0380871 -0.0361216 -0.0358138 -0.0367876 -0.0387545 -0.0414726 -0.044725 -0.0483065 -0.0520151 -0.0556461 -0.0589878 -0.0618179 -0.0639015 -0.0649888 -0.0648137 -0.0630923 -0.0595215 -0.0537764 -0.0455063 -0.0343269 -0.0198069 -0.00144405 0.0213776 0.0494641 0.0839542 0.126602 0.180388 0.250957 0.35027 0.505472 0.774777 1.27439 0 0 0 0 0 0 0 0 0 0 0 0 0 0 0 0 0 0 0 0 0 0 0 0 0 0 0 0 0 0 0 0 0 0 0 0 0 0 0 0 -0.00204574 -0.00240881 -0.00293569 -0.00348694 -0.00401168 -0.004481 -0.00487429 -0.00517622 -0.00537577 -0.00546558 -0.00544137 -0.00530151 -0.00504679 -0.00468031 -0.00420753 -0.00363637 -0.00297734 -0.00224361 -0.00145091 -0.000617423 0.000236635 0.00108952 0.00191865 0.00270136 0.00341586 0.00404204 0.00456244 0.00496303 0.00523395 0.00537006 0.00537138 0.0052433 0.00499654 0.00464691 0.0042147 0.00372387 0.00320136 0.00267851 0.0022037 0.00190808 -0.00234803 -0.00254221 -0.00291643 -0.00335297 -0.00378846 -0.00418598 -0.00452186 -0.00478002 -0.0049494 -0.00502261 -0.00499517 -0.00486502 -0.00463232 -0.00429938 -0.0038707 -0.00335307 -0.00275574 -0.00209043 -0.00137129 -0.00061474 0.000160826 0.000935552 0.00168872 0.00239951 0.0030478 0.00361506 0.00408523 0.00444553 0.0046872 0.00480604 0.00480287 0.00468368 0.00445963 0.00414691 0.00376644 0.00334391 0.00291087 0.00250892 0.00220178 0.00210267 -0.00227227 -0.00249576 -0.00283349 -0.00321785 -0.00360095 -0.00395104 -0.00424708 -0.00447488 -0.00462473 -0.0046901 -0.00466678 -0.00455252 -0.00434683 -0.00405101 -0.00366827 -0.0032039 -0.00266542 -0.00206272 -0.00140808 -0.000716089 -3.37778e-06 0.000711739 0.00140983 0.00207106 0.00267597 0.0032064 0.00364647 0.00398339 0.00420841 0.00431737 0.00431128 0.00419644 0.0039845 0.00369221 0.00334119 0.0029579 0.00257442 0.00223064 0.00197852 0.0018852 -0.00201568 -0.00233651 -0.00270374 -0.00308415 -0.00344865 -0.00377573 -0.00405041 -0.00426242 -0.00440465 -0.00447209 -0.00446122 -0.00436975 -0.00419653 -0.00394174 -0.00360703 -0.00319587 -0.00271377 -0.00216853 -0.00157038 -0.000932016 -0.000268452 0.000403244 0.00106444 0.00169559 0.0022771 0.00279024 0.00321825 0.00354737 0.00376788 0.00387486 0.00386883 0.00375601 0.00354825 0.00326269 0.00292125 0.00255012 0.00217943 0.00184329 0.0015792 0.00142447 -0.00169726 -0.00213556 -0.00256474 -0.00297202 -0.00334369 -0.00366875 -0.00393936 -0.00415008 -0.00429703 -0.00437715 -0.00438781 -0.00432676 -0.00419215 -0.00398288 -0.00369887 -0.00334154 -0.00291416 -0.00242226 -0.00187391 -0.00127985 -0.000653603 -1.11997e-05 0.000629148 0.00124769 0.00182401 0.00233804 0.00277131 0.00310818 0.00333706 0.00345143 0.00345065 0.00334022 0.00313177 0.0028425 0.00249432 0.00211272 0.00172557 0.00136166 0.00104859 0.000808824 -0.00139538 -0.00195338 -0.00245831 -0.00291005 -0.00330653 -0.00364598 -0.00392741 -0.00415031 -0.00431412 -0.00441777 -0.00445956 -0.00443719 -0.00434806 -0.00418961 -0.00395989 -0.00365807 -0.00328