# vtk DataFile Version 2.0
Presion
ASCII

DATASET STRUCTURED_GRID
DIMENSIONS   40   40   20

POINTS   32000   double
0.0125   0.0125   0.025
0.0375   0.0125   0.025
0.0625   0.0125   0.025
0.0875   0.0125   0.025
0.1125   0.0125   0.025
0.1375   0.0125   0.025
0.1625   0.0125   0.025
0.1875   0.0125   0.025
0.2125   0.0125   0.025
0.2375   0.0125   0.025
0.2625   0.0125   0.025
0.2875   0.0125   0.025
0.3125   0.0125   0.025
0.3375   0.0125   0.025
0.3625   0.0125   0.025
0.3875   0.0125   0.025
0.4125   0.0125   0.025
0.4375   0.0125   0.025
0.4625   0.0125   0.025
0.4875   0.0125   0.025
0.5125   0.0125   0.025
0.5375   0.0125   0.025
0.5625   0.0125   0.025
0.5875   0.0125   0.025
0.6125   0.0125   0.025
0.6375   0.0125   0.025
0.6625   0.0125   0.025
0.6875   0.0125   0.025
0.7125   0.0125   0.025
0.7375   0.0125   0.025
0.7625   0.0125   0.025
0.7875   0.0125   0.025
0.8125   0.0125   0.025
0.8375   0.0125   0.025
0.8625   0.0125   0.025
0.8875   0.0125   0.025
0.9125   0.0125   0.025
0.9375   0.0125   0.025
0.9625   0.0125   0.025
0.9875   0.0125   0.025
0.0125   0.0375   0.025
0.0375   0.0375   0.025
0.0625   0.0375   0.025
0.0875   0.0375   0.025
0.1125   0.0375   0.025
0.1375   0.0375   0.025
0.1625   0.0375   0.025
0.1875   0.0375   0.025
0.2125   0.0375   0.025
0.2375   0.0375   0.025
0.2625   0.0375   0.025
0.2875   0.0375   0.025
0.3125   0.0375   0.025
0.3375   0.0375   0.025
0.3625   0.0375   0.025
0.3875   0.0375   0.025
0.4125   0.0375   0.025
0.4375   0.0375   0.025
0.4625   0.0375   0.025
0.4875   0.0375   0.025
0.5125   0.0375   0.025
0.5375   0.0375   0.025
0.5625   0.0375   0.025
0.5875   0.0375   0.025
0.6125   0.0375   0.025
0.6375   0.0375   0.025
0.6625   0.0375   0.025
0.6875   0.0375   0.025
0.7125   0.0375   0.025
0.7375   0.0375   0.025
0.7625   0.0375   0.025
0.7875   0.0375   0.025
0.8125   0.0375   0.025
0.8375   0.0375   0.025
0.8625   0.0375   0.025
0.8875   0.0375   0.025
0.9125   0.0375   0.025
0.9375   0.0375   0.025
0.9625   0.0375   0.025
0.9875   0.0375   0.025
0.0125   0.0625   0.025
0.0375   0.0625   0.025
0.0625   0.0625   0.025
0.0875   0.0625   0.025
0.1125   0.0625   0.025
0.1375   0.0625   0.025
0.1625   0.0625   0.025
0.1875   0.0625   0.025
0.2125   0.0625   0.025
0.2375   0.0625   0.025
0.2625   0.0625   0.025
0.2875   0.0625   0.025
0.3125   0.0625   0.025
0.3375   0.0625   0.025
0.3625   0.0625   0.025
0.3875   0.0625   0.025
0.4125   0.0625   0.025
0.4375   0.0625   0.025
0.4625   0.0625   0.025
0.4875   0.0625   0.025
0.5125   0.0625   0.025
0.5375   0.0625   0.025
0.5625   0.0625   0.025
0.5875   0.0625   0.025
0.6125   0.0625   0.025
0.6375   0.0625   0.025
0.6625   0.0625   0.025
0.6875   0.0625   0.025
0.7125   0.0625   0.025
0.7375   0.0625   0.025
0.7625   0.0625   0.025
0.7875   0.0625   0.025
0.8125   0.0625   0.025
0.8375   0.0625   0.025
0.8625   0.0625   0.025
0.8875   0.0625   0.025
0.9125   0.0625   0.025
0.9375   0.0625   0.025
0.9625   0.0625   0.025
0.9875   0.0625   0.025
0.0125   0.0875   0.025
0.0375   0.0875   0.025
0.0625   0.0875   0.025
0.0875   0.0875   0.025
0.1125   0.0875   0.025
0.1375   0.0875   0.025
0.1625   0.0875   0.025
0.1875   0.0875   0.025
0.2125   0.0875   0.025
0.2375   0.0875   0.025
0.2625   0.0875   0.025
0.2875   0.0875   0.025
0.3125   0.0875   0.025
0.3375   0.0875   0.025
0.3625   0.0875   0.025
0.3875   0.0875   0.025
0.4125   0.0875   0.025
0.4375   0.0875   0.025
0.4625   0.0875   0.025
0.4875   0.0875   0.025
0.5125   0.0875   0.025
0.5375   0.0875   0.025
0.5625   0.0875   0.025
0.5875   0.0875   0.025
0.6125   0.0875   0.025
0.6375   0.0875   0.025
0.6625   0.0875   0.025
0.6875   0.0875   0.025
0.7125   0.0875   0.025
0.7375   0.0875   0.025
0.7625   0.0875   0.025
0.7875   0.0875   0.025
0.8125   0.0875   0.025
0.8375   0.0875   0.025
0.8625   0.0875   0.025
0.8875   0.0875   0.025
0.9125   0.0875   0.025
0.9375   0.0875   0.025
0.9625   0.0875   0.025
0.9875   0.0875   0.025
0.0125   0.1125   0.025
0.0375   0.1125   0.025
0.0625   0.1125   0.025
0.0875   0.1125   0.025
0.1125   0.1125   0.025
0.1375   0.1125   0.025
0.1625   0.1125   0.025
0.1875   0.1125   0.025
0.2125   0.1125   0.025
0.2375   0.1125   0.025
0.2625   0.1125   0.025
0.2875   0.1125   0.025
0.3125   0.1125   0.025
0.3375   0.1125   0.025
0.3625   0.1125   0.025
0.3875   0.1125   0.025
0.4125   0.1125   0.025
0.4375   0.1125   0.025
0.4625   0.1125   0.025
0.4875   0.1125   0.025
0.5125   0.1125   0.025
0.5375   0.1125   0.025
0.5625   0.1125   0.025
0.5875   0.1125   0.025
0.6125   0.1125   0.025
0.6375   0.1125   0.025
0.6625   0.1125   0.025
0.6875   0.1125   0.025
0.7125   0.1125   0.025
0.7375   0.1125   0.025
0.7625   0.1125   0.025
0.7875   0.1125   0.025
0.8125   0.1125   0.025
0.8375   0.1125   0.025
0.8625   0.1125   0.025
0.8875   0.1125   0.025
0.9125   0.1125   0.025
0.9375   0.1125   0.025
0.9625   0.1125   0.025
0.9875   0.1125   0.025
0.0125   0.1375   0.025
0.0375   0.1375   0.025
0.0625   0.1375   0.025
0.0875   0.1375   0.025
0.1125   0.1375   0.025
0.1375   0.1375   0.025
0.1625   0.1375   0.025
0.1875   0.1375   0.025
0.2125   0.1375   0.025
0.2375   0.1375   0.025
0.2625   0.1375   0.025
0.2875   0.1375   0.025
0.3125   0.1375   0.025
0.3375   0.1375   0.025
0.3625   0.1375   0.025
0.3875   0.1375   0.025
0.4125   0.1375   0.025
0.4375   0.1375   0.025
0.4625   0.1375   0.025
0.4875   0.1375   0.025
0.5125   0.1375   0.025
0.5375   0.1375   0.025
0.5625   0.1375   0.025
0.5875   0.1375   0.025
0.6125   0.1375   0.025
0.6375   0.1375   0.025
0.6625   0.1375   0.025
0.6875   0.1375   0.025
0.7125   0.1375   0.025
0.7375   0.1375   0.025
0.7625   0.1375   0.025
0.7875   0.1375   0.025
0.8125   0.1375   0.025
0.8375   0.1375   0.025
0.8625   0.1375   0.025
0.8875   0.1375   0.025
0.9125   0.1375   0.025
0.9375   0.1375   0.025
0.9625   0.1375   0.025
0.9875   0.1375   0.025
0.0125   0.1625   0.025
0.0375   0.1625   0.025
0.0625   0.1625   0.025
0.0875   0.1625   0.025
0.1125   0.1625   0.025
0.1375   0.1625   0.025
0.1625   0.1625   0.025
0.1875   0.1625   0.025
0.2125   0.1625   0.025
0.2375   0.1625   0.025
0.2625   0.1625   0.025
0.2875   0.1625   0.025
0.3125   0.1625   0.025
0.3375   0.1625   0.025
0.3625   0.1625   0.025
0.3875   0.1625   0.025
0.4125   0.1625   0.025
0.4375   0.1625   0.025
0.4625   0.1625   0.025
0.4875   0.1625   0.025
0.5125   0.1625   0.025
0.5375   0.1625   0.025
0.5625   0.1625   0.025
0.5875   0.1625   0.025
0.6125   0.1625   0.025
0.6375   0.1625   0.025
0.6625   0.1625   0.025
0.6875   0.1625   0.025
0.7125   0.1625   0.025
0.7375   0.1625   0.025
0.7625   0.1625   0.025
0.7875   0.1625   0.025
0.8125   0.1625   0.025
0.8375   0.1625   0.025
0.8625   0.1625   0.025
0.8875   0.1625   0.025
0.9125   0.1625   0.025
0.9375   0.1625   0.025
0.9625   0.1625   0.025
0.9875   0.1625   0.025
0.0125   0.1875   0.025
0.0375   0.1875   0.025
0.0625   0.1875   0.025
0.0875   0.1875   0.025
0.1125   0.1875   0.025
0.1375   0.1875   0.025
0.1625   0.1875   0.025
0.1875   0.1875   0.025
0.2125   0.1875   0.025
0.2375   0.1875   0.025
0.2625   0.1875   0.025
0.2875   0.1875   0.025
0.3125   0.1875   0.025
0.3375   0.1875   0.025
0.3625   0.1875   0.025
0.3875   0.1875   0.025
0.4125   0.1875   0.025
0.4375   0.1875   0.025
0.4625   0.1875   0.025
0.4875   0.1875   0.025
0.5125   0.1875   0.025
0.5375   0.1875   0.025
0.5625   0.1875   0.025
0.5875   0.1875   0.025
0.6125   0.1875   0.025
0.6375   0.1875   0.025
0.6625   0.1875   0.025
0.6875   0.1875   0.025
0.7125   0.1875   0.025
0.7375   0.1875   0.025
0.7625   0.1875   0.025
0.7875   0.1875   0.025
0.8125   0.1875   0.025
0.8375   0.1875   0.025
0.8625   0.1875   0.025
0.8875   0.1875   0.025
0.9125   0.1875   0.025
0.9375   0.1875   0.025
0.9625   0.1875   0.025
0.9875   0.1875   0.025
0.0125   0.2125   0.025
0.0375   0.2125   0.025
0.0625   0.2125   0.025
0.0875   0.2125   0.025
0.1125   0.2125   0.025
0.1375   0.2125   0.025
0.1625   0.2125   0.025
0.1875   0.2125   0.025
0.2125   0.2125   0.025
0.2375   0.2125   0.025
0.2625   0.2125   0.025
0.2875   0.2125   0.025
0.3125   0.2125   0.025
0.3375   0.2125   0.025
0.3625   0.2125   0.025
0.3875   0.2125   0.025
0.4125   0.2125   0.025
0.4375   0.2125   0.025
0.4625   0.2125   0.025
0.4875   0.2125   0.025
0.5125   0.2125   0.025
0.5375   0.2125   0.025
0.5625   0.2125   0.025
0.5875   0.2125   0.025
0.6125   0.2125   0.025
0.6375   0.2125   0.025
0.6625   0.2125   0.025
0.6875   0.2125   0.025
0.7125   0.2125   0.025
0.7375   0.2125   0.025
0.7625   0.2125   0.025
0.7875   0.2125   0.025
0.8125   0.2125   0.025
0.8375   0.2125   0.025
0.8625   0.2125   0.025
0.8875   0.2125   0.025
0.9125   0.2125   0.025
0.9375   0.2125   0.025
0.9625   0.2125   0.025
0.9875   0.2125   0.025
0.0125   0.2375   0.025
0.0375   0.2375   0.025
0.0625   0.2375   0.025
0.0875   0.2375   0.025
0.1125   0.2375   0.025
0.1375   0.2375   0.025
0.1625   0.2375   0.025
0.1875   0.2375   0.025
0.2125   0.2375   0.025
0.2375   0.2375   0.025
0.2625   0.2375   0.025
0.2875   0.2375   0.025
0.3125   0.2375   0.025
0.3375   0.2375   0.025
0.3625   0.2375   0.025
0.3875   0.2375   0.025
0.4125   0.2375   0.025
0.4375   0.2375   0.025
0.4625   0.2375   0.025
0.4875   0.2375   0.025
0.5125   0.2375   0.025
0.5375   0.2375   0.025
0.5625   0.2375   0.025
0.5875   0.2375   0.025
0.6125   0.2375   0.025
0.6375   0.2375   0.025
0.6625   0.2375   0.025
0.6875   0.2375   0.025
0.7125   0.2375   0.025
0.7375   0.2375   0.025
0.7625   0.2375   0.025
0.7875   0.2375   0.025
0.8125   0.2375   0.025
0.8375   0.2375   0.025
0.8625   0.2375   0.025
0.8875   0.2375   0.025
0.9125   0.2375   0.025
0.9375   0.2375   0.025
0.9625   0.2375   0.025
0.9875   0.2375   0.025
0.0125   0.2625   0.025
0.0375   0.2625   0.025
0.0625   0.2625   0.025
0.0875   0.2625   0.025
0.1125   0.2625   0.025
0.1375   0.2625   0.025
0.1625   0.2625   0.025
0.1875   0.2625   0.025
0.2125   0.2625   0.025
0.2375   0.2625   0.025
0.2625   0.2625   0.025
[...]
POINT_DATA   32000
SCALARS Presion double
LOOKUP_TABLE   Presion

0 0 0 0 0 0 0 0 0 0 0 0 0 0 0 0 0 0 0 0 0 0 0 0 0 0 0 0 0 0 0 0 0 0 0 0 0 0 0 0 -0.00221137 -0.00258901 -0.00321695 -0.00392197 -0.0046295 -0.00529344 -0.00588062 -0.00636666 -0.00673405 -0.00697082 -0.00706928 -0.00702554 -0.00683834 -0.00650914 -0.0060419 -0.00544317 -0.00472226 -0.00389136 -0.00296569 -0.00196343 -0.000905463 0.000184545 0.00128136 0.00235845 0.00338885 0.00434616 0.00520543 0.00594413 0.0065431 0.00698735 0.00726689 0.00737726 0.00732004 0.00710299 0.00673977 0.00624927 0.00565482 0.00498596 0.00429682 0.00377643 -0.00247373 -0.00267067 -0.00314348 -0.00374601 -0.0043888 -0.00501395 -0.00558181 -0.00606446 -0.00644222 -0.00670154 -0.00683333 -0.00683254 -0.00669666 -0.00642589 -0.00602285 -0.00549264 -0.00484288 -0.00408394 -0.00322894 -0.00229384 -0.00129706 -0.000260053 0.000794292 0.00184143 0.00285603 0.0038128 0.00468732 0.00545697 0.00610184 0.00660573 0.006957 0.00714926 0.00718232 0.00706266 0.00680403 0.00642833 0.00596786 0.00547215 0.00502897 0.00482318 -0.00224745 -0.00249645 -0.00295092 -0.00352183 -0.00413777 -0.00474595 -0.00530816 -0.00579691 -0.00619258 -0.00648131 -0.00665338 -0.00670291 -0.00662618 -0.00642193 -0.00609106 -0.00563667 -0.00506421 -0.00438157 -0.00359935 -0.00273083 -0.0017918 -0.000801417 0.000219554 0.00124817 0.00226012 0.00323045 0.00413437 0.00494822 0.0056505 0.00622292 0.00665155 0.00692761 0.00704877 0.00701989 0.00685395 0.00657337 0.00621235 0.0058221 0.00548214 0.0053195 -0.00175411 -0.00213608 -0.00265212 -0.00324918 -0.00387688 -0.00449378 -0.00506799 -0.00557565 -0.00599919 -0.00632577 -0.00654576 -0.00665291 -0.00664239 -0.00651141 -0.00625892 -0.00588572 -0.00539466 -0.00479086 -0.004082 -0.00327851 -0.0023934 -0.00144357 -0.000447806 0.000572218 0.00159276 0.00258864 0.00353405 0.00440358 0.00517336 0.00582231 0.00633351 0.00669508 0.00690191 0.00695637 0.00686942 0.00666172 0.00636519 0.00602585 0.00570814 0.00549854 -0.00113278 -0.00167046 -0.00228736 -0.00294833 -0.0036185 -0.00426777 -0.004872 -0.00541255 -0.00587518 -0.00624896 -0.00652503 -0.0066971 -0.00675943 -0.0067077 -0.00653884 -0.00625116 -0.00584471 -0.00532161 -0.00468645 -0.00394663 -0.00311233 -0.00219815 -0.00122103 -0.000201502 0.000836965 0.00186859 0.00286611 0.00380181 0.00464884 0.00538261 0.00598247 0.00643262 0.0067243 0.00685649 0.00683706 0.0066836 0.0064244 0.00609946 0.00576166 0.0054755 -0.000476395 -0.00117056 -0.00190419 -0.00265026 -0.00338395 -0.00408427 -0.00473439 -0.00532112 -0.00583403 -0.00626456 -0.006605 -0.00684926 -0.00699087 -0.00702408 -0.00694376 -0.0067457 -0.00642705 -0.0059868 -0.00542631 -0.00474987 -0.0039647 -0.00308304 -0.0021199 -0.00109475 -3.08352e-05 0.0010453 0.00210462 0.00311671 0.0040512 0.00487931 0.0055758 0.0061201 0.00649884 0.00670667 0.00674751 0.00663535 0.00639475 0.00606109 0.00568038 0.00530715 0.00014768 -0.000695534 -0.00154924 -0.00239013 -0.00319984 -0.00396428 -0.00467276 -0.00531708 -0.00589046 -0.00638679 -0.00679962 -0.00712322 -0.00735051 -0.00747438 -0.0074877 -0.00738375 -0.00715675 -0.00680249 -0.00631903 -0.00570735 -0.0049716 -0.00412143 -0.0031698 -0.00213491 -0.00103972 8.84874e-05 0.00121878 0.00231776 0.00335099 0.00428485 0.00508867 0.00573603 0.00620794 0.00649371 0.00659257 0.00651454 0.00628082 0.00592384 0.00548656 0.00502059 0.000686848 -0.000295049 -0.00126561 -0.00220365 -0.00309535 -0.00393186 -0.00470752 -0.00541833 -0.0060608 -0.00663101 -0.00712374 -0.00753361 -0.00785301 -0.00807355 -0.00818618 -0.00818171 -0.00805143 -0.00778787 -0.00738565 -0.0068423 -0.00615861 -0.00534137 -0.00440112 -0.00335449 -0.00222383 -0.00103702 0.000173149 0.00137008 0.0025149 0.00356837 0.00449344 0.00525676 0.00583246 0.00620338 0.00636319 0.00631749 0.00608448 0.0056949 0.00519141 0.00462691 0.0010975 -1.17199e-05 -0.00109244 -0.00212534 -0.00310027 -0.00401267 -0.00486096 -0.00564465 -0.00636297 -0.00701394 -0.00759337 -0.00809618 -0.00851424 -0.00883796 -0.00905644 -0.00915806 -0.00913118 -0.008965 -0.00865056 -0.00818165 -0.00755538 -0.00677524 -0.00584882 -0.00479069 -0.00362214 -0.00237126 -0.00107251 0.000234237 0.00150525 0.00269501 0.00375902 0.00465567 0.00535081 0.00581942 0.00604842 0.00603838 0.00580444 0.00537656 0.00479884 0.00412816 0.00134189 0.000117056 -0.00106523 -0.0021878 -0.00324396 -0.00423286 -0.0051564 -0.00601701 -0.0068162 -0.00755355 -0.00822573 -0.00882787 -0.00935133 -0.00978536 -0.0101173 -0.0103331 -0.0104182 -0.0103584 -0.0101409 -0.0097554 -0.00919495 -0.00845909 -0.00755187 -0.00648504 -0.00527816 -0.00395898 -0.00256328 -0.00113412 0.000279623 0.00162539 0.00285013 0.00390249 0.00473828 0.00532291 0.00563504 0.00566909 0.00543679 0.0049676 0.00430823 0.00352123 0.00138638 5.78961e-05 -0.00121623 -0.00242148 -0.00355461 -0.00461828 -0.00561743 -0.00655704 -0.00744048 -0.00826865 -0.00903891 -0.00974651 -0.0103823 -0.0109345 -0.0113886 -0.0117283 -0.011936 -0.011994 -0.0118855 -0.0115956 -0.0111127 -0.0104317 -0.00955225 -0.00848246 -0.00723925 -0.0058492 -0.00434885 -0.00278418 -0.00120939 0.000315252 0.00172692 0.00296279 0.00396665 0.0046921 0.00510752 0.00519962 0.00497575 0.00446479 0.00371661 0.00280053 0.0012006 -0.00021927 -0.00157478 -0.00285451 -0.00405884 -0.00519381 -0.00626722 -0.00728624 -0.00825593 -0.00917826 -0.0100512 -0.0108701 -0.0116254 -0.0123041 -0.0128903 -0.0133653 -0.0137084 -0.0138983 -0.0139136 -0.0137348 -0.0133447 -0.0127328 -0.0118934 -0.0108299 -0.00955528 -0.00809409 -0.00648267 -0.00476943 -0.00301386 -0.00128449 0.00034481 0.00179788 0.00300402 0.00390235 0.0044483 0.00461861 0.00441474 0.00386429 0.00302045 0.00196002 0.000757095 -0.000741525 -0.0021674 -0.00351263 -0.00478134 -0.00598289 -0.00712779 -0.00822529 -0.00928194 -0.0103007 -0.0112802 -0.0122159 -0.0130978 -0.0139121 -0.0146413 -0.0152643 -0.0157575 -0.0160956 -0.0162527 -0.0162036 -0.0159253 -0.0154007 -0.0146178 -0.0135736 -0.0122764 -0.0107469 -0.00902015 -0.00714617 -0.0051894 -0.00322698 -0.00134499 0.000365021 0.00181506 0.00292645 0.00363826 0.00391418 0.00374746 0.00316317 0.00221751 0.000995118 3.12787e-05 -0.00153301 -0.00301782 -0.00441903 -0.00574453 -0.00700696 -0.00821943 -0.00939319 -0.0105363 -0.0116527 -0.0127418 -0.0137991 -0.0148145 -0.0157735 -0.0166571 -0.017442 -0.0181016 -0.0186065 -0.0189257 -0.0190283 -0.0188842 -0.0184692 -0.0177633 -0.0167563 -0.0154495 -0.0138586 -0.0120156 -0.00997085 -0.00779293 -0.00556762 -0.00339416 -0.00138157 0.000361728 0.0017353 0.0026575 0.00307488 0.00296922 0.002361 0.00130866 -9.53029e-05 -0.000998265 -0.00261477 -0.00414683 -0.00559412 -0.00696823 -0.00828494 -0.00955992 -0.0108064 -0.012034 -0.0132479 -0.0144482 -0.015631 -0.0167862 -0.0178986 -0.0189481 -0.0199092 -0.0207523 -0.0214439 -0.0219477 -0.0222263 -0.0222422 -0.0219627 -0.0213589 -0.0204116 -0.0191136 -0.0174732 -0.0155177 -0.0132958 -0.010879 -0.00836097 -0.0058548 -0.00348883 -0.00139526 0.000299099 0.00148653 0.00209106 0.00207852 0.00146174 0.000299957 -0.00130673 -0.00234942 -0.0040045 -0.00557205 -0.00705531 -0.0084693 -0.00983277 -0.0111639 -0.012478 -0.0137864 -0.0150957 -0.0164072 -0.0177178 -0.0190174 -0.0202909 -0.0215168 -0.022668 -0.0237118 -0.0246105 -0.0253222 -0.0258028 -0.0260067 -0.0258919 -0.0254193 -0.024559 -0.0232934 -0.0216215 -0.0195633 -0.0171634 -0.0144941 -0.0116559 -0.00877536 -0.00600159 -0.00349391 -0.00141065 0.000107964 0.000956592 0.00107896 0.000475886 -0.00079488 -0.00262639 -0.00403606 -0.00571628 -0.00730775 -0.00881676 -0.0102613 -0.0116628 -0.013042 -0.0144165 -0.0157997 -0.0171999 -0.01862 -0.020058 -0.0215046 -0.0229445 -0.0243557 -0.0257092 -0.0269695 -0.0280947 -0.0290374 -0.0297463 -0.0301673 -0.0302482 -0.0299388 -0.029197 -0.027993 -0.0263139 -0.0241698 -0.0215984 -0.0186699 -0.015489 -0.0121948 -0.00895773 -0.00596711 -0.00341809 -0.00149088 -0.000328773 -1.82833e-05 -0.000576798 -0.00195158 -0.0040302 -0.00606766 -0.00776027 -0.00936465 -0.0108892 -0.0123542 -0.0137836 -0.0152006 -0.0166254 -0.018074 -0.0195571 -0.0210797 -0.0226414 -0.0242339 -0.0258424 -0.0274444 -0.0290095 -0.0304994 -0.0318681 -0.0330628 -0.0340247 -0.0346909 -0.0349988 -0.034886 -0.034297 -0.033188 -0.0315322 -0.0293267 -0.026599 -0.0234133 -0.0198756 -0.0161346 -0.0123813 -0.00883692 -0.00573848 -0.0033144 -0.00175625 -0.00119138 -0.00166405 -0.00313181 -0.00547901 -0.00844893 -0.0101427 -0.01175 -0.01328 -0.0147544 -0.0161993 -0.0176406 -0.0191019 -0.0206023 -0.0221558 -0.0237701 -0.0254469 -0.0271797 -0.0289544 -0.0307484 -0.0325298 -0.034258 -0.035883 -0.0373465 -0.0385825 -0.0395191 -0.040083 -0.0401989 -0.0397976 -0.0388197 -0.0372223 -0.034987 -0.0321273 -0.0286976 -0.0248001 -0.0205891 -0.0162737 -0.0121071 -0.00837207 -0.00535373 -0.00330384 -0.00240399 -0.00273714 -0.00427895 -0.0069142 -0.0111797 -0.0128657 -0.0144677 -0.0159934 -0.0174646 -0.0189096 -0.0203576 -0.0218364 -0.0233695 -0.024975 -0.0266643 -0.028442 -0.0303037 -0.0322365 -0.0342176 -0.0362144 -0.0381837 -0.0400717 -0.0418148 -0.04334 -0.0445665 -0.0454102 -0.0457833 -0.0456019 -0.0447905 -0.0432888 -0.0410603 -0.0381014 -0.0344519 -0.0302047 -0.0255145 -0.0206031 -0.0157533 -0.011296 -0.00758016 -0.00493087 -0.00360032 -0.00372601 -0.00531305 -0.00825239 -0.0142552 -0.0159284 -0.017519 -0.0190307 -0.0204843 -0.02191 -0.0233416 -0.0248123 -0.0263519 -0.0279838 -0.0297244 -0.0315818 -0.0335542 -0.03563 -0.0377869 -0.0399911 -0.042197 -0.0443474 -0.0463731 -0.0481945 -0.0497222 -0.0508616 -0.0515127 -0.0515773 -0.0509633 -0.0495926 -0.047409 -0.0443889 -0.0405533 -0.0359804 -0.0308176 -0.0252926 -0.0197124 -0.0144543 -0.00993677 -0.00657109 -0.00469913 -0.00453347 -0.00612483 -0.00937923 -0.0176666 -0.0193272 -0.0209035 -0.0223917 -0.0238101 -0.0251917 -0.0265763 -0.0280054 -0.0295166 -0.0311411 -0.032901 -0.0348092 -0.0368666 -0.0390633 -0.0413772 -0.0437733 -0.0462036 -0.048607 -0.0509093 -0.0530241 -0.0548541 -0.0562945 -0.0572337 -0.0575598 -0.0571652 -0.0559535 -0.0538488 -0.0508058 -0.0468234 -0.0419594 -0.0363466 -0.0302094 -0.0238699 -0.0177464 -0.0123283 -0.0081242 -0.00558637 -0.00502821 -0.00656863 -0.0101422 -0.021402 -0.0230576 -0.0246208 -0.0260758 -0.0274373 -0.0287423 -0.0300401 -0.0313836 -0.0328217 -0.0343952 -0.036134 -0.0380559 -0.0401653 -0.0424536 -0.0448986 -0.0474636 -0.0500981 -0.0527365 -0.0552997 -0.0576946 -0.0598161 -0.06155 -0.0627738 -0.0633631 -0.0631956 -0.0621582 -0.0601556 -0.0571209 -0.0530291 -0.0479136 -0.0418855 -0.0351555 -0.0280491 -0.0210154 -0.0146099 -0.00944569 -0.00610633 -0.00503657 -0.00645406 -0.0103419 -0.0254488 -0.0271168 -0.0286731 -0.030084 -0.0313602 -0.0325463 -0.0337056 -0.0349075 -0.0362163 -0.0376852 -0.0393533 -0.0412443 -0.0433658 -0.0457102 -0.0482541 -0.0509588 -0.05377 -0.0566176 -0.0594167 -0.0620678 -0.0644579 -0.066464 -0.0679535 -0.0687905 -0.0688398 -0.0679732 -0.0660781 -0.0630671 -0.0588918 -0.0535595 -0.0471542 -0.0398634 -0.0320026 -0.0240359 -0.0165743 -0.0103354 -0.00605135 -0.00433284 -0.00553616 -0.00972255 -0.0297965 -0.0315075 -0.0330685 -0.0344216 -0.0355747 -0.0365857 -0.0375399 -0.03853 -0.0396407 -0.0409412 -0.0424812 -0.0442904 -0.0463789 -0.0487392 -0.0513456 -0.0541559 -0.057111 -0.0601355 -0.0631378 -0.0660115 -0.0686359 -0.0708791 -0.0725992 -0.07365 -0.0738846 -0.0731621 -0.0713548 -0.0683582 -0.0641027 -0.0585705 -0.0518166 -0.0439984 -0.0354077 -0.0265058 -0.0179405 -0.0105247 -0.00514986 -0.0026277 -0.00350367 -0.00795968 -0.0344417 -0.0362435 -0.0378263 -0.0391017 -0.0400793 -0.0408407 -0.0415046 -0.0421964 -0.0430277 -0.0440865 -0.0454345 -0.0471067 -0.0491147 -0.0514488 -0.0540796 -0.0569593 -0.0600227 -0.0631874 -0.0663546 -0.0694098 -0.0722243 -0.0746572 -0.0765575 -0.0777693 -0.0781354 -0.0775039 -0.0757351 -0.0727105 -0.0683441 -0.0625969 -0.0554968 -0.0471685 -0.0378704 -0.028042 -0.0183439 -0.00966415 -0.00305285 0.000445371 3.53945e-05 -0.00464581 -0.0393957 -0.0413584 -0.0429843 -0.0441499 -0.0448775 -0.04529 -0.0455558 -0.0458451 -0.0463032 -0.0470398 -0.0481284 -0.0496078 -0.0514884 -0.0537558 -0.0563742 -0.0592881 -0.0624239 -0.0656908 -0.0689813 -0.0721718 -0.0751248 -0.0776898 -0.0797065 -0.0810093 -0.0814313 -0.0808109 -0.0789986 -0.0758658 -0.0713147 -0.0652913 -0.0578029 -0.0489444 -0.0389367 -0.028183 -0.0173298 -0.00731064 0.000681406 0.00534675 0.00557202 0.000728619 -0.0446978 -0.0469194 -0.0486093 -0.0496103 -0.04998 -0.0499108 -0.0496437 -0.0494077 -0.0493884 -0.0497186 -0.0504811 -0.0517153 -0.0534264 -0.0555919 -0.0581659 -0.0610825 -0.0642576 -0.0675899 -0.0709614 -0.0742386 -0.0772736 -0.0799058 -0.0819645 -0.0832739 -0.0836573 -0.0829433 -0.0809738 -0.0776125 -0.0727544 -0.0663375 -0.0583572 -0.0488872 -0.0381155 -0.0264013 -0.0143546 -0.00291783 0.00660429 0.0126517 0.0137209 0.00880165 -0.0504366 -0.0530496 -0.0548133 -0.0555535 -0.0554071 -0.054679 -0.0537125 -0.0528105 -0.052203 -0.0520436 -0.0524194 -0.0533645 -0.0548734 -0.0569103 -0.0594157 -0.06231 -0.0654961 -0.06886 -0.0722719 -0.0755866 -0.078645 -0.0812747 -0.0832938 -0.084515 -0.0847503 -0.0838179 -0.0815502 -0.0778037 -0.0724685 -0.0654801 -0.0568309 -0.0465862 -0.0349125 -0.0221292 -0.00879639 0.00416917 0.0153954 0.0230778 0.0252558 0.0203796 -0.0567884 -0.0599635 -0.0617764 -0.0620873 -0.0611912 -0.0595688 -0.0577011 -0.0559773 -0.05467 -0.0539455 -0.0538862 -0.0545117 -0.0557984 -0.0576918 -0.0601141 -0.0629689 -0.0661434 -0.0695095 -0.0729236 -0.0762278 -0.0792504 -0.0818061 -0.0837003 -0.0847325 -0.0847016 -0.0834128 -0.0806869 -0.0763705 -0.0703481 -0.0625538 -0.0529829 -0.0417039 -0.0288781 -0.0148004 1.78337e-05 0.0147091 0.0278814 0.037523 0.0411631 0.0365016 -0.0640865 -0.0680273 -0.0697821 -0.0693694 -0.0673785 -0.0645525 -0.0615449 -0.0588337 -0.0567218 -0.0553721 -0.054847 -0.0551397 -0.0561998 -0.0579475 -0.0602823 -0.0630881 -0.0662343 -0.0695769 -0.072958 -0.0762054 -0.0791341 -0.0815448 -0.0832288 -0.0839708 -0.0835541 -0.0817677 -0.0784165 -0.0733325 -0.0663886 -0.0575129 -0.046702 -0.0340322 -0.0196738 -0.00391698 0.0127587 0.0295395 0.0450498 0.0571174 0.0627266 0.0585515 -0.0729489 -0.077859 -0.0792663 -0.0776211 -0.0740285 -0.0695982 -0.0651765 -0.0613111 -0.058306 -0.0562933 -0.0552943 -0.0552609 -0.0561058 -0.0577176 -0.0599694 -0.0627228 -0.0658281 -0.0691246 -0.0724393 -0.0755858 -0.078365 -0.0805632 -0.0819565 -0.0823134 -0.0813992 -0.0789834 -0.0748497 -0.0688079 -0.0607095 -0.0504639 -0.0380568 -0.0235631 -0.00716181 0.010848 0.0299971 0.0495113 0.0680427 0.0832909 0.0916672 0.0884612 -0.0845264 -0.090496 -0.0908807 -0.087132 -0.0812022 -0.07466 -0.0685206 -0.0633445 -0.0593833 -0.0566982 -0.0552423 -0.0549092 -0.0555647 -0.0570604 -0.0592401 -0.0619414 -0.0649958 -0.0682256 -0.0714431 -0.074448 -0.0770274 -0.0789534 -0.0799869 -0.0798793 -0.0783765 -0.0752254 -0.0701831 -0.0630287 -0.0535787 -0.0417049 -0.0273559 -0.0105764 0.00847243 0.0294973 0.0520365 0.0753434 0.0980912 0.117844 0.130367 0.129088 -0.101003 -0.107666 -0.10555 -0.0982293 -0.0889163 -0.0796384 -0.0714615 -0.064844 -0.0599011 -0.0565691 -0.054701 -0.0541147 -0.0546202 -0.0560279 -0.058151 -0.0608042 -0.0638002 -0.0669461 -0.0700406 -0.0728708 -0.0752116 -0.0768216 -0.0774478 -0.076825 -0.0746795 -0.0707339 -0.0647148 -0.0563625 -0.0454442 -0.0317704 -0.0152164 0.00425491 0.0265641 0.0514911 0.078639 0.107333 0.136303 0.162956 0.182214 0.184919 -0.126668 -0.132187 -0.124438 -0.11113 -0.0969953 -0.0842536 -0.073738 -0.0656069 -0.0597183 -0.0558163 -0.0536188 -0.0528521 -0.0532642 -0.0546238 -0.0567148 -0.0593311 -0.0622694 -0.0653243 -0.0682832 -0.0709232 -0.073009 -0.0742889 -0.0744975 -0.0733556 -0.0705713 -0.0658437 -0.0588678 -0.0493402 -0.0369674 -0.0214766 -0.00262961 0.0197589 0.0457935 0.0754669 0.108616 0.14483 0.183127 0.220942 0.252048 0.263363 -0.170363 -0.168371 -0.14857 -0.125459 -0.104648 -0.0877096 -0.0746896 -0.0651283 -0.0584615 -0.0541644 -0.0517895 -0.050963 -0.0513725 -0.0527494 -0.0548544 -0.0574657 -0.060369 -0.0633504 -0.0661903 -0.0686592 -0.0705154 -0.0715 -0.0713394 -0.0697437 -0.066407 -0.0610086 -0.0532143 -0.0426783 -0.0290433 -0.0119407 0.0090102 0.0342045 0.0640481 0.0989489 0.139293 0.185387 0.237216 0.293229 0.346411 0.377105 -0.251329 -0.221646 -0.177264 -0.138777 -0.109379 -0.0879901 -0.0728251 -0.0623326 -0.0553467 -0.0510244 -0.0487537 -0.0480771 -0.0486398 -0.0501519 -0.0523631 -0.0550457 -0.0579824 -0.0609569 -0.0637479 -0.0661243 -0.0678422 -0.0686405 -0.0682419 -0.0663511 -0.0626539 -0.0568163 -0.048483 -0.037274 -0.0227773 -0.00453634 0.0179719 0.0453728 0.0784462 0.118203 0.165984 0.223577 0.293321 0.377454 0.472279 0.548768 -0.412314 -0.293722 -0.202033 -0.14249 -0.104954 -0.0810111 -0.065499 -0.0554446 -0.0491126 -0.0454451 -0.0437578 -0.0435775 -0.0445534 -0.0464054 -0.0488938 -0.0518001 -0.0549144 -0.0580268 -0.0609209 -0.0633697 -0.0651325 -0.065951 -0.0655495 -0.0636333 -0.0598867 -0.0539712 -0.045522 -0.0341412 -0.0193851 -0.000742248 0.0224065 0.0508569 0.085701 0.128541 0.181869 0.249732 0.338909 0.460687 0.62892 0.821943 -0.751883 -0.344369 -0.185441 -0.115891 -0.0808895 -0.0612613 -0.0495245 -0.0423974 -0.0382723 -0.0362724 -0.0358641 -0.0366852 -0.0384632 -0.0409733 -0.044015 -0.0473982 -0.0509342 -0.0544293 -0.0576799 -0.0604696 -0.0625664 -0.0637204 -0.0636621 -0.062103 -0.0587328 -0.0532178 -0.045197 -0.0342754 -0.0200111 -0.00189142 0.0207084 0.0486019 0.0829325 0.125457 0.179155 0.249666 0.348947 0.504136 0.773436 1.27305 0 0 0 0 0 0 0 0 0 0 0 0 0 0 0 0 0 0 0 0 0 0 0 0 0 0 0 0 0 0 0 0 0 0 0 0 0 0 0 0 -0.00223633 -0.00260434 -0.00312817 -0.00366454 -0.00416518 -0.00460467 -0.0049655 -0.00523486 -0.00540366 -0.00546603 -0.00541875 -0.00526099 -0.00499398 -0.00462102 -0.00414747 -0.0035809 -0.00293115 -0.00221047 -0.00143349 -0.000617062 0.000219983 0.00105733 0.00187375 0.00264783 0.00335873 0.00398709 0.00451581 0.00493091 0.00522216 0.00538372 0.00541452 0.00531848 0.00510459 0.00478656 0.00438235 0.00391341 0.00340409 0.00288345 0.00239911 0.00208831 -0.00261665 -0.00279512 -0.00315262 -0.00356776 -0.00397712 -0.00434516 -0.00464985 -0.00487671 -0.00501604 -0.00506157 -0.00500975 -0.00485922 -0.00461061 -0.00426652 -0.00383147 -0.00331208 -0.00271714 -0.00205767 -0.00134695 -0.00060033 0.000164958 0.000930273 0.00167611 0.00238272 0.00303089 0.00360278 0.0040827 0.00445794 0.00471947 0.00486247 0.0048868 0.00479719 0.0046033 0.00431957 0.00396511 0.00356382 0.00314574 0.00275172 0.00244655 0.00234839 -0.00261051 -0.00280691 -0.00311805 -0.00347467 -0.00382831 -0.00414751 -0.00441187 -0.00460797 -0.00472692 -0.00476295 -0.00471259 -0.00457421 -0.00434786 -0.00403522 -0.00363973 -0.00316669 -0.00262343 -0.00201942 -0.00136629 -0.000677791 3.03816e-05 0.000740977 0.00143569 0.0020957 0.00270251 0.00323868 0.00368882 0.00404034 0.00428434 0.0044162 0.00443611 0.00434927 0.00416602 0.00390165 0.00357628 0.00321504 0.00284903 0.00251786 0.00227427 0.00218749 -0.00242088 -0.00270498 -0.00303748 -0.00338425 -0.00371546 -0.00400919 -0.00425037 -0.00442886 -0.00453788 -0.00457287 -0.0045309 -0.00441026 -0.00421043 -0.0039321 -0.00357738 -0.00315002 -0.00265561 -0.0021018 -0.00149846 -0.000857661 -0.000193668 0.000477397 0.00113799 0.00176963 0.00235373 0.00287246 0.00330972 0.00365214 0.00389006 0.0040183 0.00403673 0.00395062 0.00377068 0.00351276 0.00319749 0.00284994 0.00249945 0.00217979 0.00192869 0.0017839 -0.00216649 -0.00255852 -0.00294551 -0.0033136 -0.00364792 -0.00393648 -0.00417073 -0.00434487 -0.00445493 -0.00449806 -0.00447215 -0.00437551 -0.00420705 -0.0039664 -0.00365418 -0.00327239 -0.00282469 -0.00231676 -0.00175655 -0.00115447 -0.000523387 0.000121479 0.000763014 0.0013826 0.00196098 0.00247917 0.00291961 0.00326732 0.00351104 0.00364422 0.0036658 0.00358051 0.00339901 0.00313733 0.00281617 0.00246 0.00209583 0.00175196 0.00145576 0.00122942 -0.001923 -0.00242532 -0.00288105 -0.00328835 -0.00364334 -0.00394263 -0.004184 -0.00436613 -0.00448807 -0.00454881 -0.00454711 -0.00448136 -0.00434984 -0.004151 -0.00388386 -0.0035485 -0.0031465 -0.00268141 -0.00215917 -