# vtk DataFile Version 2.0
Presion
ASCII

DATASET STRUCTURED_GRID
DIMENSIONS   40   40   20

POINTS   32000   double
0.0125   0.0125   0.025
0.0375   0.0125   0.025
0.0625   0.0125   0.025
0.0875   0.0125   0.025
0.1125   0.0125   0.025
0.1375   0.0125   0.025
0.1625   0.0125   0.025
0.1875   0.0125   0.025
0.2125   0.0125   0.025
0.2375   0.0125   0.025
0.2625   0.0125   0.025
0.2875   0.0125   0.025
0.3125   0.0125   0.025
0.3375   0.0125   0.025
0.3625   0.0125   0.025
0.3875   0.0125   0.025
0.4125   0.0125   0.025
0.4375   0.0125   0.025
0.4625   0.0125   0.025
0.4875   0.0125   0.025
0.5125   0.0125   0.025
0.5375   0.0125   0.025
0.5625   0.0125   0.025
0.5875   0.0125   0.025
0.6125   0.0125   0.025
0.6375   0.0125   0.025
0.6625   0.0125   0.025
0.6875   0.0125   0.025
0.7125   0.0125   0.025
0.7375   0.0125   0.025
0.7625   0.0125   0.025
0.7875   0.0125   0.025
0.8125   0.0125   0.025
0.8375   0.0125   0.025
0.8625   0.0125   0.025
0.8875   0.0125   0.025
0.9125   0.0125   0.025
0.9375   0.0125   0.025
0.9625   0.0125   0.025
0.9875   0.0125   0.025
0.0125   0.0375   0.025
0.0375   0.0375   0.025
0.0625   0.0375   0.025
0.0875   0.0375   0.025
0.1125   0.0375   0.025
0.1375   0.0375   0.025
0.1625   0.0375   0.025
0.1875   0.0375   0.025
0.2125   0.0375   0.025
0.2375   0.0375   0.025
0.2625   0.0375   0.025
0.2875   0.0375   0.025
0.3125   0.0375   0.025
0.3375   0.0375   0.025
0.3625   0.0375   0.025
0.3875   0.0375   0.025
0.4125   0.0375   0.025
0.4375   0.0375   0.025
0.4625   0.0375   0.025
0.4875   0.0375   0.025
0.5125   0.0375   0.025
0.5375   0.0375   0.025
0.5625   0.0375   0.025
0.5875   0.0375   0.025
0.6125   0.0375   0.025
0.6375   0.0375   0.025
0.6625   0.0375   0.025
0.6875   0.0375   0.025
0.7125   0.0375   0.025
0.7375   0.0375   0.025
0.7625   0.0375   0.025
0.7875   0.0375   0.025
0.8125   0.0375   0.025
0.8375   0.0375   0.025
0.8625   0.0375   0.025
0.8875   0.0375   0.025
0.9125   0.0375   0.025
0.9375   0.0375   0.025
0.9625   0.0375   0.025
0.9875   0.0375   0.025
0.0125   0.0625   0.025
0.0375   0.0625   0.025
0.0625   0.0625   0.025
0.0875   0.0625   0.025
0.1125   0.0625   0.025
0.1375   0.0625   0.025
0.1625   0.0625   0.025
0.1875   0.0625   0.025
0.2125   0.0625   0.025
0.2375   0.0625   0.025
0.2625   0.0625   0.025
0.2875   0.0625   0.025
0.3125   0.0625   0.025
0.3375   0.0625   0.025
0.3625   0.0625   0.025
0.3875   0.0625   0.025
0.4125   0.0625   0.025
0.4375   0.0625   0.025
0.4625   0.0625   0.025
0.4875   0.0625   0.025
0.5125   0.0625   0.025
0.5375   0.0625   0.025
0.5625   0.0625   0.025
0.5875   0.0625   0.025
0.6125   0.0625   0.025
0.6375   0.0625   0.025
0.6625   0.0625   0.025
0.6875   0.0625   0.025
0.7125   0.0625   0.025
0.7375   0.0625   0.025
0.7625   0.0625   0.025
0.7875   0.0625   0.025
0.8125   0.0625   0.025
0.8375   0.0625   0.025
0.8625   0.0625   0.025
0.8875   0.0625   0.025
0.9125   0.0625   0.025
0.9375   0.0625   0.025
0.9625   0.0625   0.025
0.9875   0.0625   0.025
0.0125   0.0875   0.025
0.0375   0.0875   0.025
0.0625   0.0875   0.025
0.0875   0.0875   0.025
0.1125   0.0875   0.025
0.1375   0.0875   0.025
0.1625   0.0875   0.025
0.1875   0.0875   0.025
0.2125   0.0875   0.025
0.2375   0.0875   0.025
0.2625   0.0875   0.025
0.2875   0.0875   0.025
0.3125   0.0875   0.025
0.3375   0.0875   0.025
0.3625   0.0875   0.025
0.3875   0.0875   0.025
0.4125   0.0875   0.025
0.4375   0.0875   0.025
0.4625   0.0875   0.025
0.4875   0.0875   0.025
0.5125   0.0875   0.025
0.5375   0.0875   0.025
0.5625   0.0875   0.025
0.5875   0.0875   0.025
0.6125   0.0875   0.025
0.6375   0.0875   0.025
0.6625   0.0875   0.025
0.6875   0.0875   0.025
0.7125   0.0875   0.025
0.7375   0.0875   0.025
0.7625   0.0875   0.025
0.7875   0.0875   0.025
0.8125   0.0875   0.025
0.8375   0.0875   0.025
0.8625   0.0875   0.025
0.8875   0.0875   0.025
0.9125   0.0875   0.025
0.9375   0.0875   0.025
0.9625   0.0875   0.025
0.9875   0.0875   0.025
0.0125   0.1125   0.025
0.0375   0.1125   0.025
0.0625   0.1125   0.025
0.0875   0.1125   0.025
0.1125   0.1125   0.025
0.1375   0.1125   0.025
0.1625   0.1125   0.025
0.1875   0.1125   0.025
0.2125   0.1125   0.025
0.2375   0.1125   0.025
0.2625   0.1125   0.025
0.2875   0.1125   0.025
0.3125   0.1125   0.025
0.3375   0.1125   0.025
0.3625   0.1125   0.025
0.3875   0.1125   0.025
0.4125   0.1125   0.025
0.4375   0.1125   0.025
0.4625   0.1125   0.025
0.4875   0.1125   0.025
0.5125   0.1125   0.025
0.5375   0.1125   0.025
0.5625   0.1125   0.025
0.5875   0.1125   0.025
0.6125   0.1125   0.025
0.6375   0.1125   0.025
0.6625   0.1125   0.025
0.6875   0.1125   0.025
0.7125   0.1125   0.025
0.7375   0.1125   0.025
0.7625   0.1125   0.025
0.7875   0.1125   0.025
0.8125   0.1125   0.025
0.8375   0.1125   0.025
0.8625   0.1125   0.025
0.8875   0.1125   0.025
0.9125   0.1125   0.025
0.9375   0.1125   0.025
0.9625   0.1125   0.025
0.9875   0.1125   0.025
0.0125   0.1375   0.025
0.0375   0.1375   0.025
0.0625   0.1375   0.025
0.0875   0.1375   0.025
0.1125   0.1375   0.025
0.1375   0.1375   0.025
0.1625   0.1375   0.025
0.1875   0.1375   0.025
0.2125   0.1375   0.025
0.2375   0.1375   0.025
0.2625   0.1375   0.025
0.2875   0.1375   0.025
0.3125   0.1375   0.025
0.3375   0.1375   0.025
0.3625   0.1375   0.025
0.3875   0.1375   0.025
0.4125   0.1375   0.025
0.4375   0.1375   0.025
0.4625   0.1375   0.025
0.4875   0.1375   0.025
0.5125   0.1375   0.025
0.5375   0.1375   0.025
0.5625   0.1375   0.025
0.5875   0.1375   0.025
0.6125   0.1375   0.025
0.6375   0.1375   0.025
0.6625   0.1375   0.025
0.6875   0.1375   0.025
0.7125   0.1375   0.025
0.7375   0.1375   0.025
0.7625   0.1375   0.025
0.7875   0.1375   0.025
0.8125   0.1375   0.025
0.8375   0.1375   0.025
0.8625   0.1375   0.025
0.8875   0.1375   0.025
0.9125   0.1375   0.025
0.9375   0.1375   0.025
0.9625   0.1375   0.025
0.9875   0.1375   0.025
0.0125   0.1625   0.025
0.0375   0.1625   0.025
0.0625   0.1625   0.025
0.0875   0.1625   0.025
0.1125   0.1625   0.025
0.1375   0.1625   0.025
0.1625   0.1625   0.025
0.1875   0.1625   0.025
0.2125   0.1625   0.025
0.2375   0.1625   0.025
0.2625   0.1625   0.025
0.2875   0.1625   0.025
0.3125   0.1625   0.025
0.3375   0.1625   0.025
0.3625   0.1625   0.025
0.3875   0.1625   0.025
0.4125   0.1625   0.025
0.4375   0.1625   0.025
0.4625   0.1625   0.025
0.4875   0.1625   0.025
0.5125   0.1625   0.025
0.5375   0.1625   0.025
0.5625   0.1625   0.025
0.5875   0.1625   0.025
0.6125   0.1625   0.025
0.6375   0.1625   0.025
0.6625   0.1625   0.025
0.6875   0.1625   0.025
0.7125   0.1625   0.025
0.7375   0.1625   0.025
0.7625   0.1625   0.025
0.7875   0.1625   0.025
0.8125   0.1625   0.025
0.8375   0.1625   0.025
0.8625   0.1625   0.025
0.8875   0.1625   0.025
0.9125   0.1625   0.025
0.9375   0.1625   0.025
0.9625   0.1625   0.025
0.9875   0.1625   0.025
0.0125   0.1875   0.025
0.0375   0.1875   0.025
0.0625   0.1875   0.025
0.0875   0.1875   0.025
0.1125   0.1875   0.025
0.1375   0.1875   0.025
0.1625   0.1875   0.025
0.1875   0.1875   0.025
0.2125   0.1875   0.025
0.2375   0.1875   0.025
0.2625   0.1875   0.025
0.2875   0.1875   0.025
0.3125   0.1875   0.025
0.3375   0.1875   0.025
0.3625   0.1875   0.025
0.3875   0.1875   0.025
0.4125   0.1875   0.025
0.4375   0.1875   0.025
0.4625   0.1875   0.025
0.4875   0.1875   0.025
0.5125   0.1875   0.025
0.5375   0.1875   0.025
0.5625   0.1875   0.025
0.5875   0.1875   0.025
0.6125   0.1875   0.025
0.6375   0.1875   0.025
0.6625   0.1875   0.025
0.6875   0.1875   0.025
0.7125   0.1875   0.025
0.7375   0.1875   0.025
0.7625   0.1875   0.025
0.7875   0.1875   0.025
0.8125   0.1875   0.025
0.8375   0.1875   0.025
0.8625   0.1875   0.025
0.8875   0.1875   0.025
0.9125   0.1875   0.025
0.9375   0.1875   0.025
0.9625   0.1875   0.025
0.9875   0.1875   0.025
0.0125   0.2125   0.025
0.0375   0.2125   0.025
0.0625   0.2125   0.025
0.0875   0.2125   0.025
0.1125   0.2125   0.025
0.1375   0.2125   0.025
0.1625   0.2125   0.025
0.1875   0.2125   0.025
0.2125   0.2125   0.025
0.2375   0.2125   0.025
0.2625   0.2125   0.025
0.2875   0.2125   0.025
0.3125   0.2125   0.025
0.3375   0.2125   0.025
0.3625   0.2125   0.025
0.3875   0.2125   0.025
0.4125   0.2125   0.025
0.4375   0.2125   0.025
0.4625   0.2125   0.025
0.4875   0.2125   0.025
0.5125   0.2125   0.025
0.5375   0.2125   0.025
0.5625   0.2125   0.025
0.5875   0.2125   0.025
0.6125   0.2125   0.025
0.6375   0.2125   0.025
0.6625   0.2125   0.025
0.6875   0.2125   0.025
0.7125   0.2125   0.025
0.7375   0.2125   0.025
0.7625   0.2125   0.025
0.7875   0.2125   0.025
0.8125   0.2125   0.025
0.8375   0.2125   0.025
0.8625   0.2125   0.025
0.8875   0.2125   0.025
0.9125   0.2125   0.025
0.9375   0.2125   0.025
0.9625   0.2125   0.025
0.9875   0.2125   0.025
0.0125   0.2375   0.025
0.0375   0.2375   0.025
0.0625   0.2375   0.025
0.0875   0.2375   0.025
0.1125   0.2375   0.025
0.1375   0.2375   0.025
0.1625   0.2375   0.025
0.1875   0.2375   0.025
0.2125   0.2375   0.025
0.2375   0.2375   0.025
0.2625   0.2375   0.025
0.2875   0.2375   0.025
0.3125   0.2375   0.025
0.3375   0.2375   0.025
0.3625   0.2375   0.025
0.3875   0.2375   0.025
0.4125   0.2375   0.025
0.4375   0.2375   0.025
0.4625   0.2375   0.025
0.4875   0.2375   0.025
0.5125   0.2375   0.025
0.5375   0.2375   0.025
0.5625   0.2375   0.025
0.5875   0.2375   0.025
0.6125   0.2375   0.025
0.6375   0.2375   0.025
0.6625   0.2375   0.025
0.6875   0.2375   0.025
0.7125   0.2375   0.025
0.7375   0.2375   0.025
0.7625   0.2375   0.025
0.7875   0.2375   0.025
0.8125   0.2375   0.025
0.8375   0.2375   0.025
0.8625   0.2375   0.025
0.8875   0.2375   0.025
0.9125   0.2375   0.025
0.9375   0.2375   0.025
0.9625   0.2375   0.025
0.9875   0.2375   0.025
0.0125   0.2625   0.025
0.0375   0.2625   0.025
0.0625   0.2625   0.025
0.0875   0.2625   0.025
0.1125   0.2625   0.025
0.1375   0.2625   0.025
0.1625   0.2625   0.025
0.1875   0.2625   0.025
0.2125   0.2625   0.025
0.2375   0.2625   0.025
0.2625   0.2625   0.025
[...]
POINT_DATA   32000
SCALARS Presion double
LOOKUP_TABLE   Presion

0 0 0 0 0 0 0 0 0 0 0 0 0 0 0 0 0 0 0 0 0 0 0 0 0 0 0 0 0 0 0 0 0 0 0 0 0 0 0 0 -0.00200996 -0.00238776 -0.00302921 -0.00376323 -0.0045109 -0.00522115 -0.00585646 -0.00638904 -0.0067988 -0.00707188 -0.00719936 -0.00717633 -0.00700114 -0.00667517 -0.00620264 -0.00559071 -0.00484963 -0.00399287 -0.00303715 -0.00200239 -0.000911412 0.000210523 0.00133631 0.00243784 0.00348684 0.00445589 0.00531942 0.00605464 0.00664253 0.00706866 0.00732395 0.00740529 0.00731598 0.00706587 0.00667109 0.0061533 0.00553878 0.00485991 0.00417247 0.00366197 -0.00217773 -0.0023977 -0.00290067 -0.00354174 -0.0042296 -0.00490347 -0.00552082 -0.0060512 -0.00647295 -0.00677093 -0.00693505 -0.00695918 -0.00684044 -0.00657885 -0.00617716 -0.00564088 -0.0049784 -0.00420108 -0.00332333 -0.00236254 -0.00133891 -0.000275105 0.000804224 0.0018731 0.00290497 0.00387354 0.0047537 0.00552246 0.0061599 0.00665013 0.00698216 0.00715068 0.00715683 0.00700874 0.00672209 0.00632087 0.00583951 0.00532934 0.0048788 0.0046706 -0.00185769 -0.00214418 -0.0026422 -0.00326152 -0.00392915 -0.00459047 -0.00520543 -0.0057449 -0.00618782 -0.00651918 -0.00672848 -0.00680875 -0.00675588 -0.00656829 -0.00624683 -0.00579479 -0.00521806 -0.0045253 -0.00372805 -0.00284079 -0.0018809 -0.000868431 0.000174175 0.00122261 0.00225133 0.0032343 0.00414592 0.00496199 0.00566075 0.00622398 0.0066381 0.00689517 0.00699386 0.00694029 0.00674898 0.006444 0.00606122 0.00565335 0.00530086 0.00513097 -0.00126682 -0.00169968 -0.00227133 -0.00292651 -0.0036133 -0.00428905 -0.00492081 -0.00548376 -0.00595949 -0.0063343 -0.00659807 -0.00674337 -0.00676497 -0.0066596 -0.00642589 -0.00606457 -0.00557863 -0.00497362 -0.00425789 -0.00344276 -0.00254268 -0.00157518 -0.000560677 0.000477821 0.00151527 0.00252529 0.00348107 0.00435642 0.00512698 0.00577145 0.00627293 0.00662016 0.00680867 0.00684185 0.00673186 0.00650072 0.00618182 0.0058226 0.00548892 0.00526879 -0.000546112 -0.00114831 -0.00183234 -0.00256089 -0.00329789 -0.00401255 -0.00468031 -0.00528215 -0.00580342 -0.00623265 -0.00656065 -0.00677986 -0.00688407 -0.00686827 -0.0067288 -0.00646359 -0.00607251 -0.00555776 -0.0049243 -0.00418018 -0.00333683 -0.00240925 -0.00141597 -0.000378896 0.000677128 0.00172498 0.00273616 0.00368192 0.0045346 0.00526912 0.00586446 0.00630522 0.00658295 0.00669736 0.00665729 0.0064815 0.00619957 0.00585302 0.00549638 0.00519634 0.000206953 -0.000565161 -0.00137691 -0.00219963 -0.00300788 -0.00378061 -0.00450113 -0.00515635 -0.00573575 -0.00623044 -0.00663246 -0.00693436 -0.00712903 -0.00720979 -0.00717065 -0.00700665 -0.00671445 -0.00629278 -0.00574306 -0.00506995 -0.00428179 -0.00339098 -0.00241411 -0.00137203 -0.000289462 0.000805544 0.00188249 0.00290963 0.00385545 0.00469032 0.00538829 0.00592885 0.0062986 0.00649265 0.00651565 0.00638258 0.00611924 0.00576251 0.00536024 0.00496941 0.000919626 -1.41069e-05 -0.000956021 -0.00188196 -0.00277371 -0.00361777 -0.00440414 -0.00512508 -0.00577399 -0.00634451 -0.00682997 -0.00722307 -0.00751591 -0.00770017 -0.00776755 -0.00771025 -0.00752161 -0.00719685 -0.00673377 -0.00613348 -0.00540106 -0.0045461 -0.00358312 -0.0025317 -0.00141635 -0.000266048 0.000886575 0.00200647 0.00305774 0.00400546 0.00481781 0.00546814 0.00593698 0.0062138 0.0062983 0.00620134 0.00594527 0.00556402 0.0051025 0.00461489 0.00153382 0.000450352 -0.000617181 -0.00164769 -0.00262836 -0.00355164 -0.00441302 -0.00520931 -0.00593729 -0.00659285 -0.00717044 -0.00766289 -0.00806151 -0.00835642 -0.00853704 -0.00859272 -0.00851354 -0.00829113 -0.00791953 -0.00739611 -0.00672243 -0.00590498 -0.00495581 -0.00389289 -0.00274023 -0.00152754 -0.000289539 0.000935197 0.0021059 0.00318165 0.0041237 0.00489804 0.00547787 0.00584581 0.00599571 0.00593382 0.0056794 0.00526471 0.00473439 0.004144 0.00200073 0.000780961 -0.000403783 -0.00153529 -0.00260533 -0.00361132 -0.00455327 -0.00543173 -0.0062463 -0.00699466 -0.00767218 -0.00827167 -0.00878366 -0.00919671 -0.00949803 -0.00967419 -0.00971197 -0.00959933 -0.00932639 -0.00888653 -0.00827739 -0.00750191 -0.00656914 -0.00549493 -0.00430224 -0.00302114 -0.00168826 -0.000345767 0.000960299 0.00218221 0.00327322 0.00419059 0.00489863 0.00537166 0.00559645 0.00557396 0.00532032 0.00486696 0.00426002 0.00355908 0.00227798 0.000936126 -0.000355193 -0.00158098 -0.00273735 -0.00382611 -0.00485113 -0.00581603 -0.00672264 -0.00757009 -0.00835433 -0.00906808 -0.00970101 -0.0102402 -0.0106706 -0.0109761 -0.0111402 -0.011147 -0.0109826 -0.0106359 -0.0101001 -0.00937422 -0.00846343 -0.00738074 -0.00614739 -0.00479318 -0.00335629 -0.00188239 -0.000423113 0.000966262 0.00222978 0.00331436 0.00417365 0.00477182 0.00508694 0.00511355 0.0048642 0.00436983 0.00367919 0.00285755 0.00232805 0.000878907 -0.000506968 -0.00181828 -0.00305551 -0.00422455 -0.00533266 -0.00638604 -0.00738831 -0.00833966 -0.00923645 -0.0100712 -0.0108326 -0.0115063 -0.0120753 -0.0125205 -0.0128222 -0.0129606 -0.0129172 -0.0126764 -0.0122263 -0.0115609 -0.010681 -0.00959568 -0.00832357 -0.00689336 -0.00534413 -0.00372479 -0.00209271 -0.000511452 0.000952555 0.00223413 0.00327407 0.00402412 0.00445151 0.00454268 0.00430562 0.0037706 0.00298959 0.00203459 0.00211758 0.000576483 -0.000891 -0.00227774 -0.00358869 -0.00483362 -0.00602287 -0.00716488 -0.00826473 -0.00932345 -0.0103376 -0.0112995 -0.0121969 -0.013014 -0.0137318 -0.0143286 -0.0147811 -0.0150655 -0.0151587 -0.0150396 -0.0146909 -0.0141007 -0.0132642 -0.0121857 -0.0108799 -0.00937321 -0.00770482 -0.00592625 -0.00410058 -0.0023002 -0.000603281 0.000910911 0.00216782 0.0031039 0.00367277 0.00385041 0.00363861 0.00306629 0.00218871 0.0010853 0.00161714 -4.49559e-08 -0.00153552 -0.00298671 -0.00436302 -0.00567802 -0.00694489 -0.00817406 -0.00937189 -0.0105401 -0.0116754 -0.0127698 -0.0138105 -0.0147801 -0.0156577 -0.016419 -0.0170372 -0.0174843 -0.0177321 -0.0177537 -0.0175256 -0.0170291 -0.0162528 -0.0151945 -0.0138638 -0.0122836 -0.0104917 -0.0085414 -0.00650102 -0.00445212 -0.00248581 -0.000697485 0.000820026 0.00198446 0.00273223 0.00302563 0.00285788 0.00225516 0.00127569 6.66489e-06 0.000801322 -0.000875599 -0.00246501 -0.00396902 -0.0054015 -0.0067796 -0.00811918 -0.00943251 -0.0107272 -0.0120055 -0.0132646 -0.014496 -0.0156865 -0.0168175 -0.0178661 -0.0188055 -0.0196055 -0.0202336 -0.0206564 -0.0208406 -0.0207556 -0.0203751 -0.0196797 -0.0186597 -0.0173176 -0.0156711 -0.013755 -0.011623 -0.00934784 -0.00702007 -0.00474465 -0.0026352 -0.000805986 0.000637911 0.00161121 0.00205824 0.00196021 0.00133844 0.00025326 -0.0012004 -0.000350947 -0.00207092 -0.00369995 -0.0052448 -0.00672354 -0.00815672 -0.00956274 -0.0109557 -0.0123442 -0.0137317 -0.0151153 -0.016487 -0.0178326 -0.019133 -0.0203635 -0.0214947 -0.022493 -0.0233214 -0.0239409 -0.0243116 -0.024395 -0.0241563 -0.0235668 -0.0226077 -0.0212729 -0.0195726 -0.0175367 -0.0152174 -0.0126902 -0.010054 -0.00742807 -0.00494602 -0.00274693 -0.000963352 0.0002922 0.000940533 0.000946125 0.000322259 -0.000870141 -0.00252877 -0.00185599 -0.00360229 -0.00525663 -0.00683009 -0.00834458 -0.00982374 -0.0112884 -0.0127544 -0.0142319 -0.0157251 -0.0172321 -0.0187448 -0.0202493 -0.0217254 -0.0231472 -0.0244828 -0.0256953 -0.0267432 -0.0275817 -0.0281638 -0.0284427 -0.0283741 -0.0279192 -0.0270483 -0.0257447 -0.0240093 -0.0218644 -0.0193581 -0.0165667 -0.0135958 -0.0105785 -0.00766983 -0.00503673 -0.00284443 -0.00123923 -0.000330915 -0.000178095 -0.000780113 -0.00207786 -0.00396246 -0.00372496 -0.00548126 -0.00714695 -0.00873674 -0.0102758 -0.0117905 -0.013304 -0.0148341 -0.0163928 -0.0179855 -0.0196115 -0.0212634 -0.0229274 -0.024583 -0.0262029 -0.0277534 -0.0291941 -0.0304792 -0.0315578 -0.0323758 -0.0328777 -0.033009 -0.0327196 -0.0319679 -0.0307247 -0.0289791 -0.0267433 -0.0240583 -0.020998 -0.0176723 -0.0142265 -0.0108373 -0.00770233 -0.00502457 -0.00299166 -0.00175275 -0.00139789 -0.00194555 -0.0033421 -0.00547358 -0.0059635 -0.00771449 -0.00937831 -0.0109722 -0.0125238 -0.0140619 -0.0156119 -0.0171941 -0.0188225 -0.0205047 -0.0222413 -0.0240263 -0.0258466 -0.0276815 -0.0295029 -0.0312751 -0.0329547 -0.0344914 -0.0358286 -0.0369048 -0.0376555 -0.0380158 -0.0379237 -0.0373242 -0.0361745 -0.0344495 -0.0321486 -0.0293021 -0.025978 -0.0222865 -0.0183826 -0.0144631 -0.0107578 -0.00751249 -0.0049641 -0.00331157 -0.0026873 -0.00313778 -0.00462043 -0.00701861 -0.00857151 -0.0103037 -0.0119538 -0.0135398 -0.0150909 -0.0166378 -0.0182087 -0.0198266 -0.0215086 -0.023265 -0.0250989 -0.027006 -0.0289742 -0.0309832 -0.0330044 -0.0350001 -0.0369243 -0.0387223 -0.0403318 -0.0416841 -0.0427058 -0.0433212 -0.0434562 -0.043042 -0.0420207 -0.0403513 -0.0380177 -0.0350363 -0.0314645 -0.0274083 -0.0230276 -0.0185366 -0.0141968 -0.0103001 -0.00714082 -0.00497967 -0.00400498 -0.00430345 -0.00585163 -0.00853407 -0.0115433 -0.0132461 -0.0148724 -0.016439 -0.017975 -0.0195131 -0.0210846 -0.0227165 -0.02443 -0.0262392 -0.0281506 -0.0301623 -0.0322639 -0.0344358 -0.0366488 -0.0388639 -0.041032 -0.0430946 -0.0449837 -0.0466236 -0.047932 -0.0488231 -0.0492104 -0.0490111 -0.0481516 -0.0465743 -0.0442449 -0.0411629 -0.0373706 -0.0329643 -0.0281029 -0.0230125 -0.0179832 -0.0133544 -0.00948482 -0.00670962 -0.00528944 -0.00536734 -0.00695076 -0.00993139 -0.0148677 -0.0165349 -0.01813 -0.0196659 -0.0211703 -0.0226777 -0.0242238 -0.025841 -0.0275565 -0.0293896 -0.0313513 -0.0334431 -0.0356566 -0.0379732 -0.0403632 -0.0427862 -0.0451905 -0.0475132 -0.0496811 -0.0516117 -0.0532143 -0.0543932 -0.0550499 -0.0550882 -0.0544189 -0.0529668 -0.0506791 -0.0475351 -0.0435585 -0.0388299 -0.0335001 -0.0277994 -0.0220405 -0.016608 -0.0119297 -0.0084274 -0.00645303 -0.00622669 -0.00780329 -0.0110909 -0.0185293 -0.0201604 -0.0217206 -0.0232148 -0.0246681 -0.0261174 -0.0276044 -0.0291698 -0.0308489 -0.0326683 -0.034645 -0.0367844 -0.0390809 -0.0415166 -0.0440617 -0.0466739 -0.0492985 -0.0518687 -0.0543058 -0.0565206 -0.0584146 -0.0598825 -0.0608149 -0.0611027 -0.060642 -0.0593406 -0.0571266 -0.0539583 -0.0498376 -0.0448244 -0.0390536 -0.0327505 -0.0262409 -0.0199484 -0.0143699 -0.0100243 -0.00737483 -0.00674443 -0.00825832 -0.0118548 -0.0225096 -0.024112 -0.0256379 -0.0270796 -0.028458 -0.029814 -0.0311989 -0.032665 -0.034259 -0.0360177 -0.037965 -0.0401118 -0.042455 -0.0449776 -0.047649 -0.0504247 -0.0532466 -0.0560434 -0.0587309 -0.0612134 -0.0633846 -0.0651304 -0.0663313 -0.0668665 -0.0666185 -0.0654795 -0.0633595 -0.0601962 -0.055968 -0.0507108 -0.0445368 -0.0376562 -0.0303959 -0.0232069 -0.0166501 -0.0113471 -0.00789217 -0.00674124 -0.00812056 -0.0120192 -0.026789 -0.0283806 -0.0298783 -0.0312558 -0.0325292 -0.0337468 -0.0349744 -0.0362814 -0.0377304 -0.039371 -0.0412363 -0.0433429 -0.0456903 -0.0482618 -0.0510252 -0.0539329 -0.0569227 -0.0599181 -0.062829 -0.0655528 -0.0679759 -0.0699755 -0.0714229 -0.0721866 -0.0721373 -0.0711536 -0.0691291 -0.0659828 -0.0616707 -0.056203 -0.0496647 -0.042242 -0.0342489 -0.0261488 -0.018554 -0.0121875 -0.00779084 -0.00598624 -0.00714084 -0.0113243 -0.0313502 -0.0329626 -0.0344444 -0.0357434 -0.0368722 -0.0378926 -0.0388929 -0.0399669 -0.0411987 -0.0426541 -0.0443771 -0.0463901 -0.0486947 -0.0512735 -0.0540911 -0.0570957 -0.0602196 -0.0633802 -0.0664807 -0.0694113 -0.0720504 -0.0742672 -0.0759239 -0.0768797 -0.0769947 -0.0761358 -0.0741835 -0.0710405 -0.0666437 -0.0609789 -0.0541031 -0.0461717 -0.0374736 -0.0284659 -0.0197936 -0.0122704 -0.00679375 -0.00418598 -0.00500484 -0.00944327 -0.0361831 -0.0378659 -0.03935 -0.0405506 -0.041481 -0.042227 -0.0429116 -0.0436629 -0.0445928 -0.0457871 -0.0473018 -0.0491646 -0.0513779 -0.0539213 -0.0567547 -0.05982 -0.0630425 -0.066332 -0.0695839 -0.0726802 -0.0754911 -0.0778773 -0.0796924 -0.0807862 -0.0810096 -0.0802198 -0.0782865 -0.0751003 -0.0705829 -0.0647008 -0.0574852 -0.0490594 -0.039678 -0.0297741 -0.020001 -0.0112421 -0.00454819 -0.000971344 -0.00131912 -0.00596804 -0.0412924 -0.0431183 -0.0446277 -0.0456982 -0.0463544 -0.0467244 -0.0469826 -0.047304 -0.0478359 -0.0486868 -0.0499248 -0.0515812 -0.0536563 -0.0561244 -0.0589377 -0.0620295 -0.065316 -0.0686977 -0.0720608 -0.0752781 -0.0782106 -0.0807097 -0.0826198 -0.0837818 -0.0840376 -0.0832354 -0.0812365 -0.0779227 -0.0732058 -0.0670394 -0.0594353 -0.0504889 -0.0404179 -0.0296175 -0.0187236 -0.00865922 -0.000611384 0.00411853 0.00440672 -0.000390618 -0.0467105 -0.0487811 -0.0503394 -0.0512256 -0.0514988 -0.051358 -0.0510526 -0.0508193 -0.0508478 -0.0512705 -0.0521653 -0.0535637 -0.05546 -0.057819 -0.0605821 -0.063671 -0.0669905 -0.0704299 -0.0738644 -0.0771563 -0.0801564 -0.0827057 -0.0846385 -0.0857859 -0.0859803 -0.085061 -0.0828816 -0.0793173 -0.0742745 -0.0677004 -0.059597 -0.050041 -0.0392183 -0.0274808 -0.0154255 -0.00397972 0.00556565 0.0116567 0.0127844 0.00792292 -0.052519 -0.0549716 -0.0565919 -0.0571988 -0.0569303 -0.0560998 -0.055063 -0.0541336 -0.0535479 -0.0534603 -0.0539531 -0.0550518 -0.0567388 -0.0589649 -0.0616562 -0.0647199 -0.0680468 -0.071513 -0.0749812 -0.0783018 -0.0813138 -0.0838468 -0.0857238 -0.0867646 -0.0867904 -0.0856307 -0.0831302 -0.0791579 -0.0736164 -0.0664521 -0.0576658 -0.0473284 -0.0356067 -0.0228144 -0.00949888 0.0034417 0.0146561 0.0223555 0.0245819 0.0197721 -0.0588875 -0.061899 -0.0635606 -0.063721 -0.0626767 -0.0609208 -0.0589507 -0.0571704 -0.055861 -0.0551905 -0.055236 -0.0560078 -0.0574691 -0.0595503 -0.0621585 -0.0651829 -0.0684977 -0.0719642 -0.0754312 -0.0787357 -0.081704 -0.084153 -0.0858926 -0.0867295 -0.086472 -0.0849368 -0.0819573 -0.0773935 -0.0711428 -0.0631514 -0.0534247 -0.042039 -0.0291587 -0.0150756 -0.000290335 0.0143487 0.0274756 0.0371042 0.0407771 0.0361866 -0.0661427 -0.0699244 -0.0715244 -0.0709456 -0.0687808 -0.0657907 -0.0626507 -0.0598571 -0.0577236 -0.0564148 -0.0559871 -0.0564232 -0.0576582 -0.0595959 -0.0621197 -0.0650979 -0.0683865 -0.0718306 -0.0752639 -0.0785093 -0.0813793 -0.083677 -0.0851979 -0.0857339 -0.0850777 -0.0830299 -0.0794081 -0.0740578 -0.0668655 -0.0577718 -0.0467845 -0.0339893 -0.0195618 -0.00379243 0.0128467 0.0295589 0.0449965 0.0570211 0.0626432 0.0585388 -0.0748985 -0.079663 -0.0809163 -0.0790911 -0.0753005 -0.0706783 -0.0660987 -0.0621312 -0.0590913 -0.0571127 -0.0562093 -0.0563212 -0.0573451 -0.0591521 -0.0615983 -0.064529 -0.0677809 -0.0711819 -0.0745505 -0.0776953 -0.0804146 -0.0824968 -0.0837226 -0.0838672 -0.0827053 -0.080018 -0.0756015 -0.0692793 -0.0609161 -0.0504346 -0.0378316 -0.0231924 -0.00670269 0.0113356 0.0304567 0.0498994 0.0683415 0.0835211 0.0918881 0.0887471 -0.0863066 -0.0921535 -0.0923891 -0.0884489 -0.0823001 -0.0755439 -0.0692286 -0.0639389 -0.059938 -0.0572872 -0.0559307 -0.055749 -0.0565905 -0.0582884 -0.0606688 -0.0635534 -0.0667592 -0.0700975 -0.073372 -0.0763773 -0.078898 -0.0807084 -0.0815736 -0.0812518 -0.0794981 -0.0760706 -0.0707391 -0.0632958 -0.0535704 -0.0414476 -0.0268872 -0.0099441 0.00921335 0.0302876 0.0528171 0.0760633 0.0987196 0.118387 0.13088 0.129655 -0.102562 -0.109133 -0.106876 -0.0993563 -0.0898094 -0.0803039 -0.0719431 -0.0652101 -0.0602306 -0.0569392 -0.0551785 -0.0547518 -0.0554509 -0.0570676 -0.0593975 -0.0622389 -0.0653906 -0.0686488 -0.0718038 -0.0746378 -0.0769228 -0.0784203 -0.0788809 -0.0780461 -0.0756513 -0.07143 -0.0651211 -0.0564778 -0.04528 -0.0313506 -0.0145754 0.00507275 0.0275081 0.0525059 0.0796681 0.108323 0.137215 0.16378 0.182992 0.185736 -0.127981 -0.133443 -0.125566 -0.112056 -0.0976804 -0.0847074 -0.0740095 -0.065769 -0.0598523 -0.0560002 -0.0539187 -0.0533188 -0.0539303 -0.0555033 -0.0578044 -0.0606117 -0.0637083 -0.0668781 -0.0699007 -0.0725482 -0.0745829 -0.0757553 -0.0758042 -0.0744564 -0.0714289 -0.0664316 -0.059171 -0.0493562 -0.0367062 -0.0209596 -0.00188827 0.0206843 0.0468572 0.0766195 0.109807 0.146011 0.184255 0.221996 0.253049 0.264388 -0.171449 -0.169436 -0.149522 -0.126211 -0.105161 -0.0879956 -0.0748006 -0.0651389 -0.0584528 -0.0542127 -0.0519586 -0.0513017 -0.0519116 -0.053502 -0.0558167 -0.0586186 -0.0616807 -0.0647786 -0.067685 -0.0701658 -0.0719767 -0.0728611 -0.0725492 -0.070757 -0.0671871 -0.0615289 -0.0534597 -0.0426453 -0.0287401 -0.0113866 0.00978665 0.0351668 0.0651552 0.100158 0.14056 0.186671 0.23848 0.294445 0.347582 0.378287 -0.252266 -0.222589 -0.178107 -0.139427 -0.109792 -0.0881812 -0.0728472 -0.0622591 -0.0552565 -0.0509911 -0.0488391 -0.0483284 -0.0490872 -0.0508085 -0.053226 -0.0560973 -0.0591925 -0.0622851 -0.0651463 -0.0675402 -0.0692205 -0.0699278 -0.0693885 -0.0673129 -0.0633947 -0.0573096 -0.0487131 -0.0372364 -0.0224786 -0.00399354 0.0187329 0.0463189 0.0795402 0.119407 0.167259 0.224891 0.294643 0.37876 0.47356 0.550053 -0.413213 -0.294638 -0.202854 -0.143116 -0.105344 -0.0811775 -0.0654935 -0.0553381 -0.0489819 -0.0453624 -0.043785 -0.0437625 -0.0449279 -0.0469847 -0.0496771 -0.0527724 -0.0560478 -0.0592832 -0.0622545 -0.0647296 -0.0664651 -0.0672039 -0.0666737 -0.0645849 -0.0606293 -0.0544776 -0.0457752 -0.0341351 -0.0191244 -0.000241663 0.0231236 0.0517601 0.0867558 0.129712 0.18312 0.251034 0.340237 0.462023 0.630253 0.823279 -0.752817 -0.345318 -0.186294 -0.116544 -0.0812949 -0.0614276 -0.0495004 -0.0422534 -0.038087 -0.0361215 -0.0358137 -0.0367877 -0.0387547 -0.0414729 -0.0447254 -0.0483071 -0.0520158 -0.0556469 -0.0589886 -0.0618188 -0.0639024 -0.0649896 -0.0648144 -0.0630929 -0.059522 -0.0537768 -0.0455065 -0.034327 -0.0198068 -0.00144379 0.021378 0.0494646 0.0839548 0.126603 0.180389 0.250958 0.35027 0.505473 0.774777 1.27439 0 0 0 0 0 0 0 0 0 0 0 0 0 0 0 0 0 0 0 0 0 0 0 0 0 0 0 0 0 0 0 0 0 0 0 0 0 0 0 0 -0.00204561 -0.00240867 -0.00293556 -0.00348682 -0.00401157 -0.00448092 -0.00487422 -0.00517617 -0.00537574 -0.00546557 -0.00544137 -0.00530153 -0.00504682 -0.00468034 -0.00420756 -0.00363641 -0.00297737 -0.00224363 -0.00145092 -0.000617428 0.000236641 0.00108954 0.00191867 0.00270139 0.00341588 0.00404206 0.00456246 0.00496304 0.00523395 0.00537005 0.00537135 0.00524324 0.00499647 0.00464682 0.00421459 0.00372375 0.00320123 0.00267838 0.00220357 0.00190796 -0.00234785 -0.00254204 -0.00291627 -0.00335283 -0.00378833 -0.00418587 -0.00452177 -0.00477995 -0.00494935 -0.00502258 -0.00499515 -0.00486502 -0.00463233 -0.0042994 -0.00387072 -0.0033531 -0.00275577 -0.00209045 -0.0013713 -0.000614753 0.000160819 0.00093555 0.00168873 0.00239952 0.0030478 0.00361506 0.00408522 0.00444552 0.00468717 0.004806 0.00480281 0.0046836 0.00445954 0.0041468 0.00376631 0.00334377 0.00291072 0.00250877 0.00220162 0.00210251 -0.00227205 -0.00249556 -0.0028333 -0.00321768 -0.0036008 -0.0039509 -0.00424697 -0.00447478 -0.00462466 -0.00469005 -0.00466675 -0.0045525 -0.00434682 -0.00405101 -0.00366829 -0.00320392 -0.00266545 -0.00206275 -0.00140811 -0.000716117 -3.40345e-06 0.000711716 0.00140981 0.00207104 0.00267594 0.00320638 0.00364643 0.00398335 0.00420835 0.00431731 0.00431119 0.00419634 0.00398438 0.00369208 0.00334104 0.00295774 0.00257424 0.00223046 0.00197833 0.00188501 -0.00201542 -0.00233627 -0.00270352 -0.00308395 -0.00344847 -0.00377557 -0.00405027 -0.00426231 -0.00440456 -0.00447202 -0.00446117 -0.00436972 -0.00419652 -0.00394174 -0.00360705 -0.0031959 -0.00271381 -0.00216857 -0.00157043 -0.000932067 -0.000268503 0.000403192 0.00106439 0.00169554 0.00227705 0.00279018 0.00321819 0.0035473 0.00376779 0.00387476 0.00386872 0.00375589 0.00354811 0.00326254 0.00292108 0.00254993 0.00217923 0.00184308 0.00157898 0.00142424 -0.00169695 -0.00213528 -0.00256449 -0.00297179 -0.00334349 -0.00366857 -0.0039392 -0.00414995 -0.00429693 -0.00437707 -0.00438775 -0.00432672 -0.00419214 -0.00398289 -0.0036989 -0.00334158 -0.00291422 -0.00242233 -0.00187398 -0.00127994 -0.00065369 -1.12882e-05 0.000629058 0.0012476 0.00182392 0.00233795 0.00277121 0.00310808 0.00333694 0.00345131 0.00345051 0.00334007 0.0031316 0.00284231 0.00249411 0.0021125 0.00172534 0.00136141 0.00104833 0.000808561 -0.00139503 -0.00195307 -0.00245804 -0.0029098 -0.00330631 -0.00364578 -0.00392723 -0.00415017 -0.004314 -0.00441768 -0.0044595 -0.00443716 -0.00434806 -0.00418964 -0.00395994 -0.00365814 -0.00328