# vtk DataFile Version 2.0
Velocidades
ASCII

DATASET STRUCTURED_GRID
DIMENSIONS   40   40   20

POINTS   32000   double
0.0125   0.0125   0.025
0.0125   0.0375   0.025
0.0125   0.0625   0.025
0.0125   0.0875   0.025
0.0125   0.1125   0.025
0.0125   0.1375   0.025
0.0125   0.1625   0.025
0.0125   0.1875   0.025
0.0125   0.2125   0.025
0.0125   0.2375   0.025
0.0125   0.2625   0.025
0.0125   0.2875   0.025
0.0125   0.3125   0.025
0.0125   0.3375   0.025
0.0125   0.3625   0.025
0.0125   0.3875   0.025
0.0125   0.4125   0.025
0.0125   0.4375   0.025
0.0125   0.4625   0.025
0.0125   0.4875   0.025
0.0125   0.5125   0.025
0.0125   0.5375   0.025
0.0125   0.5625   0.025
0.0125   0.5875   0.025
0.0125   0.6125   0.025
0.0125   0.6375   0.025
0.0125   0.6625   0.025
0.0125   0.6875   0.025
0.0125   0.7125   0.025
0.0125   0.7375   0.025
0.0125   0.7625   0.025
0.0125   0.7875   0.025
0.0125   0.8125   0.025
0.0125   0.8375   0.025
0.0125   0.8625   0.025
0.0125   0.8875   0.025
0.0125   0.9125   0.025
0.0125   0.9375   0.025
0.0125   0.9625   0.025
0.0125   0.9875   0.025
0.0375   0.0125   0.025
0.0375   0.0375   0.025
0.0375   0.0625   0.025
0.0375   0.0875   0.025
0.0375   0.1125   0.025
0.0375   0.1375   0.025
0.0375   0.1625   0.025
0.0375   0.1875   0.025
0.0375   0.2125   0.025
0.0375   0.2375   0.025
0.0375   0.2625   0.025
0.0375   0.2875   0.025
0.0375   0.3125   0.025
0.0375   0.3375   0.025
0.0375   0.3625   0.025
0.0375   0.3875   0.025
0.0375   0.4125   0.025
0.0375   0.4375   0.025
0.0375   0.4625   0.025
0.0375   0.4875   0.025
0.0375   0.5125   0.025
0.0375   0.5375   0.025
0.0375   0.5625   0.025
0.0375   0.5875   0.025
0.0375   0.6125   0.025
0.0375   0.6375   0.025
0.0375   0.6625   0.025
0.0375   0.6875   0.025
0.0375   0.7125   0.025
0.0375   0.7375   0.025
0.0375   0.7625   0.025
0.0375   0.7875   0.025
0.0375   0.8125   0.025
0.0375   0.8375   0.025
0.0375   0.8625   0.025
0.0375   0.8875   0.025
0.0375   0.9125   0.025
0.0375   0.9375   0.025
0.0375   0.9625   0.025
0.0375   0.9875   0.025
0.0625   0.0125   0.025
0.0625   0.0375   0.025
0.0625   0.0625   0.025
0.0625   0.0875   0.025
0.0625   0.1125   0.025
0.0625   0.1375   0.025
0.0625   0.1625   0.025
0.0625   0.1875   0.025
0.0625   0.2125   0.025
0.0625   0.2375   0.025
0.0625   0.2625   0.025
0.0625   0.2875   0.025
0.0625   0.3125   0.025
0.0625   0.3375   0.025
0.0625   0.3625   0.025
0.0625   0.3875   0.025
0.0625   0.4125   0.025
0.0625   0.4375   0.025
0.0625   0.4625   0.025
0.0625   0.4875   0.025
0.0625   0.5125   0.025
0.0625   0.5375   0.025
0.0625   0.5625   0.025
0.0625   0.5875   0.025
0.0625   0.6125   0.025
0.0625   0.6375   0.025
0.0625   0.6625   0.025
0.0625   0.6875   0.025
0.0625   0.7125   0.025
0.0625   0.7375   0.025
0.0625   0.7625   0.025
0.0625   0.7875   0.025
0.0625   0.8125   0.025
0.0625   0.8375   0.025
0.0625   0.8625   0.025
0.0625   0.8875   0.025
0.0625   0.9125   0.025
0.0625   0.9375   0.025
0.0625   0.9625   0.025
0.0625   0.9875   0.025
0.0875   0.0125   0.025
0.0875   0.0375   0.025
0.0875   0.0625   0.025
0.0875   0.0875   0.025
0.0875   0.1125   0.025
0.0875   0.1375   0.025
0.0875   0.1625   0.025
0.0875   0.1875   0.025
0.0875   0.2125   0.025
0.0875   0.2375   0.025
0.0875   0.2625   0.025
0.0875   0.2875   0.025
0.0875   0.3125   0.025
0.0875   0.3375   0.025
0.0875   0.3625   0.025
0.0875   0.3875   0.025
0.0875   0.4125   0.025
0.0875   0.4375   0.025
0.0875   0.4625   0.025
0.0875   0.4875   0.025
0.0875   0.5125   0.025
0.0875   0.5375   0.025
0.0875   0.5625   0.025
0.0875   0.5875   0.025
0.0875   0.6125   0.025
0.0875   0.6375   0.025
0.0875   0.6625   0.025
0.0875   0.6875   0.025
0.0875   0.7125   0.025
0.0875   0.7375   0.025
0.0875   0.7625   0.025
0.0875   0.7875   0.025
0.0875   0.8125   0.025
0.0875   0.8375   0.025
0.0875   0.8625   0.025
0.0875   0.8875   0.025
0.0875   0.9125   0.025
0.0875   0.9375   0.025
0.0875   0.9625   0.025
0.0875   0.9875   0.025
0.1125   0.0125   0.025
0.1125   0.0375   0.025
0.1125   0.0625   0.025
0.1125   0.0875   0.025
0.1125   0.1125   0.025
0.1125   0.1375   0.025
0.1125   0.1625   0.025
0.1125   0.1875   0.025
0.1125   0.2125   0.025
0.1125   0.2375   0.025
0.1125   0.2625   0.025
0.1125   0.2875   0.025
0.1125   0.3125   0.025
0.1125   0.3375   0.025
0.1125   0.3625   0.025
0.1125   0.3875   0.025
0.1125   0.4125   0.025
0.1125   0.4375   0.025
0.1125   0.4625   0.025
0.1125   0.4875   0.025
0.1125   0.5125   0.025
0.1125   0.5375   0.025
0.1125   0.5625   0.025
0.1125   0.5875   0.025
0.1125   0.6125   0.025
0.1125   0.6375   0.025
0.1125   0.6625   0.025
0.1125   0.6875   0.025
0.1125   0.7125   0.025
0.1125   0.7375   0.025
0.1125   0.7625   0.025
0.1125   0.7875   0.025
0.1125   0.8125   0.025
0.1125   0.8375   0.025
0.1125   0.8625   0.025
0.1125   0.8875   0.025
0.1125   0.9125   0.025
0.1125   0.9375   0.025
0.1125   0.9625   0.025
0.1125   0.9875   0.025
0.1375   0.0125   0.025
0.1375   0.0375   0.025
0.1375   0.0625   0.025
0.1375   0.0875   0.025
0.1375   0.1125   0.025
0.1375   0.1375   0.025
0.1375   0.1625   0.025
0.1375   0.1875   0.025
0.1375   0.2125   0.025
0.1375   0.2375   0.025
0.1375   0.2625   0.025
0.1375   0.2875   0.025
0.1375   0.3125   0.025
0.1375   0.3375   0.025
0.1375   0.3625   0.025
0.1375   0.3875   0.025
0.1375   0.4125   0.025
0.1375   0.4375   0.025
0.1375   0.4625   0.025
0.1375   0.4875   0.025
0.1375   0.5125   0.025
0.1375   0.5375   0.025
0.1375   0.5625   0.025
0.1375   0.5875   0.025
0.1375   0.6125   0.025
0.1375   0.6375   0.025
0.1375   0.6625   0.025
0.1375   0.6875   0.025
0.1375   0.7125   0.025
0.1375   0.7375   0.025
0.1375   0.7625   0.025
0.1375   0.7875   0.025
0.1375   0.8125   0.025
0.1375   0.8375   0.025
0.1375   0.8625   0.025
0.1375   0.8875   0.025
0.1375   0.9125   0.025
0.1375   0.9375   0.025
0.1375   0.9625   0.025
0.1375   0.9875   0.025
0.1625   0.0125   0.025
0.1625   0.0375   0.025
0.1625   0.0625   0.025
0.1625   0.0875   0.025
0.1625   0.1125   0.025
0.1625   0.1375   0.025
0.1625   0.1625   0.025
0.1625   0.1875   0.025
0.1625   0.2125   0.025
0.1625   0.2375   0.025
0.1625   0.2625   0.025
0.1625   0.2875   0.025
0.1625   0.3125   0.025
0.1625   0.3375   0.025
0.1625   0.3625   0.025
0.1625   0.3875   0.025
0.1625   0.4125   0.025
0.1625   0.4375   0.025
0.1625   0.4625   0.025
0.1625   0.4875   0.025
0.1625   0.5125   0.025
0.1625   0.5375   0.025
0.1625   0.5625   0.025
0.1625   0.5875   0.025
0.1625   0.6125   0.025
0.1625   0.6375   0.025
0.1625   0.6625   0.025
0.1625   0.6875   0.025
0.1625   0.7125   0.025
0.1625   0.7375   0.025
0.1625   0.7625   0.025
0.1625   0.7875   0.025
0.1625   0.8125   0.025
0.1625   0.8375   0.025
0.1625   0.8625   0.025
0.1625   0.8875   0.025
0.1625   0.9125   0.025
0.1625   0.9375   0.025
0.1625   0.9625   0.025
0.1625   0.9875   0.025
0.1875   0.0125   0.025
0.1875   0.0375   0.025
0.1875   0.0625   0.025
0.1875   0.0875   0.025
0.1875   0.1125   0.025
0.1875   0.1375   0.025
0.1875   0.1625   0.025
0.1875   0.1875   0.025
0.1875   0.2125   0.025
0.1875   0.2375   0.025
0.1875   0.2625   0.025
0.1875   0.2875   0.025
0.1875   0.3125   0.025
0.1875   0.3375   0.025
0.1875   0.3625   0.025
0.1875   0.3875   0.025
0.1875   0.4125   0.025
0.1875   0.4375   0.025
0.1875   0.4625   0.025
0.1875   0.4875   0.025
0.1875   0.5125   0.025
0.1875   0.5375   0.025
0.1875   0.5625   0.025
0.1875   0.5875   0.025
0.1875   0.6125   0.025
0.1875   0.6375   0.025
0.1875   0.6625   0.025
0.1875   0.6875   0.025
0.1875   0.7125   0.025
0.1875   0.7375   0.025
0.1875   0.7625   0.025
0.1875   0.7875   0.025
0.1875   0.8125   0.025
0.1875   0.8375   0.025
0.1875   0.8625   0.025
0.1875   0.8875   0.025
0.1875   0.9125   0.025
0.1875   0.9375   0.025
0.1875   0.9625   0.025
0.1875   0.9875   0.025
0.2125   0.0125   0.025
0.2125   0.0375   0.025
0.2125   0.0625   0.025
0.2125   0.0875   0.025
0.2125   0.1125   0.025
0.2125   0.1375   0.025
0.2125   0.1625   0.025
0.2125   0.1875   0.025
0.2125   0.2125   0.025
0.2125   0.2375   0.025
0.2125   0.2625   0.025
0.2125   0.2875   0.025
0.2125   0.3125   0.025
0.2125   0.3375   0.025
0.2125   0.3625   0.025
0.2125   0.3875   0.025
0.2125   0.4125   0.025
0.2125   0.4375   0.025
0.2125   0.4625   0.025
0.2125   0.4875   0.025
0.2125   0.5125   0.025
0.2125   0.5375   0.025
0.2125   0.5625   0.025
0.2125   0.5875   0.025
0.2125   0.6125   0.025
0.2125   0.6375   0.025
0.2125   0.6625   0.025
0.2125   0.6875   0.025
0.2125   0.7125   0.025
0.2125   0.7375   0.025
0.2125   0.7625   0.025
0.2125   0.7875   0.025
0.2125   0.8125   0.025
0.2125   0.8375   0.025
0.2125   0.8625   0.025
0.2125   0.8875   0.025
0.2125   0.9125   0.025
0.2125   0.9375   0.025
0.2125   0.9625   0.025
0.2125   0.9875   0.025
0.2375   0.0125   0.025
0.2375   0.0375   0.025
0.2375   0.0625   0.025
0.2375   0.0875   0.025
0.2375   0.1125   0.025
0.2375   0.1375   0.025
0.2375   0.1625   0.025
0.2375   0.1875   0.025
0.2375   0.2125   0.025
0.2375   0.2375   0.025
0.2375   0.2625   0.025
0.2375   0.2875   0.025
0.2375   0.3125   0.025
0.2375   0.3375   0.025
0.2375   0.3625   0.025
0.2375   0.3875   0.025
0.2375   0.4125   0.025
0.2375   0.4375   0.025
0.2375   0.4625   0.025
0.2375   0.4875   0.025
0.2375   0.5125   0.025
0.2375   0.5375   0.025
0.2375   0.5625   0.025
0.2375   0.5875   0.025
0.2375   0.6125   0.025
0.2375   0.6375   0.025
0.2375   0.6625   0.025
0.2375   0.6875   0.025
0.2375   0.7125   0.025
0.2375   0.7375   0.025
0.2375   0.7625   0.025
0.2375   0.7875   0.025
0.2375   0.8125   0.025
0.2375   0.8375   0.025
0.2375   0.8625   0.025
0.2375   0.8875   0.025
0.2375   0.9125   0.025
0.2375   0.9375   0.025
0.2375   0.9625   0.025
0.2375   0.9875   0.025
0.2625   0.0125   0.025
0.2625   0.0375   0.025
0.2625   0.0625   0.025
0.2625   0.0875   0.025
0.2625   0.1125   0.025
0.2625   0.1375   0.025
0.2625   0.1625   0.025
0.2625   0.1875   0.025
0.2625   0.2125   0.025
0.2625   0.2375   0.025
0.2625   0.2625   0.025
[...]
POINT_DATA   32000
VECTORS Velocidades double

6.49412e-05 0.00121143 0
0.000254346 0.00216797 0
0.000152115 0.0017583 0
-5.53904e-07 0.00159762 0
-0.000150416 0.00173044 0
-0.000287751 0.00213897 0
-0.000412282 0.00279604 0
-0.0005253 0.00367607 0
-0.000627966 0.00475633 0
-0.00072102 0.00601642 0
-0.000804797 0.00743727 0
-0.000879299 0.00900049 0
-0.000944267 0.0106876 0
-0.000999275 0.0124799 0
-0.00104381 0.0143578 0
-0.00107739 0.0163011 0
-0.00109965 0.0182889 0
-0.0011105 0.0203003 0
-0.00111026 0.0223148 0
-0.00109976 0.0243131 0
-0.00108059 0.026279 0
-0.00105522 0.0282001 0
-0.00102729 0.0300703 0
-0.00100192 0.0318927 0
-0.000986207 0.0336821 0
-0.00098995 0.0354703 0
-0.00102684 0.0373125 0
-0.00111629 0.0392967 0
-0.00128643 0.0415579 0
-0.00157889 0.0443008 0
-0.00205649 0.047834 0
-0.00281594 0.0526259 0
-0.00400871 0.0593938 0
-0.00587515 0.0692488 0
-0.00879423 0.0839259 0
-0.0133171 0.106098 0
-0.0199255 0.139485 0
-0.0268842 0.18657 0
-0.0163076 0.230242 0
0.124138 0.123426 0
0.00013737 0.00264838 0
0.000574876 0.00523024 0
0.000251927 0.00521378 0
-0.000287763 0.00554501 0
-0.000865191 0.0063806 0
-0.00142292 0.00776704 0
-0.00194386 0.00969669 0
-0.00242405 0.0121393 0
-0.00286343 0.015056 0
-0.00326257 0.0184052 0
-0.0036216 0.0221439 0
-0.00393994 0.0262285 0
-0.00421628 0.0306142 0
-0.00444884 0.0352546 0
-0.00463561 0.0401018 0
-0.00477479 0.0451065 0
-0.00486522 0.0502181 0
-0.0049069 0.0553862 0
-0.00490157 0.0605618 0
-0.00485331 0.0656999 0
-0.00476927 0.070762 0
-0.00466047 0.0757199 0
-0.0045428 0.0805602 0
-0.00443832 0.0852901 0
-0.00437714 0.0899447 0
-0.00440008 0.0945961 0
-0.00456271 0.0993659 0
-0.00494138 0.104441 0
-0.0056422 0.110097 0
-0.00681408 0.116722 0
-0.00866734 0.124858 0
-0.0114985 0.135233 0
-0.0157197 0.148787 0
-0.0218779 0.16664 0
-0.0306023 0.189848 0
-0.0422221 0.21857 0
-0.0549941 0.249488 0
-0.0574432 0.268582 0
0.00402379 0.236053 0
0.34864 0.0998428 0
7.3639e-05 0.00386324 0
0.000441395 0.00792762 0
-0.000203558 0.00853168 0
-0.00126864 0.00962586 0
-0.00246623 0.011347 0
-0.00366719 0.0137624 0
-0.00481625 0.0168841 0
-0.00589077 0.0206906 0
-0.00688181 0.0251425 0
-0.00778549 0.0301902 0
-0.00859922 0.0357789 0
-0.00932013 0.0418503 0
-0.00994459 0.0483428 0
-0.0104683 0.0551922 0
-0.0108869 0.0623316 0
-0.0111966 0.0696916 0
-0.0113952 0.0772015 0
-0.0114829 0.0847903 0
-0.0114642 0.0923889 0
-0.0113484 0.099933 0
-0.0111518 0.107367 0
-0.010899 0.114646 0
-0.0106251 0.121747 0
-0.0103781 0.12867 0
-0.0102227 0.135447 0
-0.0102445 0.142155 0
-0.010557 0.148921 0
-0.0113099 0.15594 0
-0.0127014 0.163485 0
-0.0149917 0.171915 0
-0.0185168 0.181679 0
-0.0236918 0.193278 0
-0.0309791 0.207172 0
-0.0407503 0.223521 0
-0.0528461 0.241582 0
-0.0652577 0.258388 0
-0.0702107 0.266088 0
-0.042589 0.247887 0
0.0914594 0.178972 0
0.513642 0.0642169 0
-0.0001445 0.00500167 0
-0.000202989 0.0104524 0
-0.00136316 0.0116608 0
-0.00307306 0.013531 0
-0.00500109 0.0161376 0
-0.00696566 0.0195286 0
-0.00887265 0.023716 0
-0.0106749 0.0286827 0
-0.0123489 0.0343914 0
-0.013882 0.0407915 0
-0.0152657 0.0478237 0
-0.0164927 0.0554229 0
-0.0175554 0.0635186 0
-0.0184459 0.0720364 0
-0.0191563 0.0808976 0
-0.0196799 0.0900203 0
-0.0200129 0.0993199 0
-0.0201555 0.108711 0
-0.0201145 0.118109 0
-0.019905 0.127434 0
-0.019553 0.136613 0
-0.0190976 0.145584 0
-0.0185945 0.154306 0
-0.0181191 0.162756 0
-0.0177708 0.170946 0
-0.0176788 0.17892 0
-0.0180083 0.186767 0
-0.0189684 0.19462 0
-0.0208203 0.202655 0
-0.0238798 0.211082 0
-0.0285075 0.220102 0
-0.0350598 0.229825 0
-0.0437498 0.240096 0
-0.0542919 0.250153 0
-0.0650395 0.257992 0
-0.0709192 0.259282 0
-0.0585496 0.245921 0
0.00462852 0.205741 0
0.189884 0.129823 0
0.61986 0.0412223 0
-0.000502906 0.00606529 0
-0.00129918 0.0127898 0
-0.00318442 0.0145208 0
-0.00566423 0.0170787 0
-0.00840626 0.0204743 0
-0.0112044 0.0247203 0
-0.0139379 0.029814 0
-0.0165379 0.0357342 0
-0.0189656 0.0424434 0
-0.0211975 0.0498915 0
-0.0232173 0.0580189 0
-0.0250115 0.0667584 0
-0.0265669 0.0760364 0
-0.0278704 0.0857735 0
-0.0289096 0.095885 0
-0.0296736 0.106281 0
-0.0301556 0.116868 0
-0.0303545 0.12755 0
-0.0302782 0.138229 0
-0.0299459 0.148811 0
-0.0293915 0.159204 0
-0.0286666 0.169328 0
-0.0278443 0.179114 0
-0.0270229 0.188512 0
-0.0263297 0.197493 0
-0.025926 0.206051 0
-0.0260114 0.214207 0
-0.0268268 0.222 0
-0.0286523 0.229477 0
-0.0317929 0.236661 0
-0.0365343 0.243497 0
-0.0430329 0.249741 0
-0.0510676 0.254784 0
-0.0594993 0.257331 0
-0.0651254 0.254924 0
-0.060313 0.24332 0
-0.0283493 0.216181 0
0.0645342 0.166736 0
0.277978 0.0954389 0
0.689363 0.0276055 0
-0.000977577 0.00702498 0
-0.00276792 0.0148788 0
-0.00556467 0.0170342 0
-0.0089313 0.0201569 0
-0.0125567 0.0242044 0
-0.0162324 0.0291521 0
-0.0198255 0.0349762 0
-0.0232533 0.0416456 0
-0.0264647 0.0491198 0
-0.0294261 0.0573488 0
-0.032113 0.0662742 0
-0.0345044 0.0758298 0
-0.0365806 0.085942 0
-0.0383219 0.0965305 0
-0.0397096 0.107508 0
-0.0407271 0.11878 0
-0.0413628 0.130247 0
-0.0416121 0.141804 0
-0.0414816 0.153342 0
-0.0409917 0.164751 0
-0.0401809 0.175924 0
-0.0391088 0.186755 0
-0.0378606 0.197149 0
-0.0365496 0.207019 0
-0.035321 0.216291 0
-0.034354 0.224901 0
-0.0338626 0.232794 0
-0.0340911 0.239913 0
-0.035301 0.246179 0
-0.0377363 0.251454 0
-0.0415461 0.255482 0
-0.0466211 0.257789 0
-0.0522605 0.257524 0
-0.0565133 0.253229 0
-0.054915 0.242539 0
-0.0381793 0.221969 0
0.0116211 0.187288 0
0.126007 0.135762 0
0.352036 0.0722893 0
0.737031 0.0194627 0
-0.00154324 0.00785072 0
-0.00452887 0.0166605 0
-0.00838737 0.0191424 0
-0.0127381 0.0227009 0
-0.0173018 0.0272519 0
-0.0218824 0.0327378 0
-0.0263471 0.0391134 0
-0.0306083 0.0463358 0
-0.0346077 0.0543597 0
-0.038304 0.0631348 0
-0.0416652 0.0726044 0
-0.0446631 0.0827047 0
-0.0472701 0.0933645 0
-0.0494588 0.104505 0
-0.0512027 0.116037 0
-0.0524775 0.127867 0
-0.0532641 0.139888 0
-0.0535521 0.151988 0
-0.0533433 0.164049 0
-0.052656 0.175946 0
-0.0515287 0.187553 0
-0.0500241 0.198743 0
-0.0482327 0.209388 0
-0.0462752 0.219368 0
-0.0443042 0.228561 0
-0.0425039 0.23685 0
-0.0410857 0.24411 0
-0.0402771 0.250202 0
-0.0402967 0.254944 0
-0.0413014 0.258087 0
-0.0432825 0.259249 0
-0.0458611 0.257842 0
-0.0479015 0.25295 0
-0.0467976 0.243177 0
-0.0372142 0.226512 0
-0.0090366 0.200379 0
0.0554808 0.162326 0
0.184272 0.112193 0
0.413581 0.0565883 0
0.77146 0.014424 0
-0.00217629 0.00851889 0
-0.00650668 0.0180908 0
-0.0115387 0.0208078 0
-0.016946 0.0246787 0
-0.0224864 0.0295876 0
-0.0279852 0.0354509 0
-0.0333197 0.0422047 0
-0.038405 0.0497953 0
-0.043181 0.0581727 0
-0.0476022 0.0672861 0
-0.0516308 0.0770812 0
-0.0552313 0.0874977 0
-0.0583683 0.0984682 0
-0.0610053 0.109916 0
-0.063106 0.121755 0
-0.0646361 0.133888 0
-0.0655668 0.146206 0
-0.0658783 0.158592 0
-0.0655646 0.170915 0
-0.0646375 0.183039 0
-0.0631313 0.194818 0
-0.0611066 0.206103 0
-0.0586533 0.216741 0
-0.0558923 0.226574 0
-0.0529756 0.235442 0
-0.0500824 0.243181 0
-0.047411 0.24961 0
-0.0451607 0.254528 0
-0.0434967 0.257686 0
-0.0424835 0.258764 0
-0.0419607 0.257325 0
-0.0413119 0.252753 0
-0.0390499 0.244171 0
-0.0320942 0.230358 0
-0.0145926 0.209727 0
0.0237959 0.180524 0
0.0998684 0.141613 0
0.237746 0.0943396 0
0.465071 0.0456795 0
0.79755 0.0111719 0
-0.00285569 0.00901301 0
-0.00863319 0.0191406 0
-0.0149136 0.0220098 0
-0.0214235 0.026079 0
-0.0279607 0.0312094 0
-0.0343781 0.0372978 0
-0.04057 0.0442663 0
-0.0464605 0.0520528 0
-0.0519927 0.0606043 0
-0.0571204 0.0698705 0
-0.0618017 0.0798005 0
-0.0659949 0.0903385 0
-0.0696559 0.101422 0
-0.072738 0.112977 0
-0.0751934 0.124921 0
-0.0769755 0.137156 0
-0.0780427 0.149572 0
-0.0783628 0.162043 0
-0.077918 0.174432 0
-0.0767102 0.186588 0
-0.0747651 0.19835 0
-0.0721366 0.209547 0
-0.0689093 0.220001 0
-0.0651993 0.229525 0
-0.061152 0.237927 0
-0.0569366 0.245005 0
-0.052733 0.250538 0
-0.0487086 0.254284 0
-0.0449756 0.255956 0
-0.0415134 0.255204 0
-0.0380308 0.251579 0
-0.0337195 0.244489 0
-0.0268293 0.233151 0
-0.0139681 0.216554 0
0.0109593 0.19351 0
0.0581277 0.16293 0
0.143032 0.12459 0
0.286229 0.0806546 0
0.508702 0.0378616 0
0.81815 0.00897683 0
-0.00356304 0.00932251 0
-0.0108478 0.0197924 0
-0.0184168 0.0227394 0
-0.026049 0.026903 0
-0.0335846 0.0321285 0
-0.040908 0.0382999 0
-0.0479358 0.0453302 0
-0.0546058 0.0531526 0
-0.0608688 0.0617134 0
-0.0666807 0.0709649 0
-0.0719975 0.0808606 0
-0.0767714 0.0913506 0
-0.0809497 0.102378 0
-0.0844743 0.113874 0
-0.0872837 0.125758 0
-0.0893166 0.137935 0
-0.0905157 0.150291 0
-0.0908329 0.162697 0
-0.0902356 0.175006 0
-0.0887117 0.187056 0
-0.0862747 0.198671 0
-0.0829685 0.20966 0
-0.0788687 0.219824 0
-0.0740832 0.228954 0
-0.0687487 0.236832 0
-0.063022 0.243227 0
-0.0570641 0.247895 0
-0.0510129 0.250569 0
-0.0449336 0.250947 0
-0.0387346 0.248674 0
-0.0320194 0.243319 0
-0.0238336 0.234342 0
-0.0122431 0.22107 0
0.00632531 0.202697 0
0.0380123 0.178375 0
0.0925902 0.147524 0
0.184134 0.110528 0
0.330049 0.0699567 0
0.546182 0.0320672 0
0.834967 0.00742675 0
-0.00428221 0.00944123 0
-0.0130968 0.0200366 0
-0.0219624 0.0229942 0
-0.0307116 0.0271571 0
-0.0392284 0.0323611 0
-0.0474323 0.038483 0
-0.0552657 0.0454321 0
-0.0626845 0.053141 0
-0.0696501 0.0615582 0
-0.0761228 0.070641 0
-0.0820579 0.0803494 0
-0.0874024 0.0906406 0
-0.0920939 0.101464 0
-0.0960618 0.112758 0
-0.0992292 0.124446 0
-0.101517 0.136433 0
-0.10285 0.148606 0
-0.10316 0.160831 0
-0.102396 0.172955 0
-0.10053 0.184803 0
-0.0975601 0.196186 0
-0.0935164 0.206899 0
-0.0884641 0.216725 0
-0.0825016 0.225434 0
-0.0757558 0.23279 0
-0.0683723 0.238546 0
-0.060496 0.242442 0
-0.0522402 0.244202 0
-0.0436328 0.243523 0
-0.0345263 0.240062 0
-0.0244442 0.233419 0
-0.0123263 0.223117 0
0.00388077 0.208593 0
0.0278318 0.189221 0
0.0655774 0.164431 0
0.126355 0.134019 0
0.222831 0.0987651 0
0.369682 0.0613962 0
0.578783 0.0276234 0
0.849052 0.00628296 0
-0.00499873 0.00936622 0
-0.0153312 0.0198695 0
-0.025472 0.0227757 0
-0.0353084 0.0268496 0
-0.0447711 0.0319231 0
-0.0538172 0.0378713 0
-0.062418 0.0446046 0
-0.0705503 0.0520593 0
-0.0781884 0.0601895 0
-0.085299 0.0689601 0
-0.0918377 0.0783396 0
-0.097746 0.088294 0
-0.102952 0.0987812 0
-0.10737 0.109747 0
-0.110906 0.121119 0
-0.113461 0.132806 0
-0.114937 0.144695 0
-0.115246 0.15665 0
-0.114315 0.168509 0
-0.112093 0.180091 0
-0.108563 0.191195 0
-0.103741 0.201602 0
-0.0976779 0.21108 0
-0.0904638 0.219386 0
-0.0822172 0.226269 0
-0.0730744 0.231472 0
-0.0631689 0.234729 0
-0.0525962 0.235763 0
-0.0413567 0.23428 0
-0.0292617 0.229956 0
-0.0157766 0.22243 0
0.000231241 0.211286 0
0.0208835 0.196061 0
0.0498428 0.176282 0
0.0929797 0.151599 0
0.158932 0.12208 0
0.259024 0.0887557 0
0.405599 0.0543716 0
0.607435 0.0240989 0
0.861079 0.00540284 0
-0.00569918 0.00909703 0
-0.0175061 0.0192916 0
-0.0288725 0.0220877 0
-0.0397435 0.0259892 0
-0.0500992 0.0308289 0
-0.0599367 0.0364857 0
-0.0692589 0.0428756 0
-0.0780651 0.0499424 0
-0.0863445 0.0576496 0
-0.0940714 0.0659721 0
-0.101202 0.0748892 0
-0.107672 0.0843773 0
-0.113399 0.0944046 0
-0.118281 0.104925 0
-0.122205 0.115873 0
-0.125049 0.127163 0
-0.126692 0.138682 0
-0.127017 0.150292 0
-0.125929 0.161828 0
-0.123356 0.173102 0
-0.119258 0.183901 0
-0.113635 0.193998 0
-0.106528 0.203147 0
-0.0980165 0.211097 0
-0.0882131 0.217585 0
-0.0772489 0.22235 0
-0.0652505 0.225123 0
-0.0523028 0.225634 0
-0.0383881 0.223599 0
-0.0232891 0.21872 0
-0.00643136 0.21067 0
0.0133636 0.199094 0
0.0382464 0.183613 0
0.0718336 0.163879 0
0.119757 0.139714 0
0.190028 0.111385 0
0.292729 0.0800699 0
0.438209 0.0484559 0
0.632812 0.0212106 0
0.871485 0.00469833 0
-0.00637065 0.00863542 0
-0.0195781 0.018307 0
-0.032094 0.0209362 0
-0.0439255 0.0245852 0
-0.0551046 0.0290924 0
-0.0656712 0.0343452 0
-0.075661 0.0402696 0
-0.0850976 0.046821 0
-0.0939861 0.053975 0
-0.102309 0.0617193 0
-0.110022 0.0700458 0
-0.117057 0.0789437 0
-0.123318 0.0883924 0
-0.128686 0.0983561 0
-0.133028 0.108779 0
-0.136194 0.119578 0
-0.138036 0.130647 0
-0.138411 0.141847 0
-0.137195 0.153011 0
-0.13429 0.163944 0
-0.129635 0.174429 0
-0.123215 0.184227 0
-0.115055 0.193086 0
-0.10523 0.200744 0
-0.0938469 0.206934 0
-0.0810358 0.21139 0
-0.0669217 0.213847 0
-0.051585 0.214039 0
-0.0349983 0.211698 0
-0.0169264 0.206547 0
0.00323049 0.198295 0
0.0266756 0.186635 0
0.0555578 0.17126 0
0.0934085 0.151926 0
0.145583 0.128586 0
0.21947 0.101647 0
0.324009 0.0723705 0
0.467848 0.0433411 0
0.655405 0.0187674 0
0.880565 0.00411301 0
-0.00700025 0.00798553 0
-0.021505 0.0169241 0
-0.0350692 0.0193307 0
-0.0477666 0.0226492 0
-0.0596843 0.0267288 0
-0.0709064 0.0314697 0
-0.081503 0.0368121 0
-0.0915225 0.0427259 0
-0.100986 0.0492018 0
-0.109885 0.0562423 0
-0.118175 0.0638539 0
-0.125781 0.07204 0
-0.132595 0.0807934 0
-0.13848 0.0900902 0
-0.143276 0.0998842 0
-0.146808 0.110102 0
-0.148897 0.120642 0
-0.14937 0.131367 0
-0.148071 0.142111 0
-0.144875 0.152677 0
-0.139699 0.162842 0
-0.132507 0.172361 0
-0.123315 0.180975 0
-0.112189 0.188415 0
-0.0992347 0.194412 0
-0.084585 0.198697 0
-0.0683675 0.201007 0
-0.0506642 0.201083 0
-0.0314442 0.19867 0
-0.010463 0.193511 0
0.0128925 0.185343 0
0.0398333 0.173901 0
0.0724831 0.158938 0
0.114259 0.140291 0
0.170219 0.118015 0
0.247142 0.0926148 0
0.352929 0.0653909 0
0.494774 0.0388002 0
0.675569 0.0166361 0
0.88852 0.00360929 0
-0.00757487 0.00715426 0
-0.0232445 0.0151567 0
-0.037732 0.0172858 0
-0.0511821 0.0201981 0
-0.0637394 0.0237587 0
-0.0755335 0.0278849 0
-0.0866692 0.0325343 0
-0.0972198 0.0376942 0
-0.107223 0.0433721 0
-0.116677 0.0495873 0
-0.125539 0.0563626 0
-0.133727 0.0637167 0
-0.141117 0.0716572 0
-0.147553 0.0801742 0
-0.152851 0.0892339 0
-0.156804 0.0987736 0
-0.159201 0.108698 0
-0.159835 0.118879 0
-0.158518 0.129151 0
-0.155094 0.139319 0
-0.149455 0.149156 0
-0.141545 0.158414 0
-0.131367 0.16683 0
-0.118982 0.17413 0
-0.104497 0.180041 0
-0.0880489 0.184293 0
-0.0697721 0.186624 0
-0.0497543 0.186781 0
-0.0279672 0.18452 0
-0.00416398 0.179598 0
0.0222726 0.171775 0
0.0525474 0.16082 0
0.0887402 0.146535 0
0.134133 0.128821 0
0.193475 0.107808 0
0.272957 0.0840719 0
0.379542 0.0589169 0
0.519181 0.0346613 0
0.693554 0.0147207 0
0.895485 0.0031611 0
-0.00808104 0.00615182 0
-0.0247549 0.0130255 0
-0.0400182 0.0148233 0
-0.0540909 0.0172568 0
-0.0671764 0.0202119 0
-0.0794499 0.0236266 0
-0.0910505 0.0274788 0
-0.102076 0.0317751 0
-0.11258 0.0365413 0
-0.122567 0.0418143 0
-0.131996 0.0476339 0
-0.140775 0.0540358 0
-0.148767 0.0610437 0
-0.155795 0.0686632 0
-0.161646 0.0768753 0
-0.166085 0.0856308 0
-0.168864 0.0948462 0
-0.169739 0.104401 0
-0.168487 0.114139 0
-0.164921 0.123866 0
-0.158902 0.133359 0
-0.150354 0.142368 0
-0.139268 0.150627 0
-0.125698 0.157859 0
-0.109754 0.163787 0
-0.0915777 0.168139 0
-0.0713144 0.170655 0
-0.049061 0.171083 0
-0.0247957 0.169185 0
0.0017248 0.16473 0
0.0311138 0.157496 0
0.0645587 0.147275 0
0.10408 0.133909 0
0.15281 0.117348 0
0.215184 0.0977811 0
0.296833 0.0758263 0
0.403875 0.0527718 0
0.541199 0.0307899 0
0.709535 0.0129492 0
0.901551 0.00274955 0
-0.00850507 0.00499234 0
-0.0259949 0.0105594 0
-0.0418666 0.0119743 0
-0.0564169 0.0138611 0
-0.0699083 0.0161307 0
-0.0825606 0.0187454 0
-0.0945459 0.021705 0
-0.105985 0.0250364 0
-0.116946 0.0287843 0
-0.127441 0.0330034 0
-0.137427 0.0377511 0
-0.146805 0.0430802 0
-0.155425 0.0490322 0
-0.163086 0.0556299 0
-0.169548 0.0628717 0
-0.174544 0.0707248 0
-0.177789 0.0791213 0
-0.179001 0.0879545 0
-0.177918 0.0970781 0
-0.174316 0.106308 0
-0.168028 0.115424 0
-0.158954 0.12418 0
-0.147068 0.13231 0
-0.132419 0.139534 0
-0.115118 0.145573 0
-0.0953149 0.150152 0
-0.0731662 0.153007 0
-0.0487806 0.153887 0
-0.0221464 0.152556 0
0.00697163 0.148788 0
0.039176 0.142371 0
0.0756267 0.133119 0
0.118273 0.120898 0
0.170087 0.105701 0
0.235188 0.0877567 0
0.318683 0.0677071 0
0.425926 0.0468066 0
0.560907 0.0270778 0
0.723622 0.0112656 0
0.906775 0.00236044 0
-0.00883339 0.00369445 0
-0.0269256 0.00779689 0
-0.0432201 0.00878166 0
-0.0580908 0.0100605 0
-0.0718571 0.011574 0
-0.0847808 0.0133108 0
-0.0970645 0.0152935 0
-0.10885 0.0175694 0
-0.120219 0.0202016 0
-0.131189 0.023262 0
-0.141717 0.0268253 0
-0.151698 0.0309616 0
-0.160964 0.0357308 0
-0.169297 0.0411749 0
-0.176429 0.0473119 0
-0.182058 0.0541296 0
-0.185863 0.0615796 0
-0.18752 0.0695737 0
-0.186727 0.0779821 0
-0.183222 0.0866338 0
-0.176803 0.09532 0
-0.167343 0.1038 0
-0.1548 0.11181 0
-0.139211 0.11907 0
-0.12069 0.125299 0
-0.0993934 0.130217 0
-0.0754893 0.133555 0
-0.0490999 0.135058 0
-0.0202261 0.134487 0
0.0113552 0.131617 0
0.0462295 0.12624 0
0.0855211 0.118181 0
0.131098 0.10733 0
0.185762 0.0937056 0
0.253326 0.0775651 0
0.338401 0.0595583 0
0.445662 0.0408919 0
0.578337 0.0234349 0
0.735877 0.0096252 0
0.911187 0.0019826 0
-0.00905302 0.00228163 0
-0.0275111 0.00478721 0
-0.0440287 0.00530079 0
-0.0590532 0.00592019 0
-0.0729566 0.00661915 0
-0.0860385 0.00741369 0
-0.098528 0.00834946 0
-0.110586 0.00949273 0
-0.122305 0.0109235 0
-0.133709 0.0127297 0
-0.144754 0.0150018 0
-0.155329 0.0178271 0
-0.165255 0.021284 0
-0.174293 0.0254351 0
-0.182148 0.0303212 0
-0.188487 0.0359537 0
-0.192951 0.0423089 0
-0.195174 0.0493229 0
-0.19481 0.0568885 0
-0.191556 0.0648546 0
-0.185172 0.0730283 0
-0.1755 0.0811807 0
-0.162475 0.0890541 0
-0.146124 0.0963718 0
-0.126555 0.102849 0
-0.103932 0.1082 0
-0.0784332 0.11215 0
-0.0501949 0.114434 0
-0.0192324 0.114807 0
0.0146617 0.113037 0
0.0520505 0.108917 0
0.0940148 0.102278 0
0.142333 0.0930211 0
0.199632 0.0811841 0
0.269425 0.067041 0
0.355862 0.051235 0
0.463013 0.0349122 0
0.593476 0.0197835 0
0.74632 0.00799037 0
0.914801 0.00160698 0
-0.00915226 0.0007824 0
-0.0277214 0.00159075 0
-0.0442519 0.00160097 0
-0.0592574 0.00152216 0
-0.0731556 0.00136354 0
-0.0862773 0.00116874 0
-0.098874 0.00100479 0
-0.111121 0.00095497 0
-0.123122 0.00111365 0
-0.134907 0.00158221 0
-0.146431 0.00246511 0
-0.15758 0.0038655 0
-0.168163 0.00588013 0
-0.177926 0.00859345 0
-0.186551 0.0120708 0
-0.193672 0.0163515 0
-0.198895 0.0214415 0
-0.201811 0.0273074 0
-0.20203 0.0338718 0
-0.199203 0.0410109 0
-0.193048 0.0485552 0
-0.183371 0.0562938 0
-0.170078 0.0639807 0
-0.153179 0.0713447 0
-0.132774 0.0780997 0
-0.109029 0.0839551 0
-0.0821308 0.0886248 0
-0.0522287 0.0918334 0
-0.0193536 0.0933214 0
0.0166834 0.0928484 0
0.0564175 0.0902005 0
0.100879 0.0852074 0
0.151749 0.0777766 0
0.21148 0.067955 0
0.283292 0.0560211 0
0.370912 0.0425988 0
0.477877 0.0287614 0
0.606272 0.0160548 0
0.754933 0.00632884 0
0.917609 0.00122593 0
-0.00912155 -0.00076979 0
-0.0275342 -0.00172112 0
-0.0438615 -0.00223494 0
-0.0586727 -0.00303484 0
-0.0724209 -0.00407519 0
-0.0854606 -0.005286 0
-0.0980594 -0.00658142 0
-0.110405 -0.0078645 0
-0.122607 -0.00902997 0
-0.134703 -0.0099663 0
-0.146651 -0.0105579 0
-0.158333 -0.0106878 0
-0.169554 -0.0102419 0
-0.180045 -0.00911381 0
-0.189469 -0.00721151 0
-0.197436 -0.00446465 0
-0.203512 -0.000832393 0
-0.207251 0.00368899 0
-0.208217 0.00905965 0
-0.206011 0.0151918 0
-0.200306 0.021948 0
-0.190863 0.0291435 0
-0.177554 0.0365511 0
-0.160363 0.04391 0
-0.139377 0.0509364 0
-0.114757 0.057334 0
-0.0866941 0.0628054 0
-0.0553486 0.0670601 0
-0.0207672 0.0698215 0
0.0172177 0.0708336 0
0.0591086 0.0698703 0
0.105879 0.0667545 0
0.159109 0.0613921 0
0.221073 0.0538305 0
0.294713 0.0443408 0
0.383368 0.0335145 0
0.490116 0.0223386 0
0.616634 0.0121854 0
0.761667 0.00461167 0
0.919593 0.000832756 0
-0.00895441 -0.00233708 0
-0.0269369 -0.00506705 0
-0.042845 -0.00611148 0
-0.0572876 -0.00763647 0
-0.0707412 -0.00956061 0
-0.0835742 -0.0117902 0
-0.0960637 -0.0142243 0
-0.108405 -0.0167566 0
-0.120715 -0.0192752 0
-0.133035 -0.0216627 0
-0.145329 -0.023796 0
-0.157481 -0.0255475 0
-0.169295 -0.0267876 0
-0.180494 -0.027389 0
-0.190728 -0.027232 0
-0.199582 -0.0262125 0
-0.206596 -0.0242503 0
-0.211284 -0.021298 0
-0.213162 -0.0173496 0
-0.211785 -0.0124474 0