# vtk DataFile Version 2.0
Presion
ASCII

DATASET STRUCTURED_GRID
DIMENSIONS   40   40   20

POINTS   32000   double
0.0125   0.0125   0.025
0.0375   0.0125   0.025
0.0625   0.0125   0.025
0.0875   0.0125   0.025
0.1125   0.0125   0.025
0.1375   0.0125   0.025
0.1625   0.0125   0.025
0.1875   0.0125   0.025
0.2125   0.0125   0.025
0.2375   0.0125   0.025
0.2625   0.0125   0.025
0.2875   0.0125   0.025
0.3125   0.0125   0.025
0.3375   0.0125   0.025
0.3625   0.0125   0.025
0.3875   0.0125   0.025
0.4125   0.0125   0.025
0.4375   0.0125   0.025
0.4625   0.0125   0.025
0.4875   0.0125   0.025
0.5125   0.0125   0.025
0.5375   0.0125   0.025
0.5625   0.0125   0.025
0.5875   0.0125   0.025
0.6125   0.0125   0.025
0.6375   0.0125   0.025
0.6625   0.0125   0.025
0.6875   0.0125   0.025
0.7125   0.0125   0.025
0.7375   0.0125   0.025
0.7625   0.0125   0.025
0.7875   0.0125   0.025
0.8125   0.0125   0.025
0.8375   0.0125   0.025
0.8625   0.0125   0.025
0.8875   0.0125   0.025
0.9125   0.0125   0.025
0.9375   0.0125   0.025
0.9625   0.0125   0.025
0.9875   0.0125   0.025
0.0125   0.0375   0.025
0.0375   0.0375   0.025
0.0625   0.0375   0.025
0.0875   0.0375   0.025
0.1125   0.0375   0.025
0.1375   0.0375   0.025
0.1625   0.0375   0.025
0.1875   0.0375   0.025
0.2125   0.0375   0.025
0.2375   0.0375   0.025
0.2625   0.0375   0.025
0.2875   0.0375   0.025
0.3125   0.0375   0.025
0.3375   0.0375   0.025
0.3625   0.0375   0.025
0.3875   0.0375   0.025
0.4125   0.0375   0.025
0.4375   0.0375   0.025
0.4625   0.0375   0.025
0.4875   0.0375   0.025
0.5125   0.0375   0.025
0.5375   0.0375   0.025
0.5625   0.0375   0.025
0.5875   0.0375   0.025
0.6125   0.0375   0.025
0.6375   0.0375   0.025
0.6625   0.0375   0.025
0.6875   0.0375   0.025
0.7125   0.0375   0.025
0.7375   0.0375   0.025
0.7625   0.0375   0.025
0.7875   0.0375   0.025
0.8125   0.0375   0.025
0.8375   0.0375   0.025
0.8625   0.0375   0.025
0.8875   0.0375   0.025
0.9125   0.0375   0.025
0.9375   0.0375   0.025
0.9625   0.0375   0.025
0.9875   0.0375   0.025
0.0125   0.0625   0.025
0.0375   0.0625   0.025
0.0625   0.0625   0.025
0.0875   0.0625   0.025
0.1125   0.0625   0.025
0.1375   0.0625   0.025
0.1625   0.0625   0.025
0.1875   0.0625   0.025
0.2125   0.0625   0.025
0.2375   0.0625   0.025
0.2625   0.0625   0.025
0.2875   0.0625   0.025
0.3125   0.0625   0.025
0.3375   0.0625   0.025
0.3625   0.0625   0.025
0.3875   0.0625   0.025
0.4125   0.0625   0.025
0.4375   0.0625   0.025
0.4625   0.0625   0.025
0.4875   0.0625   0.025
0.5125   0.0625   0.025
0.5375   0.0625   0.025
0.5625   0.0625   0.025
0.5875   0.0625   0.025
0.6125   0.0625   0.025
0.6375   0.0625   0.025
0.6625   0.0625   0.025
0.6875   0.0625   0.025
0.7125   0.0625   0.025
0.7375   0.0625   0.025
0.7625   0.0625   0.025
0.7875   0.0625   0.025
0.8125   0.0625   0.025
0.8375   0.0625   0.025
0.8625   0.0625   0.025
0.8875   0.0625   0.025
0.9125   0.0625   0.025
0.9375   0.0625   0.025
0.9625   0.0625   0.025
0.9875   0.0625   0.025
0.0125   0.0875   0.025
0.0375   0.0875   0.025
0.0625   0.0875   0.025
0.0875   0.0875   0.025
0.1125   0.0875   0.025
0.1375   0.0875   0.025
0.1625   0.0875   0.025
0.1875   0.0875   0.025
0.2125   0.0875   0.025
0.2375   0.0875   0.025
0.2625   0.0875   0.025
0.2875   0.0875   0.025
0.3125   0.0875   0.025
0.3375   0.0875   0.025
0.3625   0.0875   0.025
0.3875   0.0875   0.025
0.4125   0.0875   0.025
0.4375   0.0875   0.025
0.4625   0.0875   0.025
0.4875   0.0875   0.025
0.5125   0.0875   0.025
0.5375   0.0875   0.025
0.5625   0.0875   0.025
0.5875   0.0875   0.025
0.6125   0.0875   0.025
0.6375   0.0875   0.025
0.6625   0.0875   0.025
0.6875   0.0875   0.025
0.7125   0.0875   0.025
0.7375   0.0875   0.025
0.7625   0.0875   0.025
0.7875   0.0875   0.025
0.8125   0.0875   0.025
0.8375   0.0875   0.025
0.8625   0.0875   0.025
0.8875   0.0875   0.025
0.9125   0.0875   0.025
0.9375   0.0875   0.025
0.9625   0.0875   0.025
0.9875   0.0875   0.025
0.0125   0.1125   0.025
0.0375   0.1125   0.025
0.0625   0.1125   0.025
0.0875   0.1125   0.025
0.1125   0.1125   0.025
0.1375   0.1125   0.025
0.1625   0.1125   0.025
0.1875   0.1125   0.025
0.2125   0.1125   0.025
0.2375   0.1125   0.025
0.2625   0.1125   0.025
0.2875   0.1125   0.025
0.3125   0.1125   0.025
0.3375   0.1125   0.025
0.3625   0.1125   0.025
0.3875   0.1125   0.025
0.4125   0.1125   0.025
0.4375   0.1125   0.025
0.4625   0.1125   0.025
0.4875   0.1125   0.025
0.5125   0.1125   0.025
0.5375   0.1125   0.025
0.5625   0.1125   0.025
0.5875   0.1125   0.025
0.6125   0.1125   0.025
0.6375   0.1125   0.025
0.6625   0.1125   0.025
0.6875   0.1125   0.025
0.7125   0.1125   0.025
0.7375   0.1125   0.025
0.7625   0.1125   0.025
0.7875   0.1125   0.025
0.8125   0.1125   0.025
0.8375   0.1125   0.025
0.8625   0.1125   0.025
0.8875   0.1125   0.025
0.9125   0.1125   0.025
0.9375   0.1125   0.025
0.9625   0.1125   0.025
0.9875   0.1125   0.025
0.0125   0.1375   0.025
0.0375   0.1375   0.025
0.0625   0.1375   0.025
0.0875   0.1375   0.025
0.1125   0.1375   0.025
0.1375   0.1375   0.025
0.1625   0.1375   0.025
0.1875   0.1375   0.025
0.2125   0.1375   0.025
0.2375   0.1375   0.025
0.2625   0.1375   0.025
0.2875   0.1375   0.025
0.3125   0.1375   0.025
0.3375   0.1375   0.025
0.3625   0.1375   0.025
0.3875   0.1375   0.025
0.4125   0.1375   0.025
0.4375   0.1375   0.025
0.4625   0.1375   0.025
0.4875   0.1375   0.025
0.5125   0.1375   0.025
0.5375   0.1375   0.025
0.5625   0.1375   0.025
0.5875   0.1375   0.025
0.6125   0.1375   0.025
0.6375   0.1375   0.025
0.6625   0.1375   0.025
0.6875   0.1375   0.025
0.7125   0.1375   0.025
0.7375   0.1375   0.025
0.7625   0.1375   0.025
0.7875   0.1375   0.025
0.8125   0.1375   0.025
0.8375   0.1375   0.025
0.8625   0.1375   0.025
0.8875   0.1375   0.025
0.9125   0.1375   0.025
0.9375   0.1375   0.025
0.9625   0.1375   0.025
0.9875   0.1375   0.025
0.0125   0.1625   0.025
0.0375   0.1625   0.025
0.0625   0.1625   0.025
0.0875   0.1625   0.025
0.1125   0.1625   0.025
0.1375   0.1625   0.025
0.1625   0.1625   0.025
0.1875   0.1625   0.025
0.2125   0.1625   0.025
0.2375   0.1625   0.025
0.2625   0.1625   0.025
0.2875   0.1625   0.025
0.3125   0.1625   0.025
0.3375   0.1625   0.025
0.3625   0.1625   0.025
0.3875   0.1625   0.025
0.4125   0.1625   0.025
0.4375   0.1625   0.025
0.4625   0.1625   0.025
0.4875   0.1625   0.025
0.5125   0.1625   0.025
0.5375   0.1625   0.025
0.5625   0.1625   0.025
0.5875   0.1625   0.025
0.6125   0.1625   0.025
0.6375   0.1625   0.025
0.6625   0.1625   0.025
0.6875   0.1625   0.025
0.7125   0.1625   0.025
0.7375   0.1625   0.025
0.7625   0.1625   0.025
0.7875   0.1625   0.025
0.8125   0.1625   0.025
0.8375   0.1625   0.025
0.8625   0.1625   0.025
0.8875   0.1625   0.025
0.9125   0.1625   0.025
0.9375   0.1625   0.025
0.9625   0.1625   0.025
0.9875   0.1625   0.025
0.0125   0.1875   0.025
0.0375   0.1875   0.025
0.0625   0.1875   0.025
0.0875   0.1875   0.025
0.1125   0.1875   0.025
0.1375   0.1875   0.025
0.1625   0.1875   0.025
0.1875   0.1875   0.025
0.2125   0.1875   0.025
0.2375   0.1875   0.025
0.2625   0.1875   0.025
0.2875   0.1875   0.025
0.3125   0.1875   0.025
0.3375   0.1875   0.025
0.3625   0.1875   0.025
0.3875   0.1875   0.025
0.4125   0.1875   0.025
0.4375   0.1875   0.025
0.4625   0.1875   0.025
0.4875   0.1875   0.025
0.5125   0.1875   0.025
0.5375   0.1875   0.025
0.5625   0.1875   0.025
0.5875   0.1875   0.025
0.6125   0.1875   0.025
0.6375   0.1875   0.025
0.6625   0.1875   0.025
0.6875   0.1875   0.025
0.7125   0.1875   0.025
0.7375   0.1875   0.025
0.7625   0.1875   0.025
0.7875   0.1875   0.025
0.8125   0.1875   0.025
0.8375   0.1875   0.025
0.8625   0.1875   0.025
0.8875   0.1875   0.025
0.9125   0.1875   0.025
0.9375   0.1875   0.025
0.9625   0.1875   0.025
0.9875   0.1875   0.025
0.0125   0.2125   0.025
0.0375   0.2125   0.025
0.0625   0.2125   0.025
0.0875   0.2125   0.025
0.1125   0.2125   0.025
0.1375   0.2125   0.025
0.1625   0.2125   0.025
0.1875   0.2125   0.025
0.2125   0.2125   0.025
0.2375   0.2125   0.025
0.2625   0.2125   0.025
0.2875   0.2125   0.025
0.3125   0.2125   0.025
0.3375   0.2125   0.025
0.3625   0.2125   0.025
0.3875   0.2125   0.025
0.4125   0.2125   0.025
0.4375   0.2125   0.025
0.4625   0.2125   0.025
0.4875   0.2125   0.025
0.5125   0.2125   0.025
0.5375   0.2125   0.025
0.5625   0.2125   0.025
0.5875   0.2125   0.025
0.6125   0.2125   0.025
0.6375   0.2125   0.025
0.6625   0.2125   0.025
0.6875   0.2125   0.025
0.7125   0.2125   0.025
0.7375   0.2125   0.025
0.7625   0.2125   0.025
0.7875   0.2125   0.025
0.8125   0.2125   0.025
0.8375   0.2125   0.025
0.8625   0.2125   0.025
0.8875   0.2125   0.025
0.9125   0.2125   0.025
0.9375   0.2125   0.025
0.9625   0.2125   0.025
0.9875   0.2125   0.025
0.0125   0.2375   0.025
0.0375   0.2375   0.025
0.0625   0.2375   0.025
0.0875   0.2375   0.025
0.1125   0.2375   0.025
0.1375   0.2375   0.025
0.1625   0.2375   0.025
0.1875   0.2375   0.025
0.2125   0.2375   0.025
0.2375   0.2375   0.025
0.2625   0.2375   0.025
0.2875   0.2375   0.025
0.3125   0.2375   0.025
0.3375   0.2375   0.025
0.3625   0.2375   0.025
0.3875   0.2375   0.025
0.4125   0.2375   0.025
0.4375   0.2375   0.025
0.4625   0.2375   0.025
0.4875   0.2375   0.025
0.5125   0.2375   0.025
0.5375   0.2375   0.025
0.5625   0.2375   0.025
0.5875   0.2375   0.025
0.6125   0.2375   0.025
0.6375   0.2375   0.025
0.6625   0.2375   0.025
0.6875   0.2375   0.025
0.7125   0.2375   0.025
0.7375   0.2375   0.025
0.7625   0.2375   0.025
0.7875   0.2375   0.025
0.8125   0.2375   0.025
0.8375   0.2375   0.025
0.8625   0.2375   0.025
0.8875   0.2375   0.025
0.9125   0.2375   0.025
0.9375   0.2375   0.025
0.9625   0.2375   0.025
0.9875   0.2375   0.025
0.0125   0.2625   0.025
0.0375   0.2625   0.025
0.0625   0.2625   0.025
0.0875   0.2625   0.025
0.1125   0.2625   0.025
0.1375   0.2625   0.025
0.1625   0.2625   0.025
0.1875   0.2625   0.025
0.2125   0.2625   0.025
0.2375   0.2625   0.025
0.2625   0.2625   0.025
[...]
POINT_DATA   32000
SCALARS Presion double
LOOKUP_TABLE   Presion

0 0 0 0 0 0 0 0 0 0 0 0 0 0 0 0 0 0 0 0 0 0 0 0 0 0 0 0 0 0 0 0 0 0 0 0 0 0 0 0 -5.19387e-06 -5.15013e-06 -5.07e-06 -4.95741e-06 -4.81488e-06 -4.64432e-06 -4.44727e-06 -4.2251e-06 -3.97898e-06 -3.7099e-06 -3.41863e-06 -3.10572e-06 -2.7714e-06 -2.41569e-06 -2.03834e-06 -1.63891e-06 -1.21677e-06 -7.7121e-07 -3.01515e-07 1.92955e-07 7.12627e-07 1.25758e-06 1.82743e-06 2.42115e-06 3.0369e-06 3.67191e-06 4.32228e-06 4.9829e-06 5.64736e-06 6.30794e-06 6.95566e-06 7.58052e-06 8.17163e-06 8.71771e-06 9.20756e-06 9.63066e-06 9.97773e-06 1.02415e-05 1.04171e-05 1.05035e-05 -1.03772e-05 -1.02907e-05 -1.01312e-05 -9.90647e-06 -9.62155e-06 -9.28033e-06 -8.88605e-06 -8.44153e-06 -7.94921e-06 -7.41114e-06 -6.82892e-06 -6.20372e-06 -5.53604e-06 -4.82591e-06 -4.07284e-06 -3.27591e-06 -2.43387e-06 -1.54523e-06 -6.08484e-07 3.77709e-07 1.4143e-06 2.50153e-06 3.63877e-06 4.82408e-06 6.05393e-06 7.32287e-06 8.62325e-06 9.94495e-06 1.12752e-05 1.25987e-05 1.38973e-05 1.51511e-05 1.63381e-05 1.74355e-05 1.84207e-05 1.92723e-05 1.99715e-05 2.05033e-05 2.08581e-05 2.10328e-05 -1.55591e-05 -1.54299e-05 -1.51909e-05 -1.48535e-05 -1.44253e-05 -1.39124e-05 -1.33198e-05 -1.26519e-05 -1.19127e-05 -1.11053e-05 -1.02323e-05 -9.29555e-06 -8.29591e-06 -7.23342e-06 -6.10736e-06 -4.91627e-06 -3.65816e-06 -2.33068e-06 -9.31409e-07 5.41885e-07 2.09085e-06 3.71614e-06 5.41707e-06 7.19106e-06 9.03314e-06 1.09355e-05 1.28869e-05 1.48724e-05 1.68731e-05 1.8866e-05 2.0824e-05 2.27168e-05 2.45109e-05 2.61717e-05 2.76644e-05 2.8956e-05 3.00176e-05 3.08259e-05 3.13657e-05 3.16319e-05 -2.07485e-05 -2.05761e-05 -2.02566e-05 -1.98049e-05 -1.92316e-05 -1.85449e-05 -1.77517e-05 -1.68586e-05 -1.58708e-05 -1.47932e-05 -1.36293e-05 -1.23818e-05 -1.1052e-05 -9.64002e-06 -8.14479e-06 -6.56426e-06 -4.8956e-06 -3.1354e-06 -1.28008e-06 6.73694e-07 2.72858e-06 4.88594e-06 7.14543e-06 9.50419e-06 1.19562e-05 1.44917e-05 1.70962e-05 1.97504e-05 2.24293e-05 2.51023e-05 2.77332e-05 3.02808e-05 3.27e-05 3.49431e-05 3.69623e-05 3.87121e-05 4.0152e-05 4.12496e-05 4.19833e-05 4.23454e-05 -2.59541e-05 -2.57376e-05 -2.53357e-05 -2.47673e-05 -2.40457e-05 -2.31817e-05 -2.21846e-05 -2.10629e-05 -1.98241e-05 -1.84745e-05 -1.70191e-05 -1.54617e-05 -1.38039e-05 -1.2046e-05 -1.01865e-05 -8.2228e-06 -6.15086e-06 -3.96602e-06 -1.6633e-06 7.62136e-07 3.31432e-06 5.99576e-06 8.80693e-06 1.17452e-05 1.48041e-05 1.79724e-05 2.12329e-05 2.45624e-05 2.793e-05 3.12978e-05 3.462e-05 3.78446e-05 4.09135e-05 4.37651e-05 4.63373e-05 4.85703e-05 5.04107e-05 5.18153e-05 5.27551e-05 5.32193e-05 -3.11855e-05 -3.09235e-05 -3.04365e-05 -2.97475e-05 -2.8873e-05 -2.78265e-05 -2.66203e-05 -2.52654e-05 -2.37715e-05 -2.21473e-05 -2.03993e-05 -1.85324e-05 -1.65491e-05 -1.44496e-05 -1.22321e-05 -9.89292e-06 -7.42689e-06 -4.82773e-06 -2.0886e-06 7.97203e-07 3.83558e-06 7.03076e-06 1.03846e-05 1.38954e-05 1.75569e-05 2.1357e-05 2.52769e-05 2.92894e-05 3.33588e-05 3.74397e-05 4.14769e-05 4.54066e-05 4.91569e-05 5.26512e-05 5.58108e-05 5.85599e-05 6.08298e-05 6.25647e-05 6.37268e-05 6.43011e-05 -3.64532e-05 -3.61436e-05 -3.55678e-05 -3.47528e-05 -3.37188e-05 -3.24828e-05 -3.10602e-05 -2.94652e-05 -2.77106e-05 -2.58075e-05 -2.37648e-05 -2.15887e-05 -1.92824e-05 -1.68464e-05 -1.42783e-05 -1.15733e-05 -8.72454e-06 -5.72378e-06 -2.56194e-06 7.70103e-07 4.28071e-06 7.97644e-06 1.18613e-05 1.59353e-05 2.01932e-05 2.46232e-05 2.92052e-05 3.39096e-05 3.86958e-05 4.35115e-05 4.82921e-05 5.29614e-05 5.74327e-05 6.16121e-05 6.54026e-05 6.87091e-05 7.14455e-05 7.35407e-05 7.49457e-05 7.56405e-05 -4.1769e-05 -4.14092e-05 -4.07392e-05 -3.9791e-05 -3.85886e-05 -3.71532e-05 -3.55042e-05 -3.36597e-05 -3.16364e-05 -2.94485e-05 -2.71076e-05 -2.46218e-05 -2.19954e-05 -1.92288e-05 -1.6319e-05 -1.32597e-05 -1.0042e-05 -6.6552e-06 -3.08742e-06 6.73498e-07 4.639e-06 8.81873e-06 1.32197e-05 1.78445e-05 2.26901e-05 2.77458e-05 3.29918e-05 3.83968e-05 4.39165e-05 4.94921e-05 5.50494e-05 6.04995e-05 6.57393e-05 7.06557e-05 7.51304e-05 7.90461e-05 8.22951e-05 8.47879e-05 8.64618e-05 8.72902e-05 -4.7147e-05 -4.67331e-05 -4.5962e-05 -4.48707e-05 -4.34881e-05 -4.184e-05 -3.99511e-05 -3.78443e-05 -3.55411e-05 -3.306e-05 -3.04157e-05 -2.76191e-05 -2.46753e-05 -2.1585e-05 -1.83441e-05 -1.49443e-05 -1.13744e-05 -7.62032e-06 -3.66687e-06 5.0178e-07 4.90092e-06 9.5441e-06 1.44422e-05 1.96016e-05 2.50226e-05 3.06972e-05 3.6607e-05 4.27205e-05 4.8991e-05 5.5354e-05 6.17261e-05 6.8005e-05 7.40698e-05 7.97858e-05 8.50096e-05 8.95977e-05 9.34164e-05 9.63532e-05 9.83287e-05 9.93069e-05 -5.26034e-05 -5.21308e-05 -5.12493e-05 -5.0002e-05 -4.84232e-05 -4.6545e-05 -4.43979e-05 -4.20116e-05 -3.94133e-05 -3.66271e-05 -3.36723e-05 -3.05625e-05 -2.73044e-05 -2.38984e-05 -2.0339e-05 -1.66155e-05 -1.27131e-05 -8.61432e-06 -4.29955e-06 2.51393e-07 5.05837e-06 1.01397e-05 1.55112e-05 2.11841e-05 2.71636e-05 3.34459e-05 4.0016e-05 4.68441e-05 5.38824e-05 6.10625e-05 6.82921e-05 7.54551e-05 8.24114e-05 8.90013e-05 9.50527e-05 0.00010039 0.000104849 0.000108287 0.000110604 0.000111753 -5.81584e-05 -5.76207e-05 -5.66169e-05 -5.51966e-05 -5.34009e-05 -5.12692e-05 -4.88398e-05 -4.61506e-05 -4.32369e-05 -4.01298e-05 -3.68542e-05 -3.34275e-05 -2.98581e-05 -2.6146e-05 -2.22834e-05 -1.82563e-05 -1.40455e-05 -9.62881e-06 -4.98168e-06 -7.88089e-08 5.10502e-06 1.05937e-05 1.6409e-05 2.25685e-05 2.90836e-05 3.59569e-05 4.31789e-05 5.07239e-05 5.85458e-05 6.65735e-05 7.47076e-05 8.28177e-05 9.07428e-05 9.82952e-05 0.000105268 0.000111449 0.000116633 0.000120643 0.000123352 0.000124696 -6.38367e-05 -6.32258e-05 -6.20842e-05 -6.04688e-05 -5.84291e-05 -5.60132e-05 -5.32696e-05 -5.02466e-05 -4.69899e-05 -4.35403e-05 -3.993e-05 -3.61813e-05 -3.23043e-05 -2.82979e-05 -2.41509e-05 -1.98445e-05 -1.53541e-05 -1.06514e-05 -5.7061e-06 -4.87141e-07 5.03671e-06 1.08957e-05 1.71185e-05 2.37301e-05 3.07504e-05 3.81904e-05 4.6049e-05 5.43078e-05 6.29255e-05 7.18316e-05 8.09208e-05 9.00494e-05 9.90333e-05 0.000107653 0.000115661 0.000122798 0.000128812 0.000133482 0.000136644 0.000138215 -6.96691e-05 -6.89747e-05 -6.76754e-05 -6.58367e-05 -6.35177e-05 -6.07775e-05 -5.76773e-05 -5.42792e-05 -5.06429e-05 -4.68217e-05 -4.2858e-05 -3.87804e-05 -3.46006e-05 -3.03151e-05 -2.59074e-05 -2.13518e-05 -1.66162e-05 -1.16652e-05 -6.46186e-06 -9.68626e-07 4.85204e-06 1.10372e-05 1.76232e-05 2.46441e-05 3.21297e-05 4.01023e-05 4.85726e-05 5.75336e-05 6.69534e-05 7.67663e-05 8.68646e-05 9.70918e-05 0.000107239 0.00011705 0.000126229 0.00013446 0.000141433 0.00014687 0.000150562 0.000152399 -7.56944e-05 -7.49034e-05 -7.34213e-05 -7.13231e-05 -6.86793e-05 -6.55627e-05 -6.20503e-05 -5.82221e-05 -5.41566e-05 -4.99246e-05 -4.55828e-05 -4.11677e-05 -3.66922e-05 -3.21481e-05 -2.75103e-05 -2.27429e-05 -1.78039e-05 -1.2649e-05 -7.23393e-06 -1.51448e-06 4.55313e-06 1.10128e-05 1.79091e-05 2.5286e-05 3.31852e-05 4.16435e-05 5.06874e-05 6.03268e-05 7.05454e-05 8.12889e-05 9.24521e-05 0.000103868 0.000115301 0.000126451 0.000136964 0.000146458 0.000154547 0.000160883 0.000165199 0.00016735 -8.19615e-05 -8.10578e-05 -7.93613e-05 -7.69581e-05 -7.39315e-05 -7.03707e-05 -6.63726e-05 -6.20407e-05 -5.74789e-05 -5.27831e-05 -4.80301e-05 -4.32677e-05 -3.85085e-05 -3.37351e-05 -2.89081e-05 -2.39762e-05 -1.88842e-05 -1.35773e-05 -8.0031e-06 -2.11153e-06 4.14657e-06 1.08213e-05 1.79652e-05 2.5633e-05 3.38803e-05 4.2761e-05 5.23225e-05 6.25984e-05 7.35971e-05 8.52857e-05 9.757e-05 0.000110276 0.000123139 0.000135806 0.000147853 0.000158813 0.00016821 0.000175608 0.000180665 0.00018319 -8.8532e-05 -8.74959e-05 -8.55462e-05 -8.27811e-05 -7.92985e-05 -7.52064e-05 -7.06261e-05 -6.56913e-05 -6.05411e-05 -5.53081e-05 -5.00999e-05 -4.49805e-05 -3.99592e-05 -3.5e-05 -3.00397e-05 -2.50043e-05 -1.98204e-05 -1.4421e-05 -8.74611e-06 -2.74158e-06 3.64487e-06 1.04675e-05 1.77863e-05 2.56668e-05 3.41798e-05 4.33992e-05 5.33982e-05 6.42428e-05 7.59788e-05 8.861e-05 0.000102069 0.000116181 0.000130648 0.000145049 0.000158874 0.000171549 0.000182489 0.000191148 0.00019709 0.000200063 -9.54834e-05 -9.4291e-05 -9.20413e-05 -8.88449e-05 -8.48152e-05 -8.00809e-05 -7.47918e-05 -6.91197e-05 -6.32524e-05 -5.73778e-05 -5.16541e-05 -4.61718e-05 -4.09282e-05 -3.58511e-05 -3.08366e-05 -2.57765e-05 -2.05742e-05 -1.51492e-05 -9.43613e-06 -3.38051e-06 3.06837e-06 9.96533e-06 1.73759e-05 2.53767e-05 3.40541e-05 4.35035e-05 5.38284e-05 6.51363e-05 7.75277e-05 9.10692e-05 0.000105746 0.000121401 0.000137688 0.000154096 0.000169997 0.000184694 0.000197464 0.000207628 0.000214631 0.000218142 -0.000102912 -0.000101535 -9.89306e-05 -9.52202e-05 -9.05326e-05 -8.50171e-05 -7.88545e-05 -7.22622e-05 -6.54938e-05 -5.88226e-05 -5.24966e-05 -4.66576e-05 -4.1268e-05 -3.6182e-05 -3.12265e-05 -2.62444e-05 -2.11107e-05 -1.57325e-05 -1.00438e-05 -3.99709e-06 2.44834e-06 9.34094e-06 1.67505e-05 2.47648e-05 3.3485e-05 4.30271e-05 5.35256e-05 6.51378e-05 7.80402e-05 9.24031e-05 0.000108321 0.000125687 0.00014408 0.000162844 0.000181197 0.000198286 0.000213232 0.000225194 0.000233472 0.000237634 -0.000110935 -0.000109343 -0.000106321 -0.000102001 -9.65249e-05 -9.00591e-05 -8.28128e-05 -7.50517e-05 -6.71122e-05 -5.93994e-05 -5.23333e-05 -4.61791e-05 -4.07938e-05 -3.58778e-05 -3.11441e-05 -2.63713e-05 -2.14056e-05 -1.61475e-05 -1.05389e-05 -4.55078e-06 1.83214e-06 8.63822e-06 1.5944e-05 2.38512e-05 3.2474e-05 4.19423e-05 5.24147e-05 6.40979e-05 7.72647e-05 9.2251e-05 0.000109376 0.000128689 0.000149594 0.000171184 0.000192459 0.000212387 0.000229918 0.000244028 0.000253838 0.000258783 -0.000119694 -0.000117853 -0.000114345 -0.000109311 -0.000102899 -9.52866e-05 -8.6698e-05 -7.74367e-05 -6.79242e-05 -5.87527e-05 -5.06849e-05 -4.43632e-05 -3.92875e-05 -3.48347e-05 -3.05505e-05 -2.6148e-05 -2.1457e-05 -1.63848e-05 -1.08932e-05 -4.98788e-06 1.29398e-06 7.92534e-06 1.50114e-05 2.26796e-05 3.10526e-05 4.02589e-05 5.04592e-05 6.18866e-05 7.49077e-05 9.00969e-05 0.000108238 0.000129903 0.000153962 0.000179024 0.000203806 0.000227099 0.000247685 0.000264347 0.00027599 0.000281879 -0.000129358 -0.000127232 -0.000123166 -0.000117309 -0.000109807 -0.000100834 -9.06082e-05 -7.94292e-05 -6.77546e-05 -5.63638e-05 -4.66559e-05 -4.06725e-05 -3.65363e-05 -3.30088e-05 -2.94688e-05 -2.56143e-05 -2.12987e-05 -1.64585e-05 -1.1087e-05 -5.23612e-06 9.61727e-07 7.30205e-06 1.40277e-05 2.13184e-05 2.92924e-05 3.8049e-05 4.77074e-05 5.84623e-05 7.06933e-05 8.52029e-05 0.000103651 0.000128601 0.000156932 0.000186364 0.00021535 0.000242587 0.000266744 0.00028641 0.000300236 0.000307257 -0.000140117 -0.000137671 -0.000132977 -0.000126189 -0.000117448 -0.000106911 -9.47553e-05 -8.12056e-05 -6.65915e-05 -5.15835e-05 -3.81979e-05 -3.44378e-05 -3.24887e-05 -3.05169e-05 -2.80321e-05 -2.48813e-05 -2.10135e-05 -1.64208e-05 -1.11267e-05 -5.20708e-06 1.10106e-06 6.89674e-06 1.30702e-05 1.98499e-05 2.73071e-05 3.54703e-05 4.43594e-05 5.40158e-05 6.45882e-05 7.66644e-05 9.27226e-05 0.000123893 0.000158497 0.000193434 0.000227352 0.000259103 0.000287354 0.000310512 0.00032692 0.000335296 -0.000152187 -0.000149385 -0.000143997 -0.000136179 -0.00012607 -0.000113803 -9.95028e-05 -8.3257e-05 -6.5034e-05 -4.4392e-05 -1.93287e-05 -2.56182e-05 -2.77016e-05 -2.77874e-05 -2.65217e-05 -2.41358e-05 -2.07342e-05 -1.63755e-05 -1.10931e-05 -4.87809e-06 2.43025e-06 6.78079e-06 1.21622e-05 1.83461e-05 2.52411e-05 3.2769e-05 4.08172e-05 4.91848e-05 5.7449e-05 6.45232e-05 6.69343e-05 0.000115833 0.000159539 0.000200915 0.000240273 0.000276988 0.000309812 0.000336971 0.00035641 0.000366407 -0.0001658 -0.000162608 -0.00015646 -0.000147524 -0.000135941 -0.000121837 -0.000105313 -8.64068e-05 -6.50176e-05 -4.07407e-05 -1.26188e-05 -2.01435e-05 -2.40664e-05 -2.55776e-05 -2.53126e-05 -2.35995e-05 -2.06173e-05 -1.6471e-05 -1.12207e-05 -4.88334e-06 2.58356e-06 6.37031e-06 1.11778e-05 1.68442e-05 2.32397e-05 3.02249e-05 3.76063e-05 4.50698e-05 5.20558e-05 5.75122e-05 5.9516e-05 0.000113169 0.000162867 0.000209944 0.000254695 0.000296605 0.000334412 0.000366095 0.000389084 0.000401025 -0.000181203 -0.000177584 -0.000170611 -0.000160469 -0.000147316 -0.000131293 -0.000112517 -9.10583e-05 -6.69085e-05 -3.995e-05 -1.00198e-05 -1.73102e-05 -2.19015e-05 -2.42194e-05 -2.46427e-05 -2.34379e-05 -2.07843e-05 -1.68043e-05 -1.15827e-05 -5.1793e-06 2.35635e-06 5.75298e-06 1.01378e-05 1.54039e-05 2.1424e-05 2.80419e-05 3.50462e-05 4.21308e-05 4.88397e-05 5.45199e-05 5.84071e-05 0.000114802 0.000168933 0.000221015 0.000270979 0.000318218 0.000361379 0.000398147 0.000425298 0.000439591 -0.000198654 -0.000194567 -0.000186694 -0.000175248 -0.000160419 -0.000142381 -0.000121295 -9.72995e-05 -7.05086e-05 -4.10291e-05 -9.05126e-06 -1.61025e-05 -2.09591e-05 -2.37254e-05 -2.45891e-05 -2.37309e-05 -2.13006e-05 -1.74182e-05 -1.21819e-05 -5.67867e-06 1.99976e-06 5.04799e-06 9.10498e-06 1.40849e-05 1.9871e-05 2.63147e-05 3.32257e-05 4.03568e-05 4.73964e-05 5.39939e-05 5.9882e-05 0.000119186 0.000177349 0.000234138 0.000289238 0.00034195 0.000390842 0.000433312 0.000465365 0.000482535 -0.000218419 -0.000213813 -0.000204948 -0.000192079 -0.000175437 -0.000155247 -0.000131728 -0.000105093 -7.55593e-05 -4.33686e-05 -8.85029e-06 -1.58864e-05 -2.09305e-05 -2.39813e-05 -2.51275e-05 -2.44877e-05 -2.2181e-05 -1.83176e-05 -1.29989e-05 -6.32293e-06 1.60463e-06 4.33143e-06 8.13261e-06 1.29284e-05 1.86126e-05 2.50546e-05 3.20978e-05 3.95595e-05 4.7241e-05 5.4962e-05 6.26353e-05 0.00012535 0.000187633 0.000249128 0.000309425 0.000367805 0.000422826 0.000471677 0.000509526 0.000530266 -0.00024077 -0.000235581 -0.000225607 -0.000211159 -0.000192526 -0.000169995 -0.000143849 -0.000114375 -8.18647e-05 -4.66376e-05 -9.07569e-06 -1.63081e-05 -2.15724e-05 -2.48483e-05 -2.6186e-05 -2.56713e-05 -2.34029e-05 -1.94814e-05 -1.40054e-05 -7.0737e-06 1.20841e-06 3.64586e-06 7.25437e-06 1.19547e-05 1.76497e-05 2.42273e-05 3.15637e-05 3.95283e-05 4.7997e-05 5.68763e-05 6.6138e-05 0.000132737 0.000199391 0.000265749 0.000331407 0.000395695 0.000457261 0.000513221 0.000557933 0.000583153 -0.000265991 -0.000260133 -0.000248897 -0.000232668 -0.000211812 -0.000186691 -0.000157663 -0.000125079 -8.92886e-05 -5.06541e-05 -9.5733e-06 -1.7167e-05 -2.27093e-05 -2.6196e-05 -2.7673e-05 -2.72166e-05 -2.4917e-05 -2.08685e-05 -1.51649e-05 -7.90004e-06 8.29167e-07 3.01552e-06 6.49017e-06 1.11713e-05 1.69678e-05 2.37833e-05 3.15201e-05 4.00856e-05 4.94022e-05 5.94212e-05 7.01343e-05 0.000141006 0.000212311 0.000283758 0.000354997 0.000425464 0.000493984 0.000557795 0.000610607 0.000641508 -0.000294372 -0.00028773 -0.000275028 -0.000256754 -0.000233379 -0.000205361 -0.000173139 -0.000137128 -9.77216e-05 -5.53022e-05 -1.02617e-05 -1.83374e-05 -2.42086e-05 -2.79039e-05 -2.94861e-05 -2.90381e-05 -2.66515e-05 -2.24189e-05 -1.64298e-05 -8.76942e-06 4.7876e-07 2.45802e-06 5.85519e-06 1.05825e-05 1.65515e-05 2.36769e-05 3.18805e-05 4.10963e-05 5.12772e-05 6.24006e-05 7.44696e-05 0.000149913 0.000226124 0.000302893 0.000379957 0.000456883 0.000532745 0.000605115 0.000667401 0.000705557 -0.000326213 -0.000318628 -0.000304186 -0.000283523 -0.000257254 -0.000225963 -0.000190188 -0.000150407 -0.000107044 -6.0483e-05 -1.1087e-05 -1.97246e-05 -2.59547e-05 -2.98516e-05 -3.15091e-05 -3.10286e-05 -2.85113e-05 -2.40521e-05 -1.77369e-05 -9.64107e-06 1.69646e-07 1.99287e-06 5.3683e-06 1.01984e-05 1.63937e-05 2.38762e-05 3.25818e-05 4.24638e-05 5.34967e-05 6.56784e-05 7.90253e-05 0.000159246 0.000240559 0.000322854 0.000405973 0.000489634 0.00057319 0.000654739 0.000727934 0.000775385 -0.000361823 -0.000353069 -0.000336505 -0.000312993 -0.000283358 -0.000248351 -0.000208626 -0.000164724 -0.000117088 -6.60782e-05 -1.20011e-05 -2.12377e-05 -2.78276e-05 -3.19045e-05 -3.36042e-05 -3.30552e-05 -3.03741e-05 -2.56621e-05 -1.90027e-05 -1.04605e-05 -8.06206e-08 1.64775e-06 5.05864e-06 1.0041e-05 1.65018e-05 2.43675e-05 3.35846e-05 4.41215e-05 5.59705e-05 6.91481e-05 8.36903e-05 0.000168792 0.000255317 0.000343272 0.000432628 0.000523267 0.000614827 0.000706045 0.000791517 0.000850869 -0.000401508 -0.000391252 -0.000372024 -0.000345045 -0.000311447 -0.000272207 -0.000228111 -0.000179761 -0.000127593 -7.19178e-05 -1.29464e-05 -2.27688e-05 -2.96839e-05 -3.38995e-05 -3.56018e-05 -3.49522e-05 -3.20864e-05 -2.71143e-05 -2.01191e-05 -1.11553e-05 -2.4608e-07 1.46276e-06 4.96921e-06 1.01468e-05 1.68984e-05 2.5154e-05 3.48691e-05 4.60248e-05 5.86291e-05 7.27173e-05 8.83495e-05 0.000178318 0.000270048 0.000363688 0.000459368 0.000557157 0.00065697 0.000758199 0.000857049 0.000931555 -0.000445567 -0.000433284 -0.000410595 -0.000379308 -0.000341006 -0.000296952 -0.000248073 -0.000195008 -0.00013816 -7.77465e-05 -1.38428e-05 -2.41751e-05 -3.13412e-05 -3.56344e-05 -3.72955e-05 -3.652e-05 -3.34635e-05 -2.82464e-05 -2.09538e-05 -1.16339e-05 -2.90566e-07 1.49114e-06 5.15562e-06 1.05635e-05 1.76163e-05 2.6249e-05 3.64262e-05 4.81404e-05 6.14132e-05 7.62971e-05 9.28778e-05 0.000187561 0.000284341 0.000383539 0.000485477 0.000590453 0.000698665 0.000810101 0.000922909 0.00101648 -0.000494242 -0.000479067 -0.000451714 -0.00041498 -0.000371087 -0.000321618 -0.000267616 -0.000209703 -0.0001482 -8.31912e-05 -1.45733e-05 -2.52653e-05 -3.25704e-05 -3.6868e-05 -3.84483e-05 -3.75354e-05 -3.43024e-05 -2.88801e-05 -2.13602e-05 -1.17914e-05 -1.69273e-07 1.7935e-06 5.67618e-06 1.13369e-05 1.86832e-05 2.76597e-05 3.82411e-05 5.04302e-05 6.42593e-05 7.97932e-05 9.71385e-05 0.000196226 0.000297725 0.000402153 0.000510063 0.000622038 0.000738591 0.00086031 0.00098683 0.00110392 -0.000547625 -0.000528027 -0.000494182 -0.000450529 -0.000400089 -0.000344712 -0.000285439 -0.000222784 -0.000156913 -8.77442e-05 -1.4975e-05 -2.58006e-05 -3.3111e-05 -3.73467e-05 -3.88264e-05 -3.77895e-05 -3.44198e-05 -2.88585e-05 -2.12084e-05 -1.15319e-05 1.61979e-07 2.41898e-06 6.56655e-06 1.24821e-05 2.00924e-05 2.93577e-05 4.02649e-05 5.28259e-05 6.70788e-05 8.30922e-05 0.000100981 0.000203985 0.000309666 0.000418759 0.00053207 0.000650533 0.000774989 0.000906915 0.00104582 0.00119091 -0.000605322 -0.000578449 -0.000535446 -0.000483233 -0.000425516 -0.000364118 -0.00029984 -0.000232938 -0.000163351 -9.08099e-05 -1.48544e-05 -2.55441e-05 -3.27445e-05 -3.68897e-05 -3.82883e-05 -3.71755e-05 -3.37371e-05 -2.81227e-05 -2.04527e-05 -1.08191e-05 7.21347e-07 3.36303e-06 7.79005e-06 1.39324e-05 2.1752e-05 3.12313e-05 4.23707e-05 5.51888e-05 6.97247e-05 8.60393e-05 0.000104234 0.000210473 0.000319575 0.000432503 0.000550312 0.000674334 0.000805678 0.000947354 0.00109625 0.00127261 -0.00066523 -0.000625775 -0.000570476 -0.000508722 -0.000443952 -0.000377306 -0.000309013 -0.000238922 -0.000166704 -9.19303e-05 -1.40909e-05 -2.44329e-05 -3.14898e-05 -3.55822e-05 -3.69662e-05 -3.58554e-05 -3.2431e-05 -2.68499e-05 -1.92528e-05 -9.77412e-06 1.44615e-06 4.48992e-06 9.15666e-06 1.54627e-05 2.34155e-05 3.30221e-05 4.42954e-05 5.72584e-05 7.19462e-05 8.84037e-05 0.000106697 0.00021528 0.000326824 0.000442494 0.000563553 0.000691713 0.000828254 0.000978158 0.00113442 0.00134089 -0.000718072 -0.000658832 -0.000590845 -0.00052157 -0.000452183 -0.000382532 -0.000312155 -0.000240524 -0.00016711 -9.14046e-05 -1.29753e-05 -2.29932e-05 -2.99898e-05 -3.4111e-05 -3.55516e-05 -3.45044e-05 -3.11463e-05 -2.56395e-05 -1.81408e-05 -8.82112e-06 2.09421e-06 5.41927e-06 1.02214e-05 1.6603e-05 2.46085e-05 3.42622e-05 4.55848e-05 5.86009e-05 7.33414e-05 8.98363e-05 0.000108109 0.000217945 0.000330764 0.000447861 0.000570638 0.000700992 0.000840517 0.000994893 0.00115746 0.00138264 0 0 0 0 0 0 0 0 0 0 0 0 0 0 0 0 0 0 0 0 0 0 0 0 0 0 0 0 0 0 0 0 0 0 0 0 0 0 0 0 -5.15619e-06 -5.11792e-06 -5.0438e-06 -4.93646e-06 -4.79825e-06 -4.6312e-06 -4.43705e-06 -4.21734e-06 -3.97335e-06 -3.70617e-06 -3.41665e-06 -3.10539e-06 -2.77267e-06 -2.41852e-06 -2.04275e-06 -1.64492e-06 -1.22442e-06 -7.80565e-07 -3.12622e-07 1.80045e-07 6.97883e-07 1.241e-06 1.80905e-06 2.40109e-06 3.01535e-06 3.64916e-06 4.29876e-06 4.95918e-06 5.62415e-06 6.28612e-06 6.93625e-06 7.56464e-06 8.16048e-06 8.71249e-06 9.20941e-06 9.64052e-06 9.99628e-0