# vtk DataFile Version 2.0
Presion
ASCII

DATASET STRUCTURED_GRID
DIMENSIONS   40   40   20

POINTS   32000   double
0.0125   0.0125   0.025
0.0375   0.0125   0.025
0.0625   0.0125   0.025
0.0875   0.0125   0.025
0.1125   0.0125   0.025
0.1375   0.0125   0.025
0.1625   0.0125   0.025
0.1875   0.0125   0.025
0.2125   0.0125   0.025
0.2375   0.0125   0.025
0.2625   0.0125   0.025
0.2875   0.0125   0.025
0.3125   0.0125   0.025
0.3375   0.0125   0.025
0.3625   0.0125   0.025
0.3875   0.0125   0.025
0.4125   0.0125   0.025
0.4375   0.0125   0.025
0.4625   0.0125   0.025
0.4875   0.0125   0.025
0.5125   0.0125   0.025
0.5375   0.0125   0.025
0.5625   0.0125   0.025
0.5875   0.0125   0.025
0.6125   0.0125   0.025
0.6375   0.0125   0.025
0.6625   0.0125   0.025
0.6875   0.0125   0.025
0.7125   0.0125   0.025
0.7375   0.0125   0.025
0.7625   0.0125   0.025
0.7875   0.0125   0.025
0.8125   0.0125   0.025
0.8375   0.0125   0.025
0.8625   0.0125   0.025
0.8875   0.0125   0.025
0.9125   0.0125   0.025
0.9375   0.0125   0.025
0.9625   0.0125   0.025
0.9875   0.0125   0.025
0.0125   0.0375   0.025
0.0375   0.0375   0.025
0.0625   0.0375   0.025
0.0875   0.0375   0.025
0.1125   0.0375   0.025
0.1375   0.0375   0.025
0.1625   0.0375   0.025
0.1875   0.0375   0.025
0.2125   0.0375   0.025
0.2375   0.0375   0.025
0.2625   0.0375   0.025
0.2875   0.0375   0.025
0.3125   0.0375   0.025
0.3375   0.0375   0.025
0.3625   0.0375   0.025
0.3875   0.0375   0.025
0.4125   0.0375   0.025
0.4375   0.0375   0.025
0.4625   0.0375   0.025
0.4875   0.0375   0.025
0.5125   0.0375   0.025
0.5375   0.0375   0.025
0.5625   0.0375   0.025
0.5875   0.0375   0.025
0.6125   0.0375   0.025
0.6375   0.0375   0.025
0.6625   0.0375   0.025
0.6875   0.0375   0.025
0.7125   0.0375   0.025
0.7375   0.0375   0.025
0.7625   0.0375   0.025
0.7875   0.0375   0.025
0.8125   0.0375   0.025
0.8375   0.0375   0.025
0.8625   0.0375   0.025
0.8875   0.0375   0.025
0.9125   0.0375   0.025
0.9375   0.0375   0.025
0.9625   0.0375   0.025
0.9875   0.0375   0.025
0.0125   0.0625   0.025
0.0375   0.0625   0.025
0.0625   0.0625   0.025
0.0875   0.0625   0.025
0.1125   0.0625   0.025
0.1375   0.0625   0.025
0.1625   0.0625   0.025
0.1875   0.0625   0.025
0.2125   0.0625   0.025
0.2375   0.0625   0.025
0.2625   0.0625   0.025
0.2875   0.0625   0.025
0.3125   0.0625   0.025
0.3375   0.0625   0.025
0.3625   0.0625   0.025
0.3875   0.0625   0.025
0.4125   0.0625   0.025
0.4375   0.0625   0.025
0.4625   0.0625   0.025
0.4875   0.0625   0.025
0.5125   0.0625   0.025
0.5375   0.0625   0.025
0.5625   0.0625   0.025
0.5875   0.0625   0.025
0.6125   0.0625   0.025
0.6375   0.0625   0.025
0.6625   0.0625   0.025
0.6875   0.0625   0.025
0.7125   0.0625   0.025
0.7375   0.0625   0.025
0.7625   0.0625   0.025
0.7875   0.0625   0.025
0.8125   0.0625   0.025
0.8375   0.0625   0.025
0.8625   0.0625   0.025
0.8875   0.0625   0.025
0.9125   0.0625   0.025
0.9375   0.0625   0.025
0.9625   0.0625   0.025
0.9875   0.0625   0.025
0.0125   0.0875   0.025
0.0375   0.0875   0.025
0.0625   0.0875   0.025
0.0875   0.0875   0.025
0.1125   0.0875   0.025
0.1375   0.0875   0.025
0.1625   0.0875   0.025
0.1875   0.0875   0.025
0.2125   0.0875   0.025
0.2375   0.0875   0.025
0.2625   0.0875   0.025
0.2875   0.0875   0.025
0.3125   0.0875   0.025
0.3375   0.0875   0.025
0.3625   0.0875   0.025
0.3875   0.0875   0.025
0.4125   0.0875   0.025
0.4375   0.0875   0.025
0.4625   0.0875   0.025
0.4875   0.0875   0.025
0.5125   0.0875   0.025
0.5375   0.0875   0.025
0.5625   0.0875   0.025
0.5875   0.0875   0.025
0.6125   0.0875   0.025
0.6375   0.0875   0.025
0.6625   0.0875   0.025
0.6875   0.0875   0.025
0.7125   0.0875   0.025
0.7375   0.0875   0.025
0.7625   0.0875   0.025
0.7875   0.0875   0.025
0.8125   0.0875   0.025
0.8375   0.0875   0.025
0.8625   0.0875   0.025
0.8875   0.0875   0.025
0.9125   0.0875   0.025
0.9375   0.0875   0.025
0.9625   0.0875   0.025
0.9875   0.0875   0.025
0.0125   0.1125   0.025
0.0375   0.1125   0.025
0.0625   0.1125   0.025
0.0875   0.1125   0.025
0.1125   0.1125   0.025
0.1375   0.1125   0.025
0.1625   0.1125   0.025
0.1875   0.1125   0.025
0.2125   0.1125   0.025
0.2375   0.1125   0.025
0.2625   0.1125   0.025
0.2875   0.1125   0.025
0.3125   0.1125   0.025
0.3375   0.1125   0.025
0.3625   0.1125   0.025
0.3875   0.1125   0.025
0.4125   0.1125   0.025
0.4375   0.1125   0.025
0.4625   0.1125   0.025
0.4875   0.1125   0.025
0.5125   0.1125   0.025
0.5375   0.1125   0.025
0.5625   0.1125   0.025
0.5875   0.1125   0.025
0.6125   0.1125   0.025
0.6375   0.1125   0.025
0.6625   0.1125   0.025
0.6875   0.1125   0.025
0.7125   0.1125   0.025
0.7375   0.1125   0.025
0.7625   0.1125   0.025
0.7875   0.1125   0.025
0.8125   0.1125   0.025
0.8375   0.1125   0.025
0.8625   0.1125   0.025
0.8875   0.1125   0.025
0.9125   0.1125   0.025
0.9375   0.1125   0.025
0.9625   0.1125   0.025
0.9875   0.1125   0.025
0.0125   0.1375   0.025
0.0375   0.1375   0.025
0.0625   0.1375   0.025
0.0875   0.1375   0.025
0.1125   0.1375   0.025
0.1375   0.1375   0.025
0.1625   0.1375   0.025
0.1875   0.1375   0.025
0.2125   0.1375   0.025
0.2375   0.1375   0.025
0.2625   0.1375   0.025
0.2875   0.1375   0.025
0.3125   0.1375   0.025
0.3375   0.1375   0.025
0.3625   0.1375   0.025
0.3875   0.1375   0.025
0.4125   0.1375   0.025
0.4375   0.1375   0.025
0.4625   0.1375   0.025
0.4875   0.1375   0.025
0.5125   0.1375   0.025
0.5375   0.1375   0.025
0.5625   0.1375   0.025
0.5875   0.1375   0.025
0.6125   0.1375   0.025
0.6375   0.1375   0.025
0.6625   0.1375   0.025
0.6875   0.1375   0.025
0.7125   0.1375   0.025
0.7375   0.1375   0.025
0.7625   0.1375   0.025
0.7875   0.1375   0.025
0.8125   0.1375   0.025
0.8375   0.1375   0.025
0.8625   0.1375   0.025
0.8875   0.1375   0.025
0.9125   0.1375   0.025
0.9375   0.1375   0.025
0.9625   0.1375   0.025
0.9875   0.1375   0.025
0.0125   0.1625   0.025
0.0375   0.1625   0.025
0.0625   0.1625   0.025
0.0875   0.1625   0.025
0.1125   0.1625   0.025
0.1375   0.1625   0.025
0.1625   0.1625   0.025
0.1875   0.1625   0.025
0.2125   0.1625   0.025
0.2375   0.1625   0.025
0.2625   0.1625   0.025
0.2875   0.1625   0.025
0.3125   0.1625   0.025
0.3375   0.1625   0.025
0.3625   0.1625   0.025
0.3875   0.1625   0.025
0.4125   0.1625   0.025
0.4375   0.1625   0.025
0.4625   0.1625   0.025
0.4875   0.1625   0.025
0.5125   0.1625   0.025
0.5375   0.1625   0.025
0.5625   0.1625   0.025
0.5875   0.1625   0.025
0.6125   0.1625   0.025
0.6375   0.1625   0.025
0.6625   0.1625   0.025
0.6875   0.1625   0.025
0.7125   0.1625   0.025
0.7375   0.1625   0.025
0.7625   0.1625   0.025
0.7875   0.1625   0.025
0.8125   0.1625   0.025
0.8375   0.1625   0.025
0.8625   0.1625   0.025
0.8875   0.1625   0.025
0.9125   0.1625   0.025
0.9375   0.1625   0.025
0.9625   0.1625   0.025
0.9875   0.1625   0.025
0.0125   0.1875   0.025
0.0375   0.1875   0.025
0.0625   0.1875   0.025
0.0875   0.1875   0.025
0.1125   0.1875   0.025
0.1375   0.1875   0.025
0.1625   0.1875   0.025
0.1875   0.1875   0.025
0.2125   0.1875   0.025
0.2375   0.1875   0.025
0.2625   0.1875   0.025
0.2875   0.1875   0.025
0.3125   0.1875   0.025
0.3375   0.1875   0.025
0.3625   0.1875   0.025
0.3875   0.1875   0.025
0.4125   0.1875   0.025
0.4375   0.1875   0.025
0.4625   0.1875   0.025
0.4875   0.1875   0.025
0.5125   0.1875   0.025
0.5375   0.1875   0.025
0.5625   0.1875   0.025
0.5875   0.1875   0.025
0.6125   0.1875   0.025
0.6375   0.1875   0.025
0.6625   0.1875   0.025
0.6875   0.1875   0.025
0.7125   0.1875   0.025
0.7375   0.1875   0.025
0.7625   0.1875   0.025
0.7875   0.1875   0.025
0.8125   0.1875   0.025
0.8375   0.1875   0.025
0.8625   0.1875   0.025
0.8875   0.1875   0.025
0.9125   0.1875   0.025
0.9375   0.1875   0.025
0.9625   0.1875   0.025
0.9875   0.1875   0.025
0.0125   0.2125   0.025
0.0375   0.2125   0.025
0.0625   0.2125   0.025
0.0875   0.2125   0.025
0.1125   0.2125   0.025
0.1375   0.2125   0.025
0.1625   0.2125   0.025
0.1875   0.2125   0.025
0.2125   0.2125   0.025
0.2375   0.2125   0.025
0.2625   0.2125   0.025
0.2875   0.2125   0.025
0.3125   0.2125   0.025
0.3375   0.2125   0.025
0.3625   0.2125   0.025
0.3875   0.2125   0.025
0.4125   0.2125   0.025
0.4375   0.2125   0.025
0.4625   0.2125   0.025
0.4875   0.2125   0.025
0.5125   0.2125   0.025
0.5375   0.2125   0.025
0.5625   0.2125   0.025
0.5875   0.2125   0.025
0.6125   0.2125   0.025
0.6375   0.2125   0.025
0.6625   0.2125   0.025
0.6875   0.2125   0.025
0.7125   0.2125   0.025
0.7375   0.2125   0.025
0.7625   0.2125   0.025
0.7875   0.2125   0.025
0.8125   0.2125   0.025
0.8375   0.2125   0.025
0.8625   0.2125   0.025
0.8875   0.2125   0.025
0.9125   0.2125   0.025
0.9375   0.2125   0.025
0.9625   0.2125   0.025
0.9875   0.2125   0.025
0.0125   0.2375   0.025
0.0375   0.2375   0.025
0.0625   0.2375   0.025
0.0875   0.2375   0.025
0.1125   0.2375   0.025
0.1375   0.2375   0.025
0.1625   0.2375   0.025
0.1875   0.2375   0.025
0.2125   0.2375   0.025
0.2375   0.2375   0.025
0.2625   0.2375   0.025
0.2875   0.2375   0.025
0.3125   0.2375   0.025
0.3375   0.2375   0.025
0.3625   0.2375   0.025
0.3875   0.2375   0.025
0.4125   0.2375   0.025
0.4375   0.2375   0.025
0.4625   0.2375   0.025
0.4875   0.2375   0.025
0.5125   0.2375   0.025
0.5375   0.2375   0.025
0.5625   0.2375   0.025
0.5875   0.2375   0.025
0.6125   0.2375   0.025
0.6375   0.2375   0.025
0.6625   0.2375   0.025
0.6875   0.2375   0.025
0.7125   0.2375   0.025
0.7375   0.2375   0.025
0.7625   0.2375   0.025
0.7875   0.2375   0.025
0.8125   0.2375   0.025
0.8375   0.2375   0.025
0.8625   0.2375   0.025
0.8875   0.2375   0.025
0.9125   0.2375   0.025
0.9375   0.2375   0.025
0.9625   0.2375   0.025
0.9875   0.2375   0.025
0.0125   0.2625   0.025
0.0375   0.2625   0.025
0.0625   0.2625   0.025
0.0875   0.2625   0.025
0.1125   0.2625   0.025
0.1375   0.2625   0.025
0.1625   0.2625   0.025
0.1875   0.2625   0.025
0.2125   0.2625   0.025
0.2375   0.2625   0.025
0.2625   0.2625   0.025
[...]
POINT_DATA   32000
SCALARS Presion double
LOOKUP_TABLE   Presion

0 0 0 0 0 0 0 0 0 0 0 0 0 0 0 0 0 0 0 0 0 0 0 0 0 0 0 0 0 0 0 0 0 0 0 0 0 0 0 0 -0.00201989 -0.00239772 -0.00303861 -0.00377132 -0.00451715 -0.00522524 -0.00585831 -0.00638869 -0.00679644 -0.00706777 -0.00719385 -0.00716978 -0.00699397 -0.00666777 -0.00619541 -0.00558401 -0.00484379 -0.00398815 -0.00303375 -0.00200042 -0.000910899 0.000209624 0.00133414 0.00243458 0.00348277 0.00445132 0.00531467 0.00605007 0.00663848 0.00706544 0.00732183 0.00740448 0.00731662 0.00706801 0.00667464 0.00615807 0.00554443 0.00486598 0.00417842 0.00366745 -0.00219219 -0.00241108 -0.00291266 -0.00355195 -0.00423772 -0.00490932 -0.00552433 -0.00605247 -0.00647212 -0.00676825 -0.00693081 -0.00695372 -0.00683412 -0.00657203 -0.00617021 -0.00563414 -0.00497218 -0.00419564 -0.00331888 -0.00235921 -0.00133676 -0.000274143 0.000804083 0.001872 0.00290311 0.00387117 0.00475109 0.0055199 0.0061577 0.00664856 0.00698145 0.00715105 0.00715842 0.00701161 0.00672621 0.00632614 0.00584571 0.00533618 0.00488596 0.00467787 -0.00187659 -0.00216131 -0.00265729 -0.00327435 -0.00393957 -0.00459839 -0.00521087 -0.00574793 -0.00618862 -0.00651794 -0.00672545 -0.00680422 -0.00675018 -0.00656175 -0.00623978 -0.00578757 -0.00521097 -0.00451862 -0.00372201 -0.00283557 -0.00187658 -0.000865089 0.000176559 0.00122412 0.00225209 0.00323451 0.00414579 0.00496177 0.00566069 0.00622435 0.00663913 0.00689706 0.00699675 0.0069443 0.00675414 0.00645025 0.00606845 0.00566137 0.00530945 0.0051399 -0.00129031 -0.00172077 -0.00228981 -0.00294226 -0.00362627 -0.00429926 -0.0049283 -0.00548864 -0.00596188 -0.00633439 -0.00659606 -0.00673952 -0.00675956 -0.00665293 -0.00641829 -0.00605635 -0.00557012 -0.00496511 -0.00424964 -0.00343501 -0.00253558 -0.00156886 -0.00055519 0.000482483 0.00151917 0.00252856 0.00348387 0.00435896 0.00512949 0.00577416 0.00627608 0.00662395 0.00681329 0.00684743 0.00673848 0.0065084 0.00619051 0.00583219 0.00549924 0.0052796 -0.000574272 -0.00117343 -0.00185431 -0.00257968 -0.00331353 -0.00402511 -0.00468986 -0.0052888 -0.00580728 -0.00623387 -0.00655938 -0.00677633 -0.00687852 -0.00686098 -0.00672008 -0.00645377 -0.00606192 -0.00554674 -0.00491315 -0.00416919 -0.00332623 -0.00239924 -0.00140669 -0.000370407 0.000684818 0.00173193 0.00274248 0.00368778 0.00454019 0.00527467 0.0058702 0.00631138 0.00658974 0.00670495 0.00666581 0.00649103 0.00621013 0.00586456 0.00550879 0.00520939 0.000174254 -0.000594197 -0.00140227 -0.00222139 -0.00302613 -0.00379544 -0.00451262 -0.00516459 -0.00574082 -0.00623245 -0.00663152 -0.00693066 -0.00712279 -0.00720127 -0.00716014 -0.00699451 -0.00670102 -0.00627845 -0.0057282 -0.00505491 -0.00426687 -0.00337646 -0.00240022 -0.00135892 -0.000277209 0.000816921 0.00189304 0.00291948 0.00386477 0.00469931 0.00539719 0.00593791 0.00630806 0.00650272 0.00652652 0.0063944 0.00613209 0.00577641 0.00537513 0.00498512 0.000882769 -4.67133e-05 -0.000984483 -0.00190642 -0.00279431 -0.0036346 -0.00441727 -0.00513457 -0.00577987 -0.00634685 -0.00682884 -0.00721861 -0.00750832 -0.0076897 -0.0077545 -0.00769497 -0.0075045 -0.00717833 -0.00671428 -0.00611345 -0.00538086 -0.00452612 -0.00356368 -0.00251303 -0.00139863 -0.000249368 0.000902204 0.00202111 0.00307152 0.00401858 0.00483052 0.00548069 0.00594965 0.00622686 0.006312 0.00621589 0.00596084 0.0055807 0.00512029 0.00463367 0.00149344 0.000414743 -0.000648235 -0.00167439 -0.00265087 -0.00357004 -0.00442735 -0.00521956 -0.00594346 -0.00659494 -0.00716848 -0.00765698 -0.00805183 -0.00834319 -0.00852057 -0.0085734 -0.00849181 -0.00826745 -0.00789442 -0.00737007 -0.00669593 -0.0058785 -0.00492977 -0.00386763 -0.00271602 -0.00150456 -0.000267885 0.000955531 0.00212501 0.00319969 0.00414092 0.00491473 0.00549434 0.0058624 0.00601273 0.00595156 0.00569812 0.00528457 0.00475548 0.00416628 0.00195772 0.000743135 -0.000436725 -0.00156359 -0.00262914 -0.00363069 -0.00456819 -0.00544213 -0.00625209 -0.0069958 -0.00766863 -0.00826351 -0.00877102 -0.00917982 -0.00947721 -0.00964985 -0.00968459 -0.00956944 -0.00929457 -0.00885337 -0.00824346 -0.0074678 -0.00653537 -0.00546195 -0.00427043 -0.00299077 -0.00165953 -0.000318741 0.000985656 0.00220604 0.00329576 0.00421214 0.00491955 0.00539235 0.00561731 0.00559537 0.00534262 0.00489041 0.00428481 0.00358525 0.00223343 0.000897065 -0.000389135 -0.00161006 -0.0027617 -0.00384571 -0.0048659 -0.00582582 -0.0067273 -0.00756948 -0.00834836 -0.00905679 -0.0096845 -0.0102187 -0.0106444 -0.0109457 -0.0111061 -0.0111098 -0.0109429 -0.0105944 -0.0100576 -0.00933128 -0.00842072 -0.00733884 -0.00610678 -0.00475428 -0.00331937 -0.0018476 -0.000390493 0.000996808 0.00225848 0.00334153 0.0041997 0.00479721 0.00511217 0.0051391 0.00489051 0.00439728 0.00370807 0.00288801 0.00228325 0.000839762 -0.000540868 -0.00184718 -0.00307949 -0.00424352 -0.00534643 -0.00639437 -0.00739095 -0.00833641 -0.00922715 -0.0100558 -0.0108113 -0.0114792 -0.0120428 -0.012483 -0.0127803 -0.012915 -0.0128686 -0.0126255 -0.012174 -0.0115079 -0.0106281 -0.00954365 -0.00827298 -0.00684473 -0.00529785 -0.00368113 -0.00205178 -0.000473208 0.000988317 0.00226773 0.00330596 0.00405484 0.00448165 0.00457283 0.00433635 0.00380243 0.0030229 0.00206968 0.00207395 0.000538531 -0.000923697 -0.0023054 -0.00361129 -0.00485098 -0.0060347 -0.00717082 -0.00826444 -0.00931663 -0.0103241 -0.0112791 -0.0121697 -0.0129803 -0.0136919 -0.014283 -0.0147304 -0.0150104 -0.0151 -0.0149782 -0.0146277 -0.0140366 -0.0132001 -0.0121224 -0.0108181 -0.00931371 -0.00764806 -0.00587262 -0.00405029 -0.00225328 -0.000559557 0.00095175 0.00220627 0.00314056 0.00370834 0.00388561 0.00367415 0.00310282 0.00222677 0.00112532 0.0015762 -3.54444e-05 -0.00156578 -0.00301196 -0.00438318 -0.00569276 -0.00695379 -0.00817665 -0.00936771 -0.0105288 -0.0116567 -0.0127435 -0.0137766 -0.0147389 -0.0156095 -0.0163643 -0.0169767 -0.0174188 -0.0176624 -0.0176809 -0.0174506 -0.0169529 -0.0161764 -0.0151189 -0.0137899 -0.0122122 -0.0104235 -0.0084768 -0.0064404 -0.00439559 -0.00243326 -0.000648623 0.000865717 0.00202766 0.00277373 0.0030663 0.00289856 0.00229667 0.00131873 5.18219e-05 0.000764604 -0.000907053 -0.00249156 -0.00399071 -0.00541811 -0.00679068 -0.00812416 -0.0094308 -0.0107182 -0.0119888 -0.0132397 -0.0144629 -0.015645 -0.0167679 -0.0178088 -0.018741 -0.0195345 -0.0201569 -0.0205749 -0.0207555 -0.0206679 -0.020286 -0.0195903 -0.018571 -0.0172308 -0.015587 -0.0136744 -0.0115466 -0.00927606 -0.00695313 -0.00468251 -0.00257761 -0.000752422 0.000688183 0.00165909 0.00210472 0.00200631 0.00138513 0.000301435 -0.00114997 -0.000381913 -0.00209706 -0.00372153 -0.00526177 -0.00673553 -0.00816313 -0.00956286 -0.0109487 -0.0123296 -0.0137087 -0.0150836 -0.0164463 -0.0177829 -0.0190744 -0.0202964 -0.0214197 -0.0224108 -0.023233 -0.0238472 -0.0242138 -0.0242942 -0.0240538 -0.0234639 -0.0225056 -0.0211726 -0.0194753 -0.0174433 -0.0151286 -0.0126067 -0.00997607 -0.00735577 -0.00487915 -0.00268499 -0.000905575 0.000346799 0.000993081 0.000997809 0.00037424 -0.000816782 -0.00247306 -0.00187976 -0.00362181 -0.00527207 -0.00684126 -0.00835095 -0.00982455 -0.0112828 -0.0127415 -0.0142109 -0.0156953 -0.0171929 -0.0186961 -0.0201909 -0.0216574 -0.02307 -0.024397 -0.0256018 -0.0266429 -0.0274756 -0.0280532 -0.0283288 -0.0282583 -0.0278028 -0.0269326 -0.0256311 -0.0238988 -0.0217581 -0.0192569 -0.0164712 -0.0135066 -0.0104958 -0.00759336 -0.0049661 -0.00277887 -0.00117769 -0.000272163 -0.000120773 -0.000722868 -0.00201941 -0.00390161 -0.00374023 -0.00549298 -0.00715518 -0.00874113 -0.0102756 -0.0117849 -0.0132919 -0.0148146 -0.0163648 -0.0179484 -0.0195645 -0.0212062 -0.02286 -0.0245054 -0.0261156 -0.0276569 -0.0290894 -0.0303671 -0.0314396 -0.0322528 -0.0327512 -0.0328804 -0.0325904 -0.0318393 -0.0305982 -0.0288559 -0.0266246 -0.023945 -0.0208909 -0.017572 -0.0141334 -0.0107513 -0.00762298 -0.00495119 -0.00292318 -0.00168782 -0.00133504 -0.00188322 -0.0032788 -0.0054079 -0.00596913 -0.00771741 -0.00937842 -0.010969 -0.0125165 -0.0140493 -0.0155929 -0.0171675 -0.0187873 -0.0204599 -0.0221863 -0.0239608 -0.0257703 -0.0275946 -0.0294058 -0.0311683 -0.0328392 -0.0343683 -0.0356991 -0.0367702 -0.0375173 -0.0378755 -0.0377827 -0.037184 -0.0360364 -0.0343149 -0.0320186 -0.0291778 -0.0258603 -0.022176 -0.0182796 -0.0143679 -0.0106701 -0.00743154 -0.00488889 -0.00324072 -0.0026192 -0.00307073 -0.00455273 -0.00694861 -0.00856662 -0.0102971 -0.011945 -0.0135284 -0.0150758 -0.0166178 -0.0181823 -0.0197927 -0.021466 -0.0232127 -0.0250361 -0.0269323 -0.0288894 -0.0308874 -0.032898 -0.0348839 -0.0367991 -0.0385892 -0.0401922 -0.0415394 -0.0425574 -0.0431708 -0.0433053 -0.042892 -0.0418729 -0.0402072 -0.0378784 -0.0349028 -0.0313377 -0.0272889 -0.0229161 -0.0184333 -0.0141015 -0.0102122 -0.00705943 -0.00490341 -0.00393217 -0.00423225 -0.00578017 -0.00846049 -0.0115272 -0.0132293 -0.0148544 -0.016419 -0.0179518 -0.0194854 -0.0210509 -0.0226754 -0.0243803 -0.0261797 -0.0280805 -0.0300811 -0.0321715 -0.0343322 -0.0365344 -0.0387394 -0.0408984 -0.0429531 -0.0448357 -0.0464705 -0.0477755 -0.0486648 -0.0490517 -0.0488536 -0.0479967 -0.0464231 -0.0440987 -0.0410225 -0.037237 -0.0328382 -0.0279847 -0.0229026 -0.0178816 -0.0132607 -0.00939818 -0.00662875 -0.00521269 -0.0052928 -0.0068764 -0.00985519 -0.0148401 -0.0165076 -0.0181025 -0.0196371 -0.021139 -0.0226425 -0.0241829 -0.0257931 -0.0275001 -0.0293236 -0.0312747 -0.0333554 -0.0355576 -0.0378629 -0.0402421 -0.042655 -0.0450502 -0.0473651 -0.0495268 -0.0514526 -0.0530521 -0.0542295 -0.0548863 -0.0549262 -0.0542598 -0.0528118 -0.0505291 -0.0473911 -0.0434211 -0.0386999 -0.0333778 -0.0276852 -0.0219346 -0.0165101 -0.0118391 -0.0083431 -0.00637342 -0.00614986 -0.00772715 -0.0110133 -0.0184903 -0.0201227 -0.0216836 -0.0231774 -0.024629 -0.0260749 -0.0275569 -0.0291157 -0.0307866 -0.0325967 -0.034563 -0.0366915 -0.0389767 -0.0414013 -0.0439356 -0.0465379 -0.0491536 -0.0517163 -0.0541475 -0.056358 -0.0582494 -0.0597163 -0.0606494 -0.0609394 -0.060482 -0.0591851 -0.0569764 -0.0538142 -0.0497 -0.0446938 -0.0389303 -0.0326349 -0.0261332 -0.0198484 -0.0142772 -0.00993808 -0.00729373 -0.00666664 -0.00818176 -0.0117772 -0.0224593 -0.0240641 -0.0255917 -0.0270339 -0.0284114 -0.0297648 -0.0311454 -0.0326055 -0.034192 -0.0359417 -0.0378791 -0.0400153 -0.0423474 -0.0448591 -0.04752 -0.0502859 -0.0530993 -0.055889 -0.0585711 -0.0610498 -0.0632191 -0.0649647 -0.066167 -0.066705 -0.0664611 -0.0653271 -0.0632128 -0.0600556 -0.055834 -0.0505834 -0.0444162 -0.0375426 -0.0302894 -0.0231075 -0.0165576 -0.0112609 -0.00781129 -0.00666406 -0.00804512 -0.0119433 -0.026728 -0.0283231 -0.0298235 -0.0312025 -0.0324758 -0.0336917 -0.0349159 -0.0362178 -0.03766 -0.0392922 -0.0411481 -0.0432445 -0.0455812 -0.0481421 -0.0508953 -0.0537936 -0.0567753 -0.059764 -0.06267 -0.0653908 -0.0678127 -0.0698129 -0.0712626 -0.0720301 -0.0719857 -0.0710076 -0.0689894 -0.0658496 -0.061544 -0.0560827 -0.0495506 -0.042134 -0.0341471 -0.0260531 -0.0184643 -0.0121037 -0.00771215 -0.00591146 -0.00706829 -0.0112519 -0.0312795 -0.0328964 -0.0343818 -0.0356833 -0.0368131 -0.0378328 -0.0388307 -0.0399005 -0.0411264 -0.0425742 -0.0442884 -0.0462917 -0.0485861 -0.0511546 -0.0539624 -0.056958 -0.0600743 -0.0632288 -0.066325 -0.0692532 -0.0718919 -0.0741103 -0.0757703 -0.0767308 -0.0768516 -0.0759993 -0.0740539 -0.0709179 -0.0665278 -0.0608693 -0.0539992 -0.0460731 -0.03738 -0.0283772 -0.0197098 -0.0121915 -0.00671949 -0.0041156 -0.00493704 -0.00937629 -0.0361038 -0.0377921 -0.0392807 -0.0404847 -0.0414171 -0.0421637 -0.0428471 -0.0435953 -0.0445203 -0.0457079 -0.0472145 -0.0490683 -0.0512718 -0.0538053 -0.0566293 -0.059686 -0.0629013 -0.0661852 -0.0694334 -0.072528 -0.0753394 -0.0777281 -0.0795473 -0.0806469 -0.0808772 -0.080095 -0.0781695 -0.0749909 -0.0704807 -0.0646051 -0.0573949 -0.0489737 -0.0395963 -0.0296959 -0.0199262 -0.0111709 -0.00448073 -0.000907445 -0.00125803 -0.00590843 -0.041206 -0.0430381 -0.044553 -0.0456278 -0.0462872 -0.0466589 -0.0469173 -0.0472369 -0.047765 -0.0486103 -0.049841 -0.0514889 -0.0535547 -0.0560133 -0.0588175 -0.0619011 -0.0651807 -0.0685573 -0.0719172 -0.0751334 -0.0780671 -0.0805696 -0.0824849 -0.0836536 -0.0839173 -0.0831237 -0.0811336 -0.0778284 -0.0731193 -0.0669597 -0.0593611 -0.0504189 -0.040351 -0.0295527 -0.0186608 -0.00859848 -0.00055317 0.00417382 0.00445918 -0.000340257 -0.0466188 -0.0486963 -0.0502607 -0.0511522 -0.0514298 -0.0512921 -0.0509882 -0.0507545 -0.0507804 -0.0511985 -0.0520868 -0.0534773 -0.0553647 -0.0577146 -0.0604689 -0.0635498 -0.0668626 -0.0702971 -0.0737289 -0.0770203 -0.0800222 -0.0825755 -0.0845144 -0.0856695 -0.0858728 -0.0849632 -0.0827936 -0.0792389 -0.0742048 -0.0676381 -0.0595405 -0.0499886 -0.0391685 -0.0274321 -0.0153773 -0.003932 0.00561231 0.0117013 0.0128264 0.00796236 -0.0524241 -0.0548842 -0.0565111 -0.0571241 -0.0568611 -0.0560352 -0.0550014 -0.054073 -0.053486 -0.0533947 -0.0538817 -0.0549729 -0.0566514 -0.0588685 -0.0615511 -0.064607 -0.0679273 -0.0713888 -0.0748546 -0.078175 -0.0811893 -0.083727 -0.0856108 -0.08666 -0.0866957 -0.0855466 -0.083057 -0.0790953 -0.0735635 -0.0664074 -0.0576276 -0.0472946 -0.0355753 -0.0227836 -0.00946738 0.00347427 0.0146892 0.0223878 0.024612 0.0197992 -0.0587919 -0.0618109 -0.0634795 -0.0636469 -0.0626094 -0.0608595 -0.0588939 -0.0571159 -0.0558063 -0.0551329 -0.0551732 -0.0559379 -0.0573908 -0.0594631 -0.0620626 -0.065079 -0.0683873 -0.0718492 -0.0753138 -0.0786185 -0.0815894 -0.0840435 -0.0857904 -0.0866364 -0.0863895 -0.0848658 -0.0818982 -0.0773459 -0.0711058 -0.0631236 -0.0534043 -0.0420236 -0.029146 -0.0150633 -0.000276664 0.0143647 0.0274936 0.0371228 0.0407942 0.0362005 -0.066049 -0.0698381 -0.0714452 -0.0708741 -0.0687174 -0.0657347 -0.0626007 -0.0598106 -0.0576777 -0.0563667 -0.0559341 -0.0563633 -0.0575899 -0.0595185 -0.0620334 -0.0650035 -0.0682855 -0.0717249 -0.0751558 -0.0784014 -0.0812743 -0.0835773 -0.0851059 -0.0856515 -0.0850064 -0.0829708 -0.0793616 -0.0740237 -0.0668429 -0.0577593 -0.0467803 -0.0339911 -0.0195669 -0.00379821 0.0128424 0.0295577 0.0449986 0.0570251 0.0626466 0.058539 -0.0748096 -0.079581 -0.0808414 -0.0790246 -0.075243 -0.0706296 -0.0660572 -0.0620941 -0.0590556 -0.057075 -0.0561668 -0.0562717 -0.057287 -0.0590848 -0.0615217 -0.0644441 -0.0676891 -0.0710853 -0.0744515 -0.0775964 -0.0803185 -0.0824062 -0.0836398 -0.0837943 -0.082644 -0.0799693 -0.0755659 -0.0692567 -0.0609058 -0.0504353 -0.0378414 -0.023209 -0.00672346 0.0113134 0.0304357 0.0498815 0.0683277 0.0835103 0.0918777 0.0887338 -0.0862256 -0.0920782 -0.0923208 -0.0883894 -0.0822507 -0.0755044 -0.069197 -0.0639124 -0.059913 -0.0572603 -0.0558989 -0.0557098 -0.0565424 -0.0582307 -0.0606016 -0.0634775 -0.0666763 -0.0700095 -0.0732814 -0.0762868 -0.0788103 -0.0806261 -0.0814991 -0.0811872 -0.0794452 -0.0760306 -0.0707124 -0.0632825 -0.0535699 -0.0414587 -0.026908 -0.00997257 0.0091798 0.0302517 0.0527816 0.0760304 0.0986908 0.118362 0.130856 0.129629 -0.102491 -0.109067 -0.106816 -0.0993057 -0.0897696 -0.0802746 -0.0719221 -0.0651943 -0.0602161 -0.0569226 -0.0551565 -0.0547221 -0.0554119 -0.0570188 -0.0593388 -0.0621714 -0.0653158 -0.0685688 -0.071721 -0.0745548 -0.0768424 -0.0783452 -0.0788135 -0.0779886 -0.0756053 -0.0713968 -0.0651013 -0.0564715 -0.0452866 -0.031369 -0.0146041 0.00503583 0.0274653 0.0524598 0.0796213 0.108278 0.137173 0.163743 0.182956 0.185699 -0.127921 -0.133387 -0.125515 -0.112014 -0.0976504 -0.084688 -0.0739984 -0.0657628 -0.0598471 -0.0559923 -0.0539051 -0.0532971 -0.0538991 -0.0554619 -0.0577532 -0.0605514 -0.0636406 -0.066805 -0.0698246 -0.0724718 -0.0745089 -0.0756863 -0.0757426 -0.0744044 -0.0713882 -0.0664034 -0.059156 -0.0493545 -0.0367173 -0.0209825 -0.00192159 0.0206424 0.046809 0.0765672 0.109753 0.145957 0.184204 0.221948 0.253003 0.264341 -0.1714 -0.169388 -0.149479 -0.126178 -0.105139 -0.087984 -0.0747971 -0.0651397 -0.0584543 -0.0542112 -0.0519512 -0.0512861 -0.0518864 -0.0534666 -0.0557714 -0.0585643 -0.061619 -0.0647114 -0.0676147 -0.0700949 -0.0719079 -0.072797 -0.0724921 -0.070709 -0.06715 -0.0615038 -0.0534473 -0.0426458 -0.0287531 -0.0114113 0.00975172 0.0351233 0.065105 0.100103 0.140502 0.186613 0.238423 0.29439 0.347529 0.378233 -0.252224 -0.222547 -0.17807 -0.139399 -0.109775 -0.0881742 -0.0728478 -0.062264 -0.0552619 -0.0509935 -0.0488356 -0.0483169 -0.0490663 -0.0507777 -0.0531854 -0.0560478 -0.0591355 -0.0622225 -0.0650804 -0.0674735 -0.0691555 -0.0698671 -0.0693343 -0.0672673 -0.0633594 -0.0572858 -0.0487015 -0.0372371 -0.0224914 -0.00401766 0.0186987 0.0462761 0.0794907 0.119352 0.167201 0.224831 0.294583 0.378701 0.473502 0.549994 -0.413173 -0.294598 -0.202818 -0.143089 -0.105328 -0.0811718 -0.0654955 -0.0553446 -0.0489892 -0.0453672 -0.0437843 -0.0437542 -0.0449105 -0.0469575 -0.0496403 -0.0527266 -0.0559944 -0.059224 -0.0621917 -0.0646655 -0.0664022 -0.0671448 -0.0666206 -0.0645398 -0.0605938 -0.0544531 -0.0457625 -0.0341344 -0.0191355 -0.00026381 0.0230915 0.0517194 0.0867081 0.129659 0.183063 0.250975 0.340177 0.461963 0.630192 0.823218 -0.752775 -0.345276 -0.186257 -0.116516 -0.0812781 -0.0614219 -0.0495033 -0.0422617 -0.0380969 -0.0361295 -0.0358167 -0.0367833 -0.0387412 -0.0414495 -0.044692 -0.0482642 -0.0519648 -0.0555895 -0.0589269 -0.0617551 -0.0638393 -0.0649297 -0.0647599 -0.063046 -0.0594844 -0.0537498 -0.0454912 -0.0343235 -0.0198152 -0.00146346 0.0213481 0.0494258 0.0839086 0.126551 0.180333 0.250899 0.35021 0.505412 0.774717 1.27433 0 0 0 0 0 0 0 0 0 0 0 0 0 0 0 0 0 0 0 0 0 0 0 0 0 0 0 0 0 0 0 0 0 0 0 0 0 0 0 0 -0.00205508 -0.00241843 -0.00294524 -0.00349585 -0.0040195 -0.00448745 -0.00487922 -0.0051796 -0.00537768 -0.00546616 -0.00544081 -0.00530004 -0.00504467 -0.0046778 -0.00420489 -0.00363386 -0.00297517 -0.00224195 -0.00144991 -0.000617133 0.000236207 0.00108844 0.00191702 0.00269938 0.00341374 0.00404003 0.00456082 0.00496208 0.00523392 0.00537117 0.00537381 0.00524716 0.00500186 0.00465363 0.00422266 0.00373279 0.00321085 0.00268807 0.00221279 0.00191646 -0.0023611 -0.00255456 -0.00292803 -0.0033636 -0.00379789 -0.00419404 -0.00452845 -0.00478513 -0.00495306 -0.00502493 -0.00499628 -0.00486511 -0.0046316 -0.00429806 -0.00386899 -0.0033512 -0.0027539 -0.00208878 -0.00136996 -0.000613808 0.000161339 0.000935678 0.00168855 0.00239917 0.00304747 0.00361496 0.00408557 0.00444655 0.00468911 0.00480904 0.0048071 0.00468922 0.00446652 0.00415509 0.00377577 0.00335418 0.00292179 0.00252018 0.00221312 0.00211406 -0.00228863 -0.00251086 -0.00284736 -0.00323044 -0.00361217 -0.00396081 -0.00425535 -0.00448164 -0.00463001 -0.00469395 -0.00466931 -0.00455385 -0.00434711 -0.00405043 -0.00366702 -0.00320217 -0.0026634 -0.00206057 -0.00140594 -0.000714056 -1.50889e-06 0.000713436 0.0014114 0.00207259 0.00267759 0.0032083 0.00364881 0.0039864 0.00421226 0.00432225 0.00431731 0.00420372 0.00399306 0.00370201 0.00335213 0.00296982 0.00258711 0.0022439 0.00199216 0.00189915 -0.00203518 -0.0023543 -0.00271992 -0.00309876 -0.0034617 -0.00378721 -0.00406031 -0.00427072 -0.00441134 -0.0044772 -0.00446482 -0.00437191 -0.00419738 -0.00394141 -0.0036057 -0.00319371 -0.00271097 -0.00216528 -0.00156683 -0.000928311 -0.000264692 0.000407001 0.00106818 0.00169937 0.002281 0.00279439 0.0032228 0.00355251 0.00377379 0.00388171 0.00387677 0.00376514 0.00355862 0.00327429 0.00293402 0.00256393 0.00219415 0.00185875 0.00159525 0.00144099 -0.00171975 -0.0021559 -0.00258312 -0.00298857 -0.00335849 -0.00368183 -0.00395071 -0.00415968 -0.00430485 -0.00438318 -0.00439206 -0.00432927 -0.00419301 -0.00398219 -0.0036968 -0.00333826 -0.00290988 -0.00241719 -0.00186823 -0.00127378 -0.000647276 -4.74342e-06 0.000635665 0.00125426 0.00183065 0.00234486 0.00277843 0.00311577 0.00334529 0.00346049 0.0034607 0.00335138 0.00314412 0.00285608 0.0025091 0.00212865 0.00174253 0.00137952 0.00106722 0.000828078 -0.0014206 -0.00197602 -0.00247867 -0.00292833 -0.00332287 -0.00366041 -0.00393993 -0.00416088 -0.00432267 -0.00442424 -0.00446393 -0.00443946 -0.00434827 -0.00418786 -0.00395633 -0.00365287 