# vtk DataFile Version 2.0
Presion
ASCII

DATASET STRUCTURED_GRID
DIMENSIONS   40   40   20

POINTS   32000   double
0.0125   0.0125   0.025
0.0375   0.0125   0.025
0.0625   0.0125   0.025
0.0875   0.0125   0.025
0.1125   0.0125   0.025
0.1375   0.0125   0.025
0.1625   0.0125   0.025
0.1875   0.0125   0.025
0.2125   0.0125   0.025
0.2375   0.0125   0.025
0.2625   0.0125   0.025
0.2875   0.0125   0.025
0.3125   0.0125   0.025
0.3375   0.0125   0.025
0.3625   0.0125   0.025
0.3875   0.0125   0.025
0.4125   0.0125   0.025
0.4375   0.0125   0.025
0.4625   0.0125   0.025
0.4875   0.0125   0.025
0.5125   0.0125   0.025
0.5375   0.0125   0.025
0.5625   0.0125   0.025
0.5875   0.0125   0.025
0.6125   0.0125   0.025
0.6375   0.0125   0.025
0.6625   0.0125   0.025
0.6875   0.0125   0.025
0.7125   0.0125   0.025
0.7375   0.0125   0.025
0.7625   0.0125   0.025
0.7875   0.0125   0.025
0.8125   0.0125   0.025
0.8375   0.0125   0.025
0.8625   0.0125   0.025
0.8875   0.0125   0.025
0.9125   0.0125   0.025
0.9375   0.0125   0.025
0.9625   0.0125   0.025
0.9875   0.0125   0.025
0.0125   0.0375   0.025
0.0375   0.0375   0.025
0.0625   0.0375   0.025
0.0875   0.0375   0.025
0.1125   0.0375   0.025
0.1375   0.0375   0.025
0.1625   0.0375   0.025
0.1875   0.0375   0.025
0.2125   0.0375   0.025
0.2375   0.0375   0.025
0.2625   0.0375   0.025
0.2875   0.0375   0.025
0.3125   0.0375   0.025
0.3375   0.0375   0.025
0.3625   0.0375   0.025
0.3875   0.0375   0.025
0.4125   0.0375   0.025
0.4375   0.0375   0.025
0.4625   0.0375   0.025
0.4875   0.0375   0.025
0.5125   0.0375   0.025
0.5375   0.0375   0.025
0.5625   0.0375   0.025
0.5875   0.0375   0.025
0.6125   0.0375   0.025
0.6375   0.0375   0.025
0.6625   0.0375   0.025
0.6875   0.0375   0.025
0.7125   0.0375   0.025
0.7375   0.0375   0.025
0.7625   0.0375   0.025
0.7875   0.0375   0.025
0.8125   0.0375   0.025
0.8375   0.0375   0.025
0.8625   0.0375   0.025
0.8875   0.0375   0.025
0.9125   0.0375   0.025
0.9375   0.0375   0.025
0.9625   0.0375   0.025
0.9875   0.0375   0.025
0.0125   0.0625   0.025
0.0375   0.0625   0.025
0.0625   0.0625   0.025
0.0875   0.0625   0.025
0.1125   0.0625   0.025
0.1375   0.0625   0.025
0.1625   0.0625   0.025
0.1875   0.0625   0.025
0.2125   0.0625   0.025
0.2375   0.0625   0.025
0.2625   0.0625   0.025
0.2875   0.0625   0.025
0.3125   0.0625   0.025
0.3375   0.0625   0.025
0.3625   0.0625   0.025
0.3875   0.0625   0.025
0.4125   0.0625   0.025
0.4375   0.0625   0.025
0.4625   0.0625   0.025
0.4875   0.0625   0.025
0.5125   0.0625   0.025
0.5375   0.0625   0.025
0.5625   0.0625   0.025
0.5875   0.0625   0.025
0.6125   0.0625   0.025
0.6375   0.0625   0.025
0.6625   0.0625   0.025
0.6875   0.0625   0.025
0.7125   0.0625   0.025
0.7375   0.0625   0.025
0.7625   0.0625   0.025
0.7875   0.0625   0.025
0.8125   0.0625   0.025
0.8375   0.0625   0.025
0.8625   0.0625   0.025
0.8875   0.0625   0.025
0.9125   0.0625   0.025
0.9375   0.0625   0.025
0.9625   0.0625   0.025
0.9875   0.0625   0.025
0.0125   0.0875   0.025
0.0375   0.0875   0.025
0.0625   0.0875   0.025
0.0875   0.0875   0.025
0.1125   0.0875   0.025
0.1375   0.0875   0.025
0.1625   0.0875   0.025
0.1875   0.0875   0.025
0.2125   0.0875   0.025
0.2375   0.0875   0.025
0.2625   0.0875   0.025
0.2875   0.0875   0.025
0.3125   0.0875   0.025
0.3375   0.0875   0.025
0.3625   0.0875   0.025
0.3875   0.0875   0.025
0.4125   0.0875   0.025
0.4375   0.0875   0.025
0.4625   0.0875   0.025
0.4875   0.0875   0.025
0.5125   0.0875   0.025
0.5375   0.0875   0.025
0.5625   0.0875   0.025
0.5875   0.0875   0.025
0.6125   0.0875   0.025
0.6375   0.0875   0.025
0.6625   0.0875   0.025
0.6875   0.0875   0.025
0.7125   0.0875   0.025
0.7375   0.0875   0.025
0.7625   0.0875   0.025
0.7875   0.0875   0.025
0.8125   0.0875   0.025
0.8375   0.0875   0.025
0.8625   0.0875   0.025
0.8875   0.0875   0.025
0.9125   0.0875   0.025
0.9375   0.0875   0.025
0.9625   0.0875   0.025
0.9875   0.0875   0.025
0.0125   0.1125   0.025
0.0375   0.1125   0.025
0.0625   0.1125   0.025
0.0875   0.1125   0.025
0.1125   0.1125   0.025
0.1375   0.1125   0.025
0.1625   0.1125   0.025
0.1875   0.1125   0.025
0.2125   0.1125   0.025
0.2375   0.1125   0.025
0.2625   0.1125   0.025
0.2875   0.1125   0.025
0.3125   0.1125   0.025
0.3375   0.1125   0.025
0.3625   0.1125   0.025
0.3875   0.1125   0.025
0.4125   0.1125   0.025
0.4375   0.1125   0.025
0.4625   0.1125   0.025
0.4875   0.1125   0.025
0.5125   0.1125   0.025
0.5375   0.1125   0.025
0.5625   0.1125   0.025
0.5875   0.1125   0.025
0.6125   0.1125   0.025
0.6375   0.1125   0.025
0.6625   0.1125   0.025
0.6875   0.1125   0.025
0.7125   0.1125   0.025
0.7375   0.1125   0.025
0.7625   0.1125   0.025
0.7875   0.1125   0.025
0.8125   0.1125   0.025
0.8375   0.1125   0.025
0.8625   0.1125   0.025
0.8875   0.1125   0.025
0.9125   0.1125   0.025
0.9375   0.1125   0.025
0.9625   0.1125   0.025
0.9875   0.1125   0.025
0.0125   0.1375   0.025
0.0375   0.1375   0.025
0.0625   0.1375   0.025
0.0875   0.1375   0.025
0.1125   0.1375   0.025
0.1375   0.1375   0.025
0.1625   0.1375   0.025
0.1875   0.1375   0.025
0.2125   0.1375   0.025
0.2375   0.1375   0.025
0.2625   0.1375   0.025
0.2875   0.1375   0.025
0.3125   0.1375   0.025
0.3375   0.1375   0.025
0.3625   0.1375   0.025
0.3875   0.1375   0.025
0.4125   0.1375   0.025
0.4375   0.1375   0.025
0.4625   0.1375   0.025
0.4875   0.1375   0.025
0.5125   0.1375   0.025
0.5375   0.1375   0.025
0.5625   0.1375   0.025
0.5875   0.1375   0.025
0.6125   0.1375   0.025
0.6375   0.1375   0.025
0.6625   0.1375   0.025
0.6875   0.1375   0.025
0.7125   0.1375   0.025
0.7375   0.1375   0.025
0.7625   0.1375   0.025
0.7875   0.1375   0.025
0.8125   0.1375   0.025
0.8375   0.1375   0.025
0.8625   0.1375   0.025
0.8875   0.1375   0.025
0.9125   0.1375   0.025
0.9375   0.1375   0.025
0.9625   0.1375   0.025
0.9875   0.1375   0.025
0.0125   0.1625   0.025
0.0375   0.1625   0.025
0.0625   0.1625   0.025
0.0875   0.1625   0.025
0.1125   0.1625   0.025
0.1375   0.1625   0.025
0.1625   0.1625   0.025
0.1875   0.1625   0.025
0.2125   0.1625   0.025
0.2375   0.1625   0.025
0.2625   0.1625   0.025
0.2875   0.1625   0.025
0.3125   0.1625   0.025
0.3375   0.1625   0.025
0.3625   0.1625   0.025
0.3875   0.1625   0.025
0.4125   0.1625   0.025
0.4375   0.1625   0.025
0.4625   0.1625   0.025
0.4875   0.1625   0.025
0.5125   0.1625   0.025
0.5375   0.1625   0.025
0.5625   0.1625   0.025
0.5875   0.1625   0.025
0.6125   0.1625   0.025
0.6375   0.1625   0.025
0.6625   0.1625   0.025
0.6875   0.1625   0.025
0.7125   0.1625   0.025
0.7375   0.1625   0.025
0.7625   0.1625   0.025
0.7875   0.1625   0.025
0.8125   0.1625   0.025
0.8375   0.1625   0.025
0.8625   0.1625   0.025
0.8875   0.1625   0.025
0.9125   0.1625   0.025
0.9375   0.1625   0.025
0.9625   0.1625   0.025
0.9875   0.1625   0.025
0.0125   0.1875   0.025
0.0375   0.1875   0.025
0.0625   0.1875   0.025
0.0875   0.1875   0.025
0.1125   0.1875   0.025
0.1375   0.1875   0.025
0.1625   0.1875   0.025
0.1875   0.1875   0.025
0.2125   0.1875   0.025
0.2375   0.1875   0.025
0.2625   0.1875   0.025
0.2875   0.1875   0.025
0.3125   0.1875   0.025
0.3375   0.1875   0.025
0.3625   0.1875   0.025
0.3875   0.1875   0.025
0.4125   0.1875   0.025
0.4375   0.1875   0.025
0.4625   0.1875   0.025
0.4875   0.1875   0.025
0.5125   0.1875   0.025
0.5375   0.1875   0.025
0.5625   0.1875   0.025
0.5875   0.1875   0.025
0.6125   0.1875   0.025
0.6375   0.1875   0.025
0.6625   0.1875   0.025
0.6875   0.1875   0.025
0.7125   0.1875   0.025
0.7375   0.1875   0.025
0.7625   0.1875   0.025
0.7875   0.1875   0.025
0.8125   0.1875   0.025
0.8375   0.1875   0.025
0.8625   0.1875   0.025
0.8875   0.1875   0.025
0.9125   0.1875   0.025
0.9375   0.1875   0.025
0.9625   0.1875   0.025
0.9875   0.1875   0.025
0.0125   0.2125   0.025
0.0375   0.2125   0.025
0.0625   0.2125   0.025
0.0875   0.2125   0.025
0.1125   0.2125   0.025
0.1375   0.2125   0.025
0.1625   0.2125   0.025
0.1875   0.2125   0.025
0.2125   0.2125   0.025
0.2375   0.2125   0.025
0.2625   0.2125   0.025
0.2875   0.2125   0.025
0.3125   0.2125   0.025
0.3375   0.2125   0.025
0.3625   0.2125   0.025
0.3875   0.2125   0.025
0.4125   0.2125   0.025
0.4375   0.2125   0.025
0.4625   0.2125   0.025
0.4875   0.2125   0.025
0.5125   0.2125   0.025
0.5375   0.2125   0.025
0.5625   0.2125   0.025
0.5875   0.2125   0.025
0.6125   0.2125   0.025
0.6375   0.2125   0.025
0.6625   0.2125   0.025
0.6875   0.2125   0.025
0.7125   0.2125   0.025
0.7375   0.2125   0.025
0.7625   0.2125   0.025
0.7875   0.2125   0.025
0.8125   0.2125   0.025
0.8375   0.2125   0.025
0.8625   0.2125   0.025
0.8875   0.2125   0.025
0.9125   0.2125   0.025
0.9375   0.2125   0.025
0.9625   0.2125   0.025
0.9875   0.2125   0.025
0.0125   0.2375   0.025
0.0375   0.2375   0.025
0.0625   0.2375   0.025
0.0875   0.2375   0.025
0.1125   0.2375   0.025
0.1375   0.2375   0.025
0.1625   0.2375   0.025
0.1875   0.2375   0.025
0.2125   0.2375   0.025
0.2375   0.2375   0.025
0.2625   0.2375   0.025
0.2875   0.2375   0.025
0.3125   0.2375   0.025
0.3375   0.2375   0.025
0.3625   0.2375   0.025
0.3875   0.2375   0.025
0.4125   0.2375   0.025
0.4375   0.2375   0.025
0.4625   0.2375   0.025
0.4875   0.2375   0.025
0.5125   0.2375   0.025
0.5375   0.2375   0.025
0.5625   0.2375   0.025
0.5875   0.2375   0.025
0.6125   0.2375   0.025
0.6375   0.2375   0.025
0.6625   0.2375   0.025
0.6875   0.2375   0.025
0.7125   0.2375   0.025
0.7375   0.2375   0.025
0.7625   0.2375   0.025
0.7875   0.2375   0.025
0.8125   0.2375   0.025
0.8375   0.2375   0.025
0.8625   0.2375   0.025
0.8875   0.2375   0.025
0.9125   0.2375   0.025
0.9375   0.2375   0.025
0.9625   0.2375   0.025
0.9875   0.2375   0.025
0.0125   0.2625   0.025
0.0375   0.2625   0.025
0.0625   0.2625   0.025
0.0875   0.2625   0.025
0.1125   0.2625   0.025
0.1375   0.2625   0.025
0.1625   0.2625   0.025
0.1875   0.2625   0.025
0.2125   0.2625   0.025
0.2375   0.2625   0.025
0.2625   0.2625   0.025
[...]
POINT_DATA   32000
SCALARS Presion double
LOOKUP_TABLE   Presion

0 0 0 0 0 0 0 0 0 0 0 0 0 0 0 0 0 0 0 0 0 0 0 0 0 0 0 0 0 0 0 0 0 0 0 0 0 0 0 0 -0.00298891 -0.00336642 -0.00393117 -0.00450328 -0.00502617 -0.00547449 -0.00583337 -0.00609342 -0.00624916 -0.00629815 -0.00624015 -0.00607756 -0.00581358 -0.00545279 -0.00500067 -0.00446357 -0.00384863 -0.00316386 -0.00241821 -0.00162171 -0.000785038 7.8309e-05 0.000955042 0.0018302 0.00268778 0.00351094 0.00428238 0.00498479 0.00560135 0.00611628 0.0065156 0.00678713 0.00692173 0.00691316 0.0067583 0.00645707 0.0060128 0.00543614 0.00476859 0.00421021 -0.00363411 -0.00374402 -0.00408971 -0.00452229 -0.00496129 -0.00536168 -0.00569667 -0.00594975 -0.0061109 -0.00617459 -0.00613815 -0.00600247 -0.0057692 -0.0054417 -0.00502447 -0.00452292 -0.00394339 -0.00329307 -0.00258016 -0.00181389 -0.00100377 -0.000163094 0.000695964 0.00155923 0.0024114 0.00323626 0.00401699 0.00473657 0.00537837 0.00592666 0.00636761 0.006689 0.00688241 0.00694304 0.00687094 0.00667253 0.00636392 0.0059797 0.00559752 0.00540389 -0.00380308 -0.00390724 -0.00418088 -0.0045419 -0.00492713 -0.00529279 -0.00560946 -0.00585764 -0.00602474 -0.00610313 -0.00608817 -0.00597958 -0.00577749 -0.00548403 -0.00510256 -0.0046374 -0.00409382 -0.00347796 -0.00279697 -0.00205905 -0.00127235 -0.000449774 0.000397662 0.00125654 0.00211214 0.00294861 0.00374922 0.00449684 0.00517447 0.00576588 0.00625682 0.00663446 0.0068904 0.00702041 0.00702607 0.00691654 0.00671179 0.00644892 0.00619487 0.00606665 -0.00373509 -0.00391566 -0.00419988 -0.00454584 -0.00491146 -0.00526205 -0.00557137 -0.00582059 -0.00599671 -0.00609125 -0.00609838 -0.00601704 -0.0058461 -0.00558656 -0.00524057 -0.0048113 -0.00430279 -0.00371998 -0.00306878 -0.00235615 -0.0015888 -0.000779096 6.31057e-05 0.000925101 0.00179261 0.00264991 0.00348008 0.00426542 0.00498807 0.00563078 0.00617825 0.00661628 0.00693565 0.00713152 0.00720513 0.00716537 0.00703083 0.00683315 0.00662159 0.0064656 -0.00356119 -0.00383754 -0.00417139 -0.00453913 -0.00491322 -0.00526815 -0.00558285 -0.00584108 -0.00603095 -0.00614426 -0.0061747 -0.00612097 -0.00598097 -0.00575471 -0.00544326 -0.00504858 -0.00457347 -0.00402152 -0.00339731 -0.00270647 -0.00195414 -0.00115208 -0.000308971 0.000563174 0.00145042 0.00233698 0.00320545 0.00403724 0.00481321 0.00551448 0.00612414 0.00662582 0.00700866 0.00726612 0.00739782 0.00741067 0.00732012 0.00715136 0.00694012 0.00673014 -0.00335595 -0.00372706 -0.00412644 -0.00453705 -0.00493938 -0.00531464 -0.00564656 -0.00592203 -0.00613104 -0.00626634 -0.00632176 -0.00629619 -0.00618688 -0.00599309 -0.00571493 -0.00535324 -0.00490952 -0.00438604 -0.00378595 -0.00311348 -0.00237208 -0.0015729 -0.000723343 0.000165255 0.00107925 0.00200269 0.00291749 0.00380388 0.004641 0.00540791 0.00608545 0.00665437 0.00710137 0.00741739 0.00759958 0.00765221 0.0075874 0.00742536 0.00719358 0.00692358 -0.00316456 -0.00362395 -0.00409377 -0.0045582 -0.00500139 -0.0054087 -0.00576752 -0.00606757 -0.00630087 -0.00646145 -0.00654369 -0.00654695 -0.00646818 -0.00630609 -0.00605999 -0.0057297 -0.0053155 -0.0048183 -0.00423981 -0.00358277 -0.00284891 -0.0020486 -0.00118791 -0.000277449 0.000669466 0.00163667 0.00260529 0.00355412 0.0044603 0.00530029 0.00605217 0.00669309 0.00720657 0.00758034 0.00780847 0.00789237 0.00784128 0.00767213 0.00740836 0.00707698 -0.00301633 -0.00355722 -0.00409774 -0.00462107 -0.00511258 -0.00555986 -0.00595275 -0.00628325 -0.00654522 -0.00673404 -0.00684481 -0.00687764 -0.00682936 -0.00669839 -0.00648339 -0.00618326 -0.00579714 -0.00532462 -0.00476591 -0.00412223 -0.00339343 -0.00258902 -0.0017136 -0.00077688 0.00020823 0.00122541 0.00225495 0.00327406 0.00425758 0.00517896 0.00601296 0.00673238 0.00731689 0.00775023 0.00802291 0.00813329 0.00808819 0.00790273 0.00759919 0.00720457 -0.00293164 -0.00354862 -0.00415855 -0.00474281 -0.00528672 -0.0057789 -0.00621076 -0.00657597 -0.00686995 -0.00708938 -0.00723017 -0.00729327 -0.00727562 -0.00717548 -0.00699105 -0.00672042 -0.00636168 -0.0059131 -0.00537338 -0.00474211 -0.00401716 -0.00320697 -0.00231448 -0.00134828 -0.000320677 0.000752 0.00184925 0.00294665 0.00401647 0.00502877 0.0059544 0.00676103 0.00742367 0.00792131 0.00824023 0.00837546 0.00833164 0.0081231 0.00777298 0.00731103 -0.00292587 -0.0036153 -0.00429322 -0.00493899 -0.00553735 -0.00607728 -0.00655114 -0.00695386 -0.00728216 -0.00753393 -0.00770588 -0.00779993 -0.00781323 -0.00774405 -0.00759026 -0.00734927 -0.00701817 -0.00659392 -0.0060737 -0.00545534 -0.00473455 -0.00391848 -0.00300809 -0.00201058 -0.000937314 0.000195603 0.00136705 0.00255098 0.00371693 0.00483117 0.00586003 0.0067652 0.00751605 0.00808586 0.00845585 0.00861715 0.0085722 0.00833515 0.00793127 0.00739505 -0.00301167 -0.00377162 -0.00451658 -0.00522397 -0.0058777 -0.00646681 -0.00698432 -0.00742614 -0.00779015 -0.00807535 -0.00827934 -0.00840499 -0.00844983 -0.00841227 -0.00828995 -0.00807971 -0.0077777 -0.0073796 -0.00688097 -0.00627777 -0.00556331 -0.00474315 -0.00381589 -0.00278691 -0.00166623 -0.000469315 0.000782395 0.00206133 0.00333423 0.00456315 0.0057093 0.00672736 0.00757997 0.00823343 0.00866274 0.00885427 0.00880785 0.00853763 0.00807189 0.0074513 -0.00320041 -0.00403047 -0.00484227 -0.00561136 -0.00632081 -0.00695966 -0.00752147 -0.00800308 -0.00840343 -0.00872267 -0.00895933 -0.00911731 -0.00919463 -0.00918997 -0.00910086 -0.00892366 -0.00865364 -0.00828517 -0.00781212 -0.00722842 -0.00652474 -0.00570459 -0.00476377 -0.00370531 -0.00253727 -0.00127391 6.34334e-05 0.00144598 0.00283765 0.00419597 0.0054763 0.00662522 0.00759723 0.00835009 0.008851 0.00908029 0.00903429 0.00872699 0.00819011 0.0074717 -0.00350317 -0.00440423 -0.00528343 -0.00611452 -0.00687984 -0.00756847 -0.00817457 -0.00869595 -0.00913271 -0.00948623 -0.00975608 -0.00994728 -0.0100585 -0.0100888 -0.0100357 -0.00989515 -0.00966166 -0.00932827 -0.00888706 -0.0083297 -0.00764396 -0.00683075 -0.00588254 -0.00479927 -0.00358629 -0.00225592 -0.000828666 0.000665941 0.00218915 0.00369373 0.00512843 0.00643047 0.0075445 0.00841772 0.00900748 0.00928619 0.00924534 0.00889803 0.00827961 0.00744638 -0.00393146 -0.00490547 -0.00585335 -0.00674708 -0.00756838 -0.00830651 -0.00895642 -0.00951705 -0.00998988 -0.0103776 -0.0106812 -0.0109067 -0.0110538 -0.0111219 -0.0111088 -0.0110102 -0.0108197 -0.0105291 -0.0101285 -0.0096073 -0.0089499 -0.00815401 -0.00720811 -0.00610816 -0.00485583 -0.00346044 -0.00194073 -0.000326225 0.00134206 0.00301199 0.00462495 0.00610743 0.00739216 0.00841322 0.00911539 0.00946056 0.00943335 0.00904476 0.00833348 0.00736473 -0.00449763 -0.00554747 -0.00656595 -0.0075233 -0.00840071 -0.00918786 -0.00988074 -0.0104797 -0.0109879 -0.0114097 -0.0117474 -0.0120088 -0.0121941 -0.0123039 -0.0123361 -0.0122863 -0.0121473 -0.0119097 -0.0115617 -0.0110898 -0.0104749 -0.00971087 -0.00878127 -0.0076771 -0.00639509 -0.00494021 -0.00332812 -0.00158722 0.000239957 0.00209649 0.0039157 0.00561185 0.00710326 0.00830774 0.00915391 0.00958966 0.00958978 0.00916125 0.00834537 0.00721669 -0.00521526 -0.0063446 -0.00743619 -0.00845844 -0.00939213 -0.0102276 -0.0109622 -0.0115982 -0.0121407 -0.012596 -0.0129685 -0.0132672 -0.0134941 -0.0136504 -0.0137345 -0.013742 -0.0136654 -0.0134937 -0.0132132 -0.0128075 -0.0122537 -0.0115408 -0.0106466 -0.00955601 -0.00825917 -0.00675505 -0.00505444 -0.00318301 -0.00118364 0.000882492 0.00294013 0.00488982 0.00663257 0.00806602 0.009098 0.00965769 0.00970597 0.00924292 0.00831106 0.00699433 -0.00609936 -0.00731263 -0.00848041 -0.00956911 -0.0105592 -0.0114419 -0.0122165 -0.0128876 -0.0134627 -0.0139507 -0.0143583 -0.0146963 -0.0149682 -0.0151765 -0.0153204 -0.0153956 -0.0153941 -0.015304 -0.0151095 -0.0147909 -0.0143214 -0.0136841 -0.0128504 -0.0117973 -0.0105068 -0.00896968 -0.00718964 -0.00518738 -0.00300427 -0.000704683 0.00162744 0.00387756 0.00592617 0.00764603 0.00891835 0.00964734 0.0097743 0.00928818 0.00823051 0.00669419 -0.00716656 -0.008469 -0.00971662 -0.0108735 -0.0119198 -0.0128481 -0.0136602 -0.0143635 -0.0149688 -0.0154879 -0.0159304 -0.0163092 -0.0166299 -0.0168964 -0.0171088 -0.0172634 -0.0173519 -0.0173615 -0.0172743 -0.0170677 -0.0167103 -0.0161786 -0.0154365 -0.0144517 -0.013196 -0.0116495 -0.00980593 -0.00767811 -0.0053033 -0.00274713 -0.000101677 0.00250251 0.00492209 0.00699949 0.00858205 0.00954086 0.00978982 0.00930073 0.00811062 0.00632025 -0.00843524 -0.00983309 -0.0111648 -0.0123916 -0.0134934 -0.0144648 -0.0153105 -0.0160417 -0.0166732 -0.0172206 -0.0176969 -0.0181175 -0.0184903 -0.018821 -0.0191111 -0.0193575 -0.0195522 -0.0196815 -0.0197257 -0.019659 -0.0194456 -0.0190546 -0.0184413 -0.0175626 -0.0163779 -0.0148538 -0.0129707 -0.0107301 -0.00816151 -0.00532874 -0.00233041 0.000686831 0.00355279 0.00607365 0.00805419 0.00932188 0.0097527 0.00929266 0.00796897 0.00588813 -0.0099257 -0.0114265 -0.0128473 -0.0141457 -0.0153015 -0.0163116 -0.0171849 -0.0179375 -0.0185892 -0.01916 -0.0196672 -0.020129 -0.0205561 -0.0209563 -0.0213329 -0.0216836 -0.022001 -0.0222707 -0.0224716 -0.0225748 -0.0225401 -0.0223286 -0.0218861 -0.0211573 -0.020087 -0.0186254 -0.0167362 -0.0144048 -0.0116486 -0.00852545 -0.00513729 -0.00164552 0.00175072 0.00481552 0.00730119 0.00897862 0.00967181 0.00928875 0.00783876 0.00543045 -0.0116605 -0.0132738 -0.0147895 -0.0161607 -0.0173672 -0.0184091 -0.0193009 -0.0200651 -0.0207275 -0.0213138 -0.0218463 -0.0223463 -0.0228278 -0.0233012 -0.0237713 -0.0242376 -0.024693 -0.0251232 -0.0255059 -0.0258091 -0.0259885 -0.0259966 -0.0257694 -0.0252382 -0.0243311 -0.0229793 -0.0211258 -0.0187357 -0.0158086 -0.0123908 -0.00858272 -0.00455706 -0.000542085 0.00317936 0.00629677 0.00850897 0.00956982 0.00933215 0.00777529 0.00500396 -0.0136649 -0.0154027 -0.0170203 -0.0184648 -0.019716 -0.020779 -0.0216756 -0.0224366 -0.0230955 -0.023685 -0.0242331 -0.0247647 -0.0252976 -0.0258446 -0.0264127 -0.0270029 -0.027609 -0.0282171 -0.0288037 -0.0293344 -0.0297608 -0.0300269 -0.0300584 -0.0297724 -0.0290791 -0.0278883 -0.0261189 -0.0237112 -0.0206412 -0.0169369 -0.0126904 -0.00807958 -0.0033591 0.00113887 0.00503146 0.0079283 0.00949036 0.00949196 0.00786432 0.00469857 -0.0159677 -0.0178458 -0.0195737 -0.0210902 -0.0223762 -0.0234436 -0.0243245 -0.0250607 -0.0256956 -0.0262699 -0.0268186 -0.0273704 -0.0279469 -0.0285637 -0.0292299 -0.029948 -0.0307131 -0.0315114 -0.0323189 -0.0330987 -0.0337991 -0.0343551 -0.0346827 -0.0346843 -0.0342515 -0.0332713 -0.031636 -0.0292572 -0.0260819 -0.0221125 -0.0174243 -0.0121917 -0.00668871 -0.00129525 0.00352686 0.00728087 0.00950803 0.00987307 0.00823265 0.00464878 -0.0186029 -0.0206426 -0.0224902 -0.0240748 -0.0253791 -0.0264257 -0.0272612 -0.0279417 -0.0285234 -0.0290565 -0.0295838 -0.0301382 -0.0307449 -0.0314222 -0.032181 -0.0330253 -0.0339511 -0.034945 -0.0359822 -0.0370239 -0.0380151 -0.0388821 -0.0395314 -0.0398514 -0.0397148 -0.0389855 -0.0375283 -0.0352232 -0.0319844 -0.0277818 -0.0226648 -0.016793 -0.0104488 -0.00405207 0.00185524 0.00665575 0.00974174 0.0106289 0.00906144 0.00504769 -0.0216117 -0.0238417 -0.0258203 -0.0274637 -0.0287601 -0.0297486 -0.0304959 -0.0310778 -0.0315661 -0.0320227 -0.0324985 -0.0330305 -0.0336476 -0.0343697 -0.0352092 -0.0361709 -0.0372515 -0.0384375 -0.0397032 -0.0410075 -0.0422926 -0.0434762 -0.0444557 -0.0451061 -0.0452825 -0.0448261 -0.0435746 -0.0413763 -0.03811 -0.0337086 -0.0281876 -0.021679 -0.014459 -0.00697303 0.000164343 0.00620765 0.0103722 0.0119774 0.0106026 0.00616427 -0.025047 -0.0275065 -0.0296276 -0.0313122 -0.0325598 -0.0334351 -0.0340344 -0.034459 -0.0348006 -0.0351343 -0.0355196 -0.0359967 -0.0365972 -0.037342 -0.0382436 -0.0393068 -0.040528 -0.0418928 -0.0433742 -0.0449283 -0.046494 -0.0479806 -0.049277 -0.0502456 -0.050725 -0.0505359 -0.0494904 -0.0474072 -0.0441299 -0.0395531 -0.033653 -0.026523 -0.0184164 -0.0097836 -0.00129413 0.00618264 0.0116638 0.0142212 0.0131994 0.00836434 -0.02898 -0.0317224 -0.0339963 -0.0356895 -0.0368247 -0.0375073 -0.0378756 -0.0380653 -0.0381916 -0.0383442 -0.0385906 -0.0389731 -0.039524 -0.0402634 -0.0412025 -0.0423447 -0.0436844 -0.0452054 -0.046878 -0.0486547 -0.0504706 -0.052226 -0.0538016 -0.0550478 -0.0557883 -0.0558253 -0.0549487 -0.0529504 -0.0496431 -0.0448849 -0.0386118 -0.0308721 -0.0218808 -0.01207 -0.00213599 0.00694723 0.0139915 0.0177719 0.017311 0.0121365 -0.0335112 -0.0366087 -0.0390397 -0.0406837 -0.0416087 -0.0419847 -0.0420098 -0.0418637 -0.0416895 -0.0415912 -0.0416422 -0.0418845 -0.0423483 -0.0430503 -0.0439982 -0.0451917 -0.0466217 -0.0482683 -0.0500974 -0.0520565 -0.0540758 -0.0560457 -0.0578382 -0.0592923 -0.0602177 -0.0604002 -0.0596106 -0.0576186 -0.054211 -0.0492155 -0.0425323 -0.0341643 -0.0242793 -0.0132687 -0.00182218 0.00901766 0.0178715 0.0231809 0.023545 0.0181255 -0.0387894 -0.0423384 -0.0449142 -0.0464079 -0.0469732 -0.0468816 -0.0464141 -0.0458056 -0.0452288 -0.0447997 -0.0445934 -0.0446469 -0.0449845 -0.0456161 -0.0465427 -0.0477576 -0.0492461 -0.0509821 -0.0529252 -0.0550163 -0.0571786 -0.0592913 -0.061217 -0.0627828 -0.0637847 -0.0639932 -0.0631627 -0.0610444 -0.0574051 -0.0520493 -0.0448503 -0.0357721 -0.0249359 -0.0126791 0.000348797 0.0130837 0.0239941 0.0311761 0.0326992 0.0271776 -0.0450455 -0.0491704 -0.0518398 -0.0530079 -0.052986 -0.0522017 -0.0510478 -0.0498227 -0.0487264 -0.0478802 -0.0473532 -0.047171 -0.0473461 -0.0478769 -0.048754 -0.0499617 -0.0514762 -0.0532632 -0.0552739 -0.0574396 -0.0596753 -0.0618468 -0.0638059 -0.0653666 -0.0663107 -0.0663936 -0.0653536 -0.0629258 -0.0588606 -0.0529459 -0.0450373 -0.035072 -0.0231345 -0.00950728 0.00522234 0.0200181 0.0332562 0.0427086 0.04582 0.0404091 -0.052653 -0.0575021 -0.0601289 -0.0606688 -0.0597156 -0.0579294 -0.0558438 -0.0538216 -0.0520794 -0.0507298 -0.0498238 -0.0493659 -0.0493496 -0.0497563 -0.0505619 -0.0517379 -0.0532491 -0.0550502 -0.0570812 -0.0592623 -0.0614972 -0.0636371 -0.0655212 -0.0669485 -0.0676852 -0.0674702 -0.0660247 -0.0630667 -0.0583301 -0.051588 -0.0426839 -0.0315387 -0.0182149 -0.00295242 0.0137284 0.0308565 0.0467836 0.0590111 0.0642903 0.0593178 -0.0622434 -0.0679599 -0.070226 -0.0696174 -0.0672177 -0.0640138 -0.060697 -0.0576773 -0.0551617 -0.0532313 -0.0519008 -0.0511412 -0.0509177 -0.0511882 -0.0519099 -0.0530378 -0.0545225 -0.0563051 -0.0583125 -0.0604516 -0.062613 -0.0646318 -0.0663326 -0.0674978 -0.0678761 -0.0671876 -0.0651333 -0.0614101 -0.0557305 -0.0478474 -0.0375878 -0.0248575 -0.00970536 0.00765582 0.0267624 0.0467248 0.0659273 0.0816682 0.0899663 0.0859826 -0.0749343 -0.0815505 -0.0827542 -0.0801089 -0.075504 -0.0703401 -0.0654431 -0.0612181 -0.057815 -0.0552478 -0.0534702 -0.0524041 -0.0519762 -0.0521148 -0.0527531 -0.0538273 -0.055271 -0.0570102 -0.0589571 -0.061004 -0.0630268 -0.0648437 -0.0662635 -0.067051 -0.0669356 -0.065616 -0.0627692 -0.0580647 -0.0511842 -0.0418467 -0.0298451 -0.0150522 0.00250988 0.0226581 0.0449793 0.0686711 0.0921897 0.112684 0.125397 0.123431 -0.0928052 -0.0999108 -0.0985487 -0.0923704 -0.0844739 -0.0766728 -0.0698157 -0.0641952 -0.0598263 -0.0566053 -0.0543942 -0.0530481 -0.0524444 -0.0524757 -0.0530483 -0.0540769 -0.0554774 -0.0571597 -0.0590208 -0.0609378 -0.0627719 -0.064325 -0.0653895 -0.0657126 -0.065004 -0.0629396 -0.059169 -0.0533279 -0.0450549 -0.0340155 -0.019938 -0.00262079 0.0179917 0.0417955 0.0684683 0.0973354 0.12699 0.154486 0.17416 0.176332 -0.119947 -0.125685 -0.118602 -0.106436 -0.0937569 -0.0825304 -0.0733529 -0.0662138 -0.0608769 -0.0570547 -0.0544816 -0.0529278 -0.0522128 -0.0521894 -0.0527361 -0.0537461 -0.055118 -0.0567464 -0.0585144 -0.0602852 -0.0619059 -0.0631644 -0.0638385 -0.0636592 -0.0623178 -0.0594682 -0.0547319 -0.0477061 -0.037977 -0.025136 -0.00880963 0.0113385 0.0355344 0.0638766 0.0962789 0.132363 0.17109 0.209653 0.241292 0.252264 -0.164907 -0.162928 -0.143686 -0.121682 -0.102324 -0.086896 -0.0751966 -0.0665994 -0.0604538 -0.0562103 -0.0534422 -0.0518232 -0.0511131 -0.051127 -0.0517186 -0.0527632 -0.0541457 -0.0557488 -0.0574444 -0.0590852 -0.0605072 -0.0614886 -0.0617955 -0.0611467 -0.0592192 -0.0556488 -0.0500316 -0.0419281 -0.0308687 -0.0163594 0.00210477 0.025054 0.0529996 0.0864375 0.125814 0.171469 0.223375 0.279859 0.333527 0.364054 -0.246612 -0.216794 -0.172876 -0.135465 -0.107509 -0.0876201 -0.0737607 -0.0642195 -0.0577501 -0.0534886 -0.050844 -0.0494063 -0.0488903 -0.0490875 -0.0498378 -0.051008 -0.0524763 -0.0541201 -0.0558059 -0.0573815 -0.0586762 -0.0594652 -0.0595079 -0.0585172 -0.0561621 -0.0520674 -0.0458122 -0.0369289 -0.0249007 -0.00915513 0.0109457 0.0361485 0.0673266 0.105564 0.152241 0.20916 0.278646 0.362886 0.457985 0.534412 -0.407676 -0.288907 -0.197656 -0.139196 -0.103117 -0.0806886 -0.0665039 -0.0574346 -0.0516656 -0.0481148 -0.0461151 -0.0452372 -0.0451965 -0.0457916 -0.0468705 -0.0483072 -0.0499857 -0.0517877 -0.0535831 -0.0552224 -0.056535 -0.0573015 -0.0572814 -0.0561888 -0.0536937 -0.0494194 -0.04294 -0.0337759 -0.0213854 -0.00514803 0.0156645 0.0419595 0.0749182 0.11621 0.168361 0.235419 0.324126 0.445721 0.613967 0.806934 -0.746998 -0.339315 -0.180819 -0.112373 -0.0788784 -0.0608438 -0.0505364 -0.0445073 -0.0410572 -0.0392763 -0.038642 -0.0388331 -0.0396418 -0.0409217 -0.0425604 -0.0444612 -0.0465305 -0.0486675 -0.0507566 -0.0526609 -0.0542186 -0.0552251 -0.0554471 -0.0546088 -0.0523895 -0.0484219 -0.0422885 -0.0335172 -0.0215717 -0.0058342 0.0144292 0.040141 0.0725379 0.11345 0.165899 0.235534 0.334276 0.489194 0.758391 1.25793 0 0 0 0 0 0 0 0 0 0 0 0 0 0 0 0 0 0 0 0 0 0 0 0 0 0 0 0 0 0 0 0 0 0 0 0 0 0 0 0 -0.00296043 -0.00334428 -0.00384809 -0.00431546 -0.00470928 -0.00501848 -0.00523844 -0.00536697 -0.00540354 -0.00534904 -0.00520561 -0.0049765 -0.00466587 -0.00427872 -0.00382086 -0.00329885 -0.00272008 -0.00209275 -0.00142594 -0.000729672 -1.49133e-05 0.000706527 0.00142215 0.00211885 0.00278315 0.0034016 0.00396105 0.00444914 0.00485466 0.00516801 0.00538155 0.00548993 0.00549034 0.00538253 0.00516876 0.00485367 0.0044448 0.00395645 0.00343026 0.00303364 -0.00364781 -0.00376342 -0.00404911 -0.00437148 -0.00466838 -0.0049106 -0.00508356 -0.00517974 -0.00519555 -0.00512986 -0.0049834 -0.00475822 -0.00445746 -0.00408528 -0.00364673 -0.00314773 -0.00259511 -0.00199656 -0.00136075 -0.000697255 -1.66563e-05 0.00066968 0.00134977 0.00201105 0.00264068 0.00322591 0.00375444 0.00421484 0.004597 0.00489257 0.00509534 0.00520166 0.00521081 0.00512526 0.00495129 0.00470004 0.00439041 0.00405651 0.00376619 0.00366092 -0.00392399 -0.00401188 -0.00421227 -0.00445155 -0.00468083 -0.00487094 -0.00500496 -0.00507326 -0.00507062 -0.00499469 -0.00484514 -0.00462309 -0.00433076 -0.00397146 -0.00354946 -0.00306992 -0.00253898 -0.0019637 -0.00135218 -0.000713488 -5.77649e-05 0.000604025 0.0012603 0.00189879 0.00250699 0.00307243 0.00358315 0.00402811 0.00439774 0.00468436 0.00488269 0.0049903 0.00500815 0.00494088 0.00479762 0.00459316 0.00435027 0.00410411 0.00390892 0.00384218 -0.00401254 -0.00414732 -0.00433503 -0.00454023 -0.00473205 -0.00488836 -0.00499469 -0.00504202 -0.00502507 -0.00494113 -0.00478936 -0.00457022 -0.0042852 -0.00393683 -0.00352858 -0.00306485 -0.00255098 -0.00199337 -0.00139944 -0.000777734 -0.000137962 0.000509244 0.00115255 0.0017798 0.00237846 0.00293601 0.00344037 0.00388044 0.00424663 0.00453149 0.00473015 0.00484095 0.00486593 0.00481112 0.00468712 0.00450974 0.00430092 0.00408977 0.00391242 0.00380654 -0.00402999 -0.00423064 -0.00443992 -0.00464223 -0.00482019 -0.00495946 -0.00504962 -0.00508376 -0.00505759 -0.00496872 -0.00481626 -0.00460032 -0.00432183 -0.00398266 -0.00358551 -0.00313398 -0.00263265 -0.00208717 -0.0015043 -0.000892024 -0.000259666 0.000382394 0.00102292 0.00164966 0.00224978 0.00281035 0.00331878 0.00376345 0.00413434 0.00442371 0.00462667 0.00474181 0.00477171 0.00472307 0.00460696 0.00443877 0.00423801 0.00402734 0.00383017 0.00366495 -0.00404043 -0.00430824 -0.00455372 -0.00477101 -0.00495143 -0.00508687 -0.005171 -0.00519941 -0.00516926 -0.0050789 -0.00492771 -0.00471565 -0.00444328 -0.00411186 -0.00372339 -0.00328073 -0.00278