# vtk DataFile Version 2.0
Velocidades
ASCII

DATASET STRUCTURED_GRID
DIMENSIONS   40   40   20

POINTS   32000   double
0.0125   0.0125   0.025
0.0125   0.0375   0.025
0.0125   0.0625   0.025
0.0125   0.0875   0.025
0.0125   0.1125   0.025
0.0125   0.1375   0.025
0.0125   0.1625   0.025
0.0125   0.1875   0.025
0.0125   0.2125   0.025
0.0125   0.2375   0.025
0.0125   0.2625   0.025
0.0125   0.2875   0.025
0.0125   0.3125   0.025
0.0125   0.3375   0.025
0.0125   0.3625   0.025
0.0125   0.3875   0.025
0.0125   0.4125   0.025
0.0125   0.4375   0.025
0.0125   0.4625   0.025
0.0125   0.4875   0.025
0.0125   0.5125   0.025
0.0125   0.5375   0.025
0.0125   0.5625   0.025
0.0125   0.5875   0.025
0.0125   0.6125   0.025
0.0125   0.6375   0.025
0.0125   0.6625   0.025
0.0125   0.6875   0.025
0.0125   0.7125   0.025
0.0125   0.7375   0.025
0.0125   0.7625   0.025
0.0125   0.7875   0.025
0.0125   0.8125   0.025
0.0125   0.8375   0.025
0.0125   0.8625   0.025
0.0125   0.8875   0.025
0.0125   0.9125   0.025
0.0125   0.9375   0.025
0.0125   0.9625   0.025
0.0125   0.9875   0.025
0.0375   0.0125   0.025
0.0375   0.0375   0.025
0.0375   0.0625   0.025
0.0375   0.0875   0.025
0.0375   0.1125   0.025
0.0375   0.1375   0.025
0.0375   0.1625   0.025
0.0375   0.1875   0.025
0.0375   0.2125   0.025
0.0375   0.2375   0.025
0.0375   0.2625   0.025
0.0375   0.2875   0.025
0.0375   0.3125   0.025
0.0375   0.3375   0.025
0.0375   0.3625   0.025
0.0375   0.3875   0.025
0.0375   0.4125   0.025
0.0375   0.4375   0.025
0.0375   0.4625   0.025
0.0375   0.4875   0.025
0.0375   0.5125   0.025
0.0375   0.5375   0.025
0.0375   0.5625   0.025
0.0375   0.5875   0.025
0.0375   0.6125   0.025
0.0375   0.6375   0.025
0.0375   0.6625   0.025
0.0375   0.6875   0.025
0.0375   0.7125   0.025
0.0375   0.7375   0.025
0.0375   0.7625   0.025
0.0375   0.7875   0.025
0.0375   0.8125   0.025
0.0375   0.8375   0.025
0.0375   0.8625   0.025
0.0375   0.8875   0.025
0.0375   0.9125   0.025
0.0375   0.9375   0.025
0.0375   0.9625   0.025
0.0375   0.9875   0.025
0.0625   0.0125   0.025
0.0625   0.0375   0.025
0.0625   0.0625   0.025
0.0625   0.0875   0.025
0.0625   0.1125   0.025
0.0625   0.1375   0.025
0.0625   0.1625   0.025
0.0625   0.1875   0.025
0.0625   0.2125   0.025
0.0625   0.2375   0.025
0.0625   0.2625   0.025
0.0625   0.2875   0.025
0.0625   0.3125   0.025
0.0625   0.3375   0.025
0.0625   0.3625   0.025
0.0625   0.3875   0.025
0.0625   0.4125   0.025
0.0625   0.4375   0.025
0.0625   0.4625   0.025
0.0625   0.4875   0.025
0.0625   0.5125   0.025
0.0625   0.5375   0.025
0.0625   0.5625   0.025
0.0625   0.5875   0.025
0.0625   0.6125   0.025
0.0625   0.6375   0.025
0.0625   0.6625   0.025
0.0625   0.6875   0.025
0.0625   0.7125   0.025
0.0625   0.7375   0.025
0.0625   0.7625   0.025
0.0625   0.7875   0.025
0.0625   0.8125   0.025
0.0625   0.8375   0.025
0.0625   0.8625   0.025
0.0625   0.8875   0.025
0.0625   0.9125   0.025
0.0625   0.9375   0.025
0.0625   0.9625   0.025
0.0625   0.9875   0.025
0.0875   0.0125   0.025
0.0875   0.0375   0.025
0.0875   0.0625   0.025
0.0875   0.0875   0.025
0.0875   0.1125   0.025
0.0875   0.1375   0.025
0.0875   0.1625   0.025
0.0875   0.1875   0.025
0.0875   0.2125   0.025
0.0875   0.2375   0.025
0.0875   0.2625   0.025
0.0875   0.2875   0.025
0.0875   0.3125   0.025
0.0875   0.3375   0.025
0.0875   0.3625   0.025
0.0875   0.3875   0.025
0.0875   0.4125   0.025
0.0875   0.4375   0.025
0.0875   0.4625   0.025
0.0875   0.4875   0.025
0.0875   0.5125   0.025
0.0875   0.5375   0.025
0.0875   0.5625   0.025
0.0875   0.5875   0.025
0.0875   0.6125   0.025
0.0875   0.6375   0.025
0.0875   0.6625   0.025
0.0875   0.6875   0.025
0.0875   0.7125   0.025
0.0875   0.7375   0.025
0.0875   0.7625   0.025
0.0875   0.7875   0.025
0.0875   0.8125   0.025
0.0875   0.8375   0.025
0.0875   0.8625   0.025
0.0875   0.8875   0.025
0.0875   0.9125   0.025
0.0875   0.9375   0.025
0.0875   0.9625   0.025
0.0875   0.9875   0.025
0.1125   0.0125   0.025
0.1125   0.0375   0.025
0.1125   0.0625   0.025
0.1125   0.0875   0.025
0.1125   0.1125   0.025
0.1125   0.1375   0.025
0.1125   0.1625   0.025
0.1125   0.1875   0.025
0.1125   0.2125   0.025
0.1125   0.2375   0.025
0.1125   0.2625   0.025
0.1125   0.2875   0.025
0.1125   0.3125   0.025
0.1125   0.3375   0.025
0.1125   0.3625   0.025
0.1125   0.3875   0.025
0.1125   0.4125   0.025
0.1125   0.4375   0.025
0.1125   0.4625   0.025
0.1125   0.4875   0.025
0.1125   0.5125   0.025
0.1125   0.5375   0.025
0.1125   0.5625   0.025
0.1125   0.5875   0.025
0.1125   0.6125   0.025
0.1125   0.6375   0.025
0.1125   0.6625   0.025
0.1125   0.6875   0.025
0.1125   0.7125   0.025
0.1125   0.7375   0.025
0.1125   0.7625   0.025
0.1125   0.7875   0.025
0.1125   0.8125   0.025
0.1125   0.8375   0.025
0.1125   0.8625   0.025
0.1125   0.8875   0.025
0.1125   0.9125   0.025
0.1125   0.9375   0.025
0.1125   0.9625   0.025
0.1125   0.9875   0.025
0.1375   0.0125   0.025
0.1375   0.0375   0.025
0.1375   0.0625   0.025
0.1375   0.0875   0.025
0.1375   0.1125   0.025
0.1375   0.1375   0.025
0.1375   0.1625   0.025
0.1375   0.1875   0.025
0.1375   0.2125   0.025
0.1375   0.2375   0.025
0.1375   0.2625   0.025
0.1375   0.2875   0.025
0.1375   0.3125   0.025
0.1375   0.3375   0.025
0.1375   0.3625   0.025
0.1375   0.3875   0.025
0.1375   0.4125   0.025
0.1375   0.4375   0.025
0.1375   0.4625   0.025
0.1375   0.4875   0.025
0.1375   0.5125   0.025
0.1375   0.5375   0.025
0.1375   0.5625   0.025
0.1375   0.5875   0.025
0.1375   0.6125   0.025
0.1375   0.6375   0.025
0.1375   0.6625   0.025
0.1375   0.6875   0.025
0.1375   0.7125   0.025
0.1375   0.7375   0.025
0.1375   0.7625   0.025
0.1375   0.7875   0.025
0.1375   0.8125   0.025
0.1375   0.8375   0.025
0.1375   0.8625   0.025
0.1375   0.8875   0.025
0.1375   0.9125   0.025
0.1375   0.9375   0.025
0.1375   0.9625   0.025
0.1375   0.9875   0.025
0.1625   0.0125   0.025
0.1625   0.0375   0.025
0.1625   0.0625   0.025
0.1625   0.0875   0.025
0.1625   0.1125   0.025
0.1625   0.1375   0.025
0.1625   0.1625   0.025
0.1625   0.1875   0.025
0.1625   0.2125   0.025
0.1625   0.2375   0.025
0.1625   0.2625   0.025
0.1625   0.2875   0.025
0.1625   0.3125   0.025
0.1625   0.3375   0.025
0.1625   0.3625   0.025
0.1625   0.3875   0.025
0.1625   0.4125   0.025
0.1625   0.4375   0.025
0.1625   0.4625   0.025
0.1625   0.4875   0.025
0.1625   0.5125   0.025
0.1625   0.5375   0.025
0.1625   0.5625   0.025
0.1625   0.5875   0.025
0.1625   0.6125   0.025
0.1625   0.6375   0.025
0.1625   0.6625   0.025
0.1625   0.6875   0.025
0.1625   0.7125   0.025
0.1625   0.7375   0.025
0.1625   0.7625   0.025
0.1625   0.7875   0.025
0.1625   0.8125   0.025
0.1625   0.8375   0.025
0.1625   0.8625   0.025
0.1625   0.8875   0.025
0.1625   0.9125   0.025
0.1625   0.9375   0.025
0.1625   0.9625   0.025
0.1625   0.9875   0.025
0.1875   0.0125   0.025
0.1875   0.0375   0.025
0.1875   0.0625   0.025
0.1875   0.0875   0.025
0.1875   0.1125   0.025
0.1875   0.1375   0.025
0.1875   0.1625   0.025
0.1875   0.1875   0.025
0.1875   0.2125   0.025
0.1875   0.2375   0.025
0.1875   0.2625   0.025
0.1875   0.2875   0.025
0.1875   0.3125   0.025
0.1875   0.3375   0.025
0.1875   0.3625   0.025
0.1875   0.3875   0.025
0.1875   0.4125   0.025
0.1875   0.4375   0.025
0.1875   0.4625   0.025
0.1875   0.4875   0.025
0.1875   0.5125   0.025
0.1875   0.5375   0.025
0.1875   0.5625   0.025
0.1875   0.5875   0.025
0.1875   0.6125   0.025
0.1875   0.6375   0.025
0.1875   0.6625   0.025
0.1875   0.6875   0.025
0.1875   0.7125   0.025
0.1875   0.7375   0.025
0.1875   0.7625   0.025
0.1875   0.7875   0.025
0.1875   0.8125   0.025
0.1875   0.8375   0.025
0.1875   0.8625   0.025
0.1875   0.8875   0.025
0.1875   0.9125   0.025
0.1875   0.9375   0.025
0.1875   0.9625   0.025
0.1875   0.9875   0.025
0.2125   0.0125   0.025
0.2125   0.0375   0.025
0.2125   0.0625   0.025
0.2125   0.0875   0.025
0.2125   0.1125   0.025
0.2125   0.1375   0.025
0.2125   0.1625   0.025
0.2125   0.1875   0.025
0.2125   0.2125   0.025
0.2125   0.2375   0.025
0.2125   0.2625   0.025
0.2125   0.2875   0.025
0.2125   0.3125   0.025
0.2125   0.3375   0.025
0.2125   0.3625   0.025
0.2125   0.3875   0.025
0.2125   0.4125   0.025
0.2125   0.4375   0.025
0.2125   0.4625   0.025
0.2125   0.4875   0.025
0.2125   0.5125   0.025
0.2125   0.5375   0.025
0.2125   0.5625   0.025
0.2125   0.5875   0.025
0.2125   0.6125   0.025
0.2125   0.6375   0.025
0.2125   0.6625   0.025
0.2125   0.6875   0.025
0.2125   0.7125   0.025
0.2125   0.7375   0.025
0.2125   0.7625   0.025
0.2125   0.7875   0.025
0.2125   0.8125   0.025
0.2125   0.8375   0.025
0.2125   0.8625   0.025
0.2125   0.8875   0.025
0.2125   0.9125   0.025
0.2125   0.9375   0.025
0.2125   0.9625   0.025
0.2125   0.9875   0.025
0.2375   0.0125   0.025
0.2375   0.0375   0.025
0.2375   0.0625   0.025
0.2375   0.0875   0.025
0.2375   0.1125   0.025
0.2375   0.1375   0.025
0.2375   0.1625   0.025
0.2375   0.1875   0.025
0.2375   0.2125   0.025
0.2375   0.2375   0.025
0.2375   0.2625   0.025
0.2375   0.2875   0.025
0.2375   0.3125   0.025
0.2375   0.3375   0.025
0.2375   0.3625   0.025
0.2375   0.3875   0.025
0.2375   0.4125   0.025
0.2375   0.4375   0.025
0.2375   0.4625   0.025
0.2375   0.4875   0.025
0.2375   0.5125   0.025
0.2375   0.5375   0.025
0.2375   0.5625   0.025
0.2375   0.5875   0.025
0.2375   0.6125   0.025
0.2375   0.6375   0.025
0.2375   0.6625   0.025
0.2375   0.6875   0.025
0.2375   0.7125   0.025
0.2375   0.7375   0.025
0.2375   0.7625   0.025
0.2375   0.7875   0.025
0.2375   0.8125   0.025
0.2375   0.8375   0.025
0.2375   0.8625   0.025
0.2375   0.8875   0.025
0.2375   0.9125   0.025
0.2375   0.9375   0.025
0.2375   0.9625   0.025
0.2375   0.9875   0.025
0.2625   0.0125   0.025
0.2625   0.0375   0.025
0.2625   0.0625   0.025
0.2625   0.0875   0.025
0.2625   0.1125   0.025
0.2625   0.1375   0.025
0.2625   0.1625   0.025
0.2625   0.1875   0.025
0.2625   0.2125   0.025
0.2625   0.2375   0.025
0.2625   0.2625   0.025
[...]
POINT_DATA   32000
VECTORS Velocidades double

8.69752e-06 0 0
2.65291e-05 0 0
4.57157e-05 0 0
6.7193e-05 0 0
9.19218e-05 0 0
0.000120894 0 0
0.000155134 0 0
0.000195703 0 0
0.000243692 0 0
0.000300217 0 0
0.000366415 0 0
0.000443431 0 0
0.000532417 0 0
0.000634532 0 0
0.000750946 0 0
0.000882869 0 0
0.00103158 0 0
0.00119851 0 0
0.00138531 0 0
0.00159396 0 0
0.00182702 0 0
0.00208775 0 0
0.00238047 0 0
0.00271094 0 0
0.00308693 0 0
0.00351893 0 0
0.00402136 0 0
0.0046142 0 0
0.00532566 0 0
0.00619639 0 0
0.00728657 0 0
0.00868836 0 0
0.0105491 0 0
0.0131173 0 0
0.0168421 0 0
0.0226108 0 0
0.03239 0 0
0.051243 0 0
0.0949519 0 0
0.225921 0 0
2.47587e-05 0 0
7.55197e-05 0 0
0.000130142 0 0
0.000191293 0 0
0.000261712 0 0
0.000344227 0 0
0.000441763 0 0
0.000557346 0 0
0.000694093 0 0
0.000855195 0 0
0.0010439 0 0
0.00126349 0 0
0.00151726 0 0
0.00180854 0 0
0.00214068 0 0
0.00251717 0 0
0.00294168 0 0
0.00341831 0 0
0.0039518 0 0
0.00454792 0 0
0.00521392 0 0
0.00595923 0 0
0.00679628 0 0
0.00774164 0 0
0.00881759 0 0
0.0100543 0 0
0.0114933 0 0
0.0131918 0 0
0.015231 0 0
0.0177274 0 0
0.0208537 0 0
0.0248734 0 0
0.0302061 0 0
0.0375548 0 0
0.0481751 0 0
0.0644932 0 0
0.0916901 0 0
0.14228 0 0
0.251405 0 0
0.536609 0 0
3.86141e-05 0 0
0.000117784 0 0
0.00020299 0 0
0.000298401 0 0
0.000408302 0 0
0.000537118 0 0
0.000689432 0 0
0.000869985 0 0
0.00108367 0 0
0.00133549 0 0
0.00163057 0 0
0.00197406 0 0
0.00237118 0 0
0.00282716 0 0
0.00334734 0 0
0.0039372 0 0
0.0046026 0 0
0.00535001 0 0
0.00618696 0 0
0.00712256 0 0
0.00816834 0 0
0.00933922 0 0
0.0106549 0 0
0.0121416 0 0
0.0138346 0 0
0.0157817 0 0
0.0180484 0 0
0.0207254 0 0
0.0239406 0 0
0.0278778 0 0
0.0328082 0 0
0.0391438 0 0
0.0475361 0 0
0.059063 0 0
0.0756111 0 0
0.100711 0 0
0.141509 0 0
0.213815 0 0
0.355914 0 0
0.665392 0 0
5.09896e-05 0 0
0.000155539 0 0
0.000268082 0 0
0.000394145 0 0
0.000539406 0 0
0.000709738 0 0
0.000911224 0 0
0.00115017 0 0
0.00143308 0 0
0.00176664 0 0
0.00215766 0 0
0.00261306 0 0
0.00313981 0 0
0.00374494 0 0
0.00443561 0 0
0.00521921 0 0
0.00610361 0 0
0.00709753 0 0
0.00821106 0 0
0.00945646 0 0
0.0108492 0 0
0.0124093 0 0
0.0141632 0 0
0.0161461 0 0
0.0184054 0 0
0.021005 0 0
0.0240326 0 0
0.0276095 0 0
0.0319061 0 0
0.0371669 0 0
0.0437508 0 0
0.0521998 0 0
0.0633617 0 0
0.078619 0 0
0.100337 0 0
0.132797 0 0
0.184232 0 0
0.271497 0 0
0.430676 0 0
0.735726 0 0
6.23071e-05 0 0
0.000190072 0 0
0.000327641 0 0
0.000481796 0 0
0.000659509 0 0
0.000867996 0 0
0.00111474 0 0
0.00140751 0 0
0.00175433 0 0
0.00216345 0 0
0.00264332 0 0
0.00320249 0 0
0.00384963 0 0
0.00459348 0 0
0.00544297 0 0
0.0064073 0 0
0.00749628 0 0
0.00872076 0 0
0.0100933 0 0
0.0116291 0 0
0.0133474 0 0
0.0152729 0 0
0.0174385 0 0
0.0198878 0 0
0.0226796 0 0
0.025893 0 0
0.0296361 0 0
0.0340585 0 0
0.0393695 0 0
0.0458687 0 0
0.0539926 0 0
0.064396 0 0
0.0780915 0 0
0.096704 0 0
0.122952 0 0
0.161599 0 0
0.221393 0 0
0.319062 0 0
0.48682 0 0
0.77924 0 0
7.28201e-05 0 0
0.000222158 0 0
0.000383004 0 0
0.000563323 0 0
0.000771311 0 0
0.00101545 0 0
0.00130457 0 0
0.00164781 0 0
0.00205466 0 0
0.00253489 0 0
0.0030985 0 0
0.00375564 0 0
0.00451663 0 0
0.00539188 0 0
0.00639203 0 0
0.00752808 0 0
0.00881171 0 0
0.0102559 0 0
0.0118754 0 0
0.0136884 0 0
0.0157175 0 0
0.0179921 0 0
0.020551 0 0
0.0234458 0 0
0.026746 0 0
0.030545 0 0
0.0349699 0 0
0.0401963 0 0
0.0464692 0 0
0.0541374 0 0
0.0637065 0 0
0.075928 0 0
0.0919509 0 0
0.11359 0 0
0.143815 0 0
0.187679 0 0
0.254075 0 0
0.359008 0 0
0.530515 0 0
0.808429 0 0
8.26848e-05 0 0
0.000252273 0 0
0.000434993 0 0
0.00063994 0 0
0.000876479 0 0
0.00115431 0 0
0.00148354 0 0
0.00187467 0 0
0.00233858 0 0
0.00288652 0 0
0.00353 0 0
0.00428078 0 0
0.00515076 0 0
0.00615202 0 0
0.0072969 0 0
0.00859816 0 0
0.0100694 0 0
0.0117254 0 0
0.0135836 0 0
0.0156646 0 0
0.0179943 0 0
0.0206063 0 0
0.0235451 0 0
0.0268699 0 0
0.0306604 0 0
0.0350232 0 0
0.0401031 0 0
0.0460994 0 0
0.0532896 0 0
0.0620667 0 0
0.0729967 0 0
0.0869139 0 0
0.105079 0 0
0.129451 0 0
0.163176 0 0
0.211451 0 0
0.283084 0 0
0.393066 0 0
0.565486 0 0
0.829223 0 0
9.19975e-05 0 0
0.000280711 0 0
0.000484119 0 0
0.0007124 0 0
0.000976046 0 0
0.00128594 0 0
0.00165343 0 0
0.00209033 0 0
0.00260889 0 0
0.00322181 0 0
0.00394212 0 0
0.00478311 0 0
0.0057583 0 0
0.00688143 0 0
0.00816652 0 0
0.00962808 0 0
0.0112816 0 0
0.0131439 0 0
0.0152346 0 0
0.017577 0 0
0.0202 0 0
0.0231413 0 0
0.0264503 0 0
0.0301935 0 0
0.0344602 0 0
0.0393693 0 0
0.0450819 0 0
0.0518188 0 0
0.0598871 0 0
0.0697189 0 0
0.0819331 0 0
0.0974336 0 0
0.117571 0 0
0.144416 0 0
0.181224 0 0
0.23324 0 0
0.309036 0 0
0.422477 0 0
0.594123 0 0
0.844759 0 0
0.000100816 0 0
0.00030765 0 0
0.000530686 0 0
0.000781155 0 0
0.00107064 0 0
0.00141117 0 0
0.00181531 0 0
0.00229615 0 0
0.00286732 0 0
0.00354293 0 0
0.0043375 0 0
0.00526588 0 0
0.00634319 0 0
0.00758482 0 0
0.00900648 0 0
0.0106245 0 0
0.0124561 0 0
0.0145204 0 0
0.0168391 0 0
0.0194381 0 0
0.0223495 0 0
0.0256146 0 0
0.0292873 0 0
0.0334403 0 0
0.0381725 0 0
0.0436139 0 0
0.0499403 0 0
0.0573923 0 0
0.0663035 0 0
0.0771407 0 0
0.0905685 0 0
0.107549 0 0
0.129506 0 0
0.158588 0 0
0.198116 0 0
0.253308 0 0
0.332416 0 0
0.448158 0 0
0.618025 0 0
0.856821 0 0
0.000109186 0 0
0.000333231 0 0
0.000574939 0 0
0.000846561 0 0
0.00116074 0 0
0.00153065 0 0
0.00197001 0 0
0.00249319 0 0
0.00311517 0 0
0.00385146 0 0
0.00471808 0 0
0.00573142 0 0
0.00690821 0 0
0.00826548 0 0
0.00982066 0 0
0.0115918 0 0
0.0135982 0 0
0.0158609 0 0
0.0184039 0 0
0.0212559 0 0
0.0244526 0 0
0.0280392 0 0
0.0320761 0 0
0.0366463 0 0
0.0418391 0 0
0.0478025 0 0
0.0547279 0 0
0.0628745 0 0
0.0725995 0 0
0.0844006 0 0
0.0989812 0 0
0.117352 0 0
0.140991 0 0
0.172105 0 0
0.214038 0 0
0.271932 0 0
0.353665 0 0
0.470847 0 0
0.638339 0 0
0.866507 0 0
0.000117119 0 0
0.000357485 0 0
0.000616935 0 0
0.000908709 0 0
0.00124649 0 0
0.00164454 0 0
0.00211777 0 0
0.00268178 0 0
0.00335287 0 0
0.00414799 0 0
0.00508461 0 0
0.00618069 0 0
0.00745455 0 0
0.00892488 0 0
0.0106108 0 0
0.0125322 0 0
0.0147102 0 0
0.017168 0 0
0.0199318 0 0
0.0230333 0 0
0.0265115 0 0
0.0304163 0 0
0.0348137 0 0
0.0397928 0 0
0.0454401 0 0
0.0519159 0 0
0.0594262 0 0
0.0682476 0 0
0.0787588 0 0
0.0914846 0 0
0.107162 0 0
0.12684 0 0
0.152041 0 0
0.185004 0 0
0.229073 0 0
0.289272 0 0
0.373082 0 0
0.491069 0 0
0.655853 0 0
0.874487 0 0
0.000124596 0 0
0.00038036 0 0
0.000656584 0 0
0.000967475 0 0
0.00132773 0 0
0.00175268 0 0
0.00225838 0 0
0.00286169 0 0
0.00358022 0 0
0.00443231 0 0
0.00543693 0 0
0.00661358 0 0
0.00798218 0 0
0.00956309 0 0
0.0113772 0 0
0.013446 0 0
0.0157926 0 0
0.018442 0 0
0.021423 0 0
0.0247695 0 0
0.0285236 0 0
0.0327387 0 0
0.0374837 0 0
0.0428472 0 0
0.0489358 0 0
0.0559109 0 0
0.0639896 0 0
0.0734638 0 0
0.0847315 0 0
0.0983413 0 0
0.115058 0 0
0.135965 0 0
0.162614 0 0
0.197264 0 0
0.243233 0 0
0.305407 0 0
0.390857 0 0
0.509184 0 0
0.671105 0 0
0.881186 0 0
0.000131606 0 0
0.000401819 0 0
0.000693827 0 0
0.00102277 0 0
0.00140434 0 0
0.00185492 0 0
0.0023917 0 0
0.00303276 0 0
0.00379702 0 0
0.00470423 0 0
0.00577484 0 0
0.0070299 0 0
0.00849096 0 0
0.01018 0 0
0.0121196 0 0
0.0143331 0 0
0.0168452 0 0
0.019683 0 0
0.0228772 0 0
0.0264639 0 0
0.0304877 0 0
0.0350047 0 0
0.0400866 0 0
0.0458257 0 0
0.0523418 0 0
0.0598017 0 0
0.0684319 0 0
0.0785375 0 0
0.0905335 0 0
0.104989 0 0
0.122694 0 0
0.144755 0 0
0.172749 0 0
0.208939 0 0
0.256601 0 0
0.320467 0 0
0.407204 0 0
0.525522 0 0
0.684529 0 0
0.886909 0 0
0.000138127 0 0
0.000421796 0 0
0.000728551 0 0
0.00107444 0 0
0.00147612 0 0
0.00195099 0 0
0.00251739 0 0
0.00319458 0 0
0.00400281 0 0
0.00496323 0 0
0.00609778 0 0
0.00742907 0 0
0.00898026 0 0
0.010775 0 0
0.0128375 0 0
0.0151929 0 0
0.0178676 0 0
0.0208904 0 0
0.0242938 0 0
0.0281161 0 0
0.032404 0 0
0.037216 0 0
0.0426271 0 0
0.0487347 0 0
0.055667 0 0
0.0635983 0 0
0.0727636 0 0
0.08348 0 0
0.0961773 0 0
0.111443 0 0
0.130085 0 0
0.153234 0 0
0.182478 0 0
0.220076 0 0
0.269251 0 0
0.334567 0 0
0.422298 0 0
0.540347 0 0
0.696452 0 0
0.891871 0 0
0.000144128 0 0
0.000440198 0 0
0.000760596 0 0
0.00112225 0 0
0.00154274 0 0
0.00204051 0 0
0.00263496 0 0
0.00334657 0 0
0.00419691 0 0
0.00520852 0 0
0.00640485 0 0
0.00781008 0 0
0.00944901 0 0
0.011347 0 0
0.0135298 0 0
0.0160243 0 0
0.0188586 0 0
0.0220632 0 0
0.0256723 0 0
0.029726 0 0
0.0342731 0 0
0.0393746 0 0
0.0451089 0 0
0.051578 0 0
0.0589171 0 0
0.0673075 0 0
0.0769926 0 0
0.0883002 0 0
0.101673 0 0
0.117714 0 0
0.137249 0 0
0.161422 0 0
0.19183 0 0
0.230717 0 0
0.281243 0 0
0.347802 0 0
0.436289 0 0
0.553873 0 0
0.707129 0 0
0.896226 0 0
0.00014957 0 0
0.000456906 0 0
0.000789759 0 0
0.0011659 0 0
0.00160383 0 0
0.00212295 0 0
0.00274377 0 0
0.00348796 0 0
0.00437839 0 0
0.00543902 0 0
0.00669483 0 0
0.00817159 0 0
0.00989575 0 0
0.0118943 0 0
0.0141949 0 0
0.0168258 0 0
0.0198169 0 0
0.0232003 0 0
0.0270118 0 0
0.0312934 0 0
0.0360956 0 0
0.0414821 0 0
0.0475344 0 0
0.0543588 0 0
0.0620962 0 0
0.0709346 0 0
0.0811252 0 0
0.0930056 0 0
0.10703 0 0
0.123814 0 0
0.144199 0 0
0.169337 0 0
0.200829 0 0
0.240899 0 0
0.292633 0 0
0.360257 0 0
0.449302 0 0
0.566275 0 0
0.716759 0 0
0.900089 0 0
0.000154408 0 0
0.000471781 0 0
0.000815801 0 0
0.00120505 0 0
0.00165889 0 0
0.0021977 0 0
0.00284305 0 0
0.00361779 0 0
0.00454611 0 0
0.0056534 0 0
0.00696617 0 0
0.00851184 0 0
0.0103186 0 0
0.012415 0 0
0.0148306 0 0
0.0175953 0 0
0.0207405 0 0
0.0242999 0 0
0.0283111 0 0
0.0328174 0 0
0.0378715 0 0
0.0435392 0 0
0.0499049 0 0
0.057079 0 0
0.0652072 0 0
0.0744834 0 0
0.0851663 0 0
0.0976021 0 0
0.112255 0 0
0.129753 0 0
0.150946 0 0
0.176996 0 0
0.209499 0 0
0.250653 0 0
0.303471 0 0
0.372004 0 0
0.461444 0 0
0.577698 0 0
0.725498 0 0
0.903546 0 0
0.000158588 0 0
0.00048466 0 0
0.000838441 0 0
0.00123928 0 0
0.00170737 0 0
0.00226403 0 0
0.00293186 0 0
0.00373492 0 0
0.00469868 0 0
0.00585 0 0
0.00721697 0 0
0.00882869 0 0
0.0107151 0 0
0.0129066 0 0
0.0154343 0 0
0.01833 0 0
0.0216267 0 0
0.0253597 0 0
0.029568 0 0
0.0342967 0 0
0.0396 0 0
0.0455458 0 0
0.0522211 0 0
0.0597399 0 0
0.0682521 0 0
0.0779572 0 0
0.0891202 0 0
0.102095 0 0
0.117356 0 0
0.135538 0 0
0.157501 0 0
0.184412 0 0
0.21786 0 0
0.26001 0 0
0.313798 0 0
0.383107 0 0
0.472806 0 0
0.58826 0 0
0.733476 0 0
0.906663 0 0
0.000162051 0 0
0.00049536 0 0
0.000857363 0 0
0.00126813 0 0
0.00174864 0 0
0.0023211 0 0
0.00300915 0 0
0.003838 0 0
0.00483446 0 0
0.00602686 0 0
0.00744493 0 0
0.00911949 0 0
0.0110823 0 0
0.0133656 0 0
0.0160024 0 0
0.0190263 0 0
0.022472 0 0
0.0263763 0 0
0.0307796 0 0
0.0357286 0 0
0.0412791 0 0
0.0475007 0 0
0.0544828 0 0
0.0623421 0 0
0.0712326 0 0
0.0813585 0 0
0.0929906 0 0
0.10649 0 0
0.122337 0 0
0.141178 0 0
0.163876 0 0
0.191601 0 0
0.22593 0 0
0.268997 0 0
0.323655 0 0
0.393622 0 0
0.483467 0 0
0.598064 0 0
0.740794 0 0
0.909493 0 0
0.000164753 0 0
0.000503747 0 0
0.000872329 0 0
0.00129123 0 0
0.00178217 0 0
0.00236821 0 0
0.00307399 0 0
0.00392586 0 0
0.00495198 0 0
0.00618218 0 0
0.00764785 0 0
0.00938166 0 0
0.0114172 0 0
0.0137889 0 0
0.0165316 0 0
0.0196807 0 0
0.0232727 0 0
0.027346 0 0
0.0319426 0 0
0.0371103 0 0
0.0429066 0 0
0.0494025 0 0
0.0566896 0 0
0.0648875 0 0
0.0741523 0 0
0.0846925 0 0
0.0967844 0 0
0.110795 0 0
0.127212 0 0
0.146686 0 0
0.170087 0 0
0.198582 0 0
0.233736 0 0
0.277647 0 0
0.333084 0 0
0.403607 0 0
0.493501 0 0
0.6072 0 0
0.747542 0 0
0.91208 0 0
0.00016662 0 0
0.000509595 0 0
0.000882947 0 0
0.001308 0 0
0.00180715 0 0
0.00240428 0 0
0.00312496 0 0
0.00399671 0 0
0.00504898 0 0
0.00631319 0 0
0.00782244 0 0
0.00961133 0 0
0.0117155 0 0
0.0141715 0 0
0.0170162 0 0
0.0202871 0 0
0.0240226 0 0
0.0282628 0 0
0.0330509 0 0
0.0384363 0 0
0.0444774 0 0
0.0512469 0 0
0.0588379 0 0
0.0673721 0 0
0.0770075 0 0
0.0879565 0 0
0.1005 0 0
0.115009 0 0
0.131979 0 0
0.152064 0 0
0.176138 0 0
0.205363 0 0
0.241291 0 0
0.285978 0 0
0.342114 0 0
0.413104 0 0
0.502968 0 0
0.615739 0 0
0.75379 0 0
0.914456 0 0
0.000167556 0 0
0.000512607 0 0
0.0008887 0 0
0.00131767 0 0
0.00182253 0 0
0.00242787 0 0
0.00316021 0 0
0.00404815 0 0
0.0051225 0 0
0.00641623 0 0
0.00796427 0 0
0.00980325 0 0
0.011971 0 0
0.0145064 0 0
0.0174486 0 0
0.0208374 0 0
0.0247131 0 0
0.0291176 0 0
0.0340957 0 0
0.0396979 0 0
0.0459835 0 0
0.0530263 0 0
0.0609202 0 0
0.069788 0 0
0.0797909 0 0
0.0911434 0 0
0.10413 0 0
0.119127 0 0
0.136634 0 0
0.157308 0 0
0.182026 0 0
0.211945 0 0
0.248598 0 0
0.294002 0 0
0.350765 0 0
0.422145 0 0
0.511912 0 0
0.623739 0 0
0.759593 0 0
0.916646 0 0
0.000167486 0 0
0.000512555 0 0
0.000889183 0 0
0.00131962 0 0
0.0018274 0 0
0.00243778 0 0
0.0031781 0 0
0.00407805 0 0
0.00516975 0 0
0.00648779 0 0
0.00806898 0 0
0.0099521 0 0
0.0121774 0 0
0.0147862 0 0
0.0178204 0 0
0.0213221 0 0
0.0253341 0 0
0.0299 0 0
0.0350664 0 0
0.0408847 0 0
0.047415 0 0
0.0547316 0 0
0.0629288 0 0
0.0721303 0 0
0.0824988 0 0
0.0942512 0 0
0.107675 0 0
0.12315 0 0
0.141179 0 0
0.162423 0 0
0.187758 0 0
0.218336 0 0
0.25567 0 0
0.301737 0 0
0.359063 0 0
0.430764 0 0
0.52038 0 0
0.631254 0 0
0.765 0 0
0.918675 0 0
0.000166335 0 0
0.000509203 0 0
0.000883975 0 0
0.00131321 0 0
0.00182084 0 0
0.00243269 0 0
0.00317686 0 0
0.00408403 0 0
0.00518763 0 0
0.00652386 0 0
0.0081315 0 0
0.0100516 0 0
0.0123271 0 0
0.015002 0 0
0.0181212 0 0
0.0217297 0 0
0.0258727 0 0
0.0305964 0 0
0.0359489 0 0
0.0419827 0 0
0.0487586 0 0
0.0563507 0 0
0.0648534 0 0
0.0743904 0 0
0.0851252 0 0
0.0972759 0 0
0.111132 0 0
0.127077 0 0
0.145615 0 0
0.167412 0 0
0.19334 0 0
0.224545 0 0
0.26252 0 0
0.309198 0 0
0.36703 0 0
0.438993 0 0
0.528411 0 0
0.63833 0 0
0.770055 0 0
0.92056 0 0
0.00016403 0 0
0.000502323 0 0
0.000872666 0 0
0.00129778 0 0
0.0018019 0 0
0.00241126 0 0
0.00315461 0 0
0.00406355 0 0
0.00517275 0 0
0.00652 0 0
0.00814612 0 0
0.0100946 0 0
0.0124112 0 0
0.015143 0 0
0.0183383 0 0
0.0220454 0 0
0.0263128 0 0
0.0311892 0 0
0.0367247 0 0
0.0429732 0 0
0.0499959 0 0
0.0578666 0 0
0.0666789 0 0
0.0765556 0 0
0.0876598 0 0
0.10021 0 0
0.114497 0 0
0.130906 0 0
0.149945 0 0
0.172278 0 0
0.198777 0 0
0.230579 0 0
0.269157 0 0
0.316403 0 0
0.374688 0 0
0.44686 0 0
0.536042 0 0
0.645007 0 0
0.774794 0 0
0.922318 0 0
0.000160503 0 0
0.000491701 0 0
0.000854867 0 0
0.00127274 0 0
0.00176966 0 0
0.00237215 0 0
0.00310947 0 0
0.004014 0 0
0.00512153 0 0
0.00647142 0 0
0.00810653 0 0
0.0100729 0 0
0.0124193 0 0
0.0151965 0 0
0.0184564 0 0
0.0222514 0 0
0.0266338 0 0
0.0316555 0 0
0.0373695 0 0
0.0438311 0 0
0.051102 0 0
0.0592554 0 0
0.0683835 0 0
0.078607 0 0
0.0900873 0 0
0.103042 0 0
0.117762 0 0
0.134633 0 0
0.154164 0 0
0.177021 0 0
0.204073 0 0
0.236446 0 0
0.275593 0 0
0.323364 0 0
0.382056 0 0
0.454391 0 0
0.543303 0 0
0.651322 0 0
0.779247 0 0
0.923962 0 0
0.000155696 0 0
0.00047716 0 0
0.000830246 0 0
0.00123753 0 0
0.00172328 0 0
0.00231413 0 0
0.00303963 0 0
0.00393275 0 0
0.0050303 0 0
0.00637308 0 0
0.00800594 0 0
0.00997756 0 0
0.01234 0 0
0.0151478 0 0
0.0184574 0 0
0.0223259 0 0
0.0268102 0 0
0.0319666 0 0
0.0378514 0 0
0.0445225 0 0
0.0520423 0 0
0.0604833 0 0
0.0699354 0 0
0.0805162 0 0
0.0923836 0 0
0.105752 0 0
0.120912 0 0
0.138247 0 0
0.158268 0 0
0.18164 0 0
0.209228 0 0
0.242149 0 0
0.281836 0 0
0.330095 0 0
0.389151 0 0
0.461608 0 0
0.550224 0 0
0.657305 0 0
0.783443 0 0
0.925505 0 0
0.000149571 0 0
0.000458567 0 0
0.000798551 0 0
0.00119172 0 0
0.00166208 0 0
0.0022361 0 0
0.00294342 0 0
0.00381738 0 0
0.00489552 0 0
0.00621993 0 0
0.00783732 0 0
0.00979899 0 0
0.0121604 0 0
0.0149804 0 0
0.0183203 0 0
0.0222429 0 0
0.0268108 0 0
0.0320859 0 0
0.0381295 0 0
0.0450025 0 0
0.0527694 0 0
0.0615022 0 0
0.0712883 0 0
0.0822405 0 0
0.0945109 0 0
0.108309 0 0
0.123922 0 0
0.141731 0 0
0.162246 0 0
0.186129 0 0
0.214242 0 0
0.247693 0 0
0.287891 0 0
0.336605 0 0
0.395988 0 0
0.468531 0 0
0.55683 0 0
0.662984 0 0
0.787405 0 0
0.926956 0 0
0.000142108 0 0
0.000435861 0 0
0.000759646 0 0
0.00113506 0 0
0.00158558 0 0
0.00213726 0 0
0.00281954 0 0
0.00366579 0 0
0.00471401 0 0
0.00600723 0 0
0.00759379 0 0
0.00952746 0 0
0.0118671 0 0
0.0146761 0 0
0.0180214 0 0
0.0219721 0 0
0.026598 0 0
0.0319684 0 0
0.0381509 0 0
0.045212 0 0
0.053219 0 0
0.0622446 0 0
0.0723741 0 0
0.0837151 0 0
0.0964104 0 0
0.110662 0 0
0.12675 0 0
0.145052 0 0
0.166072 0 0
0.19047 0 0
0.219105 0 0
0.253072 0 0
0.293762 0 0
0.342903 0 0
0.402581 0 0
0.47518 0 0
0.563142 0 0
0.668381 0 0
0.79115 0 0
0.928321 0 0
0.000133335 0 0
0.000409115 0 0
0.000713629 0 0
0.00106763 0 0
0.00149377 0 0
0.00201742 0 0
0.00266741 0 0
0.00347682 0 0
0.00448363 0 0
0.00573139 0 0
0.00726966 0 0
0.0091543 0 0
0.0114474 0 0
0.0142169 0 0
0.0175357 0 0
0.0214803 0 0
0.0261291 0 0
0.0315605 0 0
0.0378512 0 0
0.0450755 0 0
0.0533058 0 0
0.0626162 0 0
0.0730881 0 0
0.0848163 0 0
0.0979606 0 0
0.112699 0 0
0.129298 0 0
0.148123 0 0
0.169671 0 0
0.194598 0 0
0.223756 0 0
0.258233 0 0
0.2994 0 0
0.348946 0 0
0.408893 0 0
0.481526 0 0
0.569143 0 0
0.673487 0 0
0.794671 0 0
0.929591 0 0
0.000123296 0 0
0.000378459 0 0
0.000660699 0 0
0.000989651 0 0
0.00138688 0 0
0.00187667 0 0
0.0024869 0 0
0.00324982 0 0
0.0042029 0 0
0.00538959 0 0
0.00686002 0 0
0.00867155 0 0
0.010889 0 0
0.0135844 0 0
0.0168369 0 0
0.0207308 0 0
0.0253546 0 0
0.0307981 0 0
0.0371502 0 0
0.0444966 0 0
0.0529189 0 0
0.062496 0 0
0.0733079 0 0
0.0854441 0 0
0.0990683 0 0
0.114339 0 0
0.131499 0 0
0.150897 0 0
0.173015 0 0
0.1985 0 0
0.228196 0 0
0.263183 0 0
0.304814 0 0
0.354746 0 0
0.414941 0 0
0.487588 0 0
0.574853 0 0
0.678324 0 0
0.79799 0 0
0.930781 0 0
0.000112062 0 0
0.000344104 0 0
0.000601206 0 0
0.000901612 0 0
0.00126547 0 0
0.00171563 0 0
0.00227853 0 0
0.00298507 0 0
0.00387152 0 0
0.00498049 0 0
0.00636178 0 0
0.00807328 0 0
0.0101815 0 0
0.0127621 0 0
0.0158994 0 0
0.019686 0 0
0.0242212 0 0
0.0296083 0 0
0.0359521 0 0
0.0433551 0 0
0.0519148 0 0
0.061723 0 0
0.0728684 0 0
0.0854476 0 0
0.0995939 0 0
0.115457 0 0
0.133256 0 0
0.15331 0 0
0.176075 0 0
0.202178 0 0
0.232452 0 0
0.267966 0 0
0.310061 0 0
0.360363 0 0
0.420784 0 0
0.493423 0 0
0.580327 0 0
0.682939 0 0
0.801144 0 0
0.931911 0 0
9.97689e-05 0 0
0.000306462 0 0
0.000535845 0 0
0.000804507 0 0
0.00113085 0 0
0.00153592 0 0
0.00204421 0 0
0.00268466 0 0
0.0034916 0 0
0.00450581 0 0
0.00577567 0 0
0.00735826 0 0
0.00932039 0 0
0.0117395 0 0
0.014704 0 0
0.0183137 0 0
0.0226783 0 0
0.0279162 0 0
0.034151 0 0
0.0415078 0 0
0.0501089 0 0
0.0600699 0 0
0.0714996 0 0
0.084505 0 0
0.0992046 0 0
0.115733 0 0
0.134278 0 0
0.155116 0 0
0.178661 0 0
0.205501 0 0
0.236443 0 0
0.272541 0 0
0.315122 0 0
0.365796 0 0
0.426428 0 0
0.499045 0 0
0.585582 0 0
0.687358 0 0
0.804163 0 0
0.933 0 0
8.65975e-05 0 0
0.000266087 0 0
0.000465579 0 0
0.000699749 0 0
0.000984965 0 0
0.00134005 0 0
0.0017871 0 0
0.00235243 0 0
0.00306758 0 0
0.00397047 0 0
0.00510668 0 0
0.00653079 0 0
0.00830785 0 0
0.0105148 0 0
0.0132416 0 0
0.0165925 0 0
0.0206858 0 0
0.0256537 0 0
0.0316401 0 0
0.0387968 0 0
0.0472789 0 0
0.057239 0 0
0.0688218 0 0
0.0821623 0 0
0.0973882 0 0
0.114628 0 0
0.134037 0 0
0.15584 0 0
0.18038 0 0
0.208177 0 0
0.239977 0 0
0.276798 0 0
0.319949 0 0
0.371027 0 0
0.431874 0 0
0.504458 0 0
0.590618 0 0
0.691556 0 0
0.806982 0 0
0.933985 0 0
7.27799e-05 0 0
0.000223692 0 0
0.000391644 0 0
0.000589189 0 0
0.00083038 0 0
0.00113147 0 0
0.00151169 0 0
0.00199411 0 0
0.00260663 0 0
0.00338319 0 0
0.00436504 0 0
0.00560233 0 0
0.00715582 0 0
0.00909876 0 0
0.0115189 0 0
0.0145205 0 0
0.0182258 0 0
0.0227763 0 0
0.0283329 0 0
0.0350737 0 0
0.043191 0 0
0.0528851 0 0
0.064356 0 0
0.0777949 0 0
0.0933766 0 0
0.111258 0 0
0.131589 0 0
0.154549 0 0
0.180392 0 0
0.209521 0 0
0.242563 0 0
0.280434 0 0
0.324386 0 0
0.375997 0 0
0.43711 0 0
0.509679 0 0
0.595495 0 0
0.695691 0 0
0.809912 0 0
0.935138 0 0
5.85965e-05 0 0
0.000180139 0 0
0.000315562 0 0
0.000475122 0 0
0.000670348 0 0
0.00091464 0 0
0.00122394 0 0
0.00161753 0 0
0.00211889 0 0
0.00275687 0 0
0.00356693 0 0
0.00459272 0 0
0.00588792 0 0
0.00751842 0 0
0.00956481 0 0
0.0121252 0 0
0.0153182 0 0
0.0192859 0 0