# vtk DataFile Version 2.0
Presion
ASCII

DATASET STRUCTURED_GRID
DIMENSIONS   40   40   20

POINTS   32000   double
0.0125   0.0125   0.025
0.0375   0.0125   0.025
0.0625   0.0125   0.025
0.0875   0.0125   0.025
0.1125   0.0125   0.025
0.1375   0.0125   0.025
0.1625   0.0125   0.025
0.1875   0.0125   0.025
0.2125   0.0125   0.025
0.2375   0.0125   0.025
0.2625   0.0125   0.025
0.2875   0.0125   0.025
0.3125   0.0125   0.025
0.3375   0.0125   0.025
0.3625   0.0125   0.025
0.3875   0.0125   0.025
0.4125   0.0125   0.025
0.4375   0.0125   0.025
0.4625   0.0125   0.025
0.4875   0.0125   0.025
0.5125   0.0125   0.025
0.5375   0.0125   0.025
0.5625   0.0125   0.025
0.5875   0.0125   0.025
0.6125   0.0125   0.025
0.6375   0.0125   0.025
0.6625   0.0125   0.025
0.6875   0.0125   0.025
0.7125   0.0125   0.025
0.7375   0.0125   0.025
0.7625   0.0125   0.025
0.7875   0.0125   0.025
0.8125   0.0125   0.025
0.8375   0.0125   0.025
0.8625   0.0125   0.025
0.8875   0.0125   0.025
0.9125   0.0125   0.025
0.9375   0.0125   0.025
0.9625   0.0125   0.025
0.9875   0.0125   0.025
0.0125   0.0375   0.025
0.0375   0.0375   0.025
0.0625   0.0375   0.025
0.0875   0.0375   0.025
0.1125   0.0375   0.025
0.1375   0.0375   0.025
0.1625   0.0375   0.025
0.1875   0.0375   0.025
0.2125   0.0375   0.025
0.2375   0.0375   0.025
0.2625   0.0375   0.025
0.2875   0.0375   0.025
0.3125   0.0375   0.025
0.3375   0.0375   0.025
0.3625   0.0375   0.025
0.3875   0.0375   0.025
0.4125   0.0375   0.025
0.4375   0.0375   0.025
0.4625   0.0375   0.025
0.4875   0.0375   0.025
0.5125   0.0375   0.025
0.5375   0.0375   0.025
0.5625   0.0375   0.025
0.5875   0.0375   0.025
0.6125   0.0375   0.025
0.6375   0.0375   0.025
0.6625   0.0375   0.025
0.6875   0.0375   0.025
0.7125   0.0375   0.025
0.7375   0.0375   0.025
0.7625   0.0375   0.025
0.7875   0.0375   0.025
0.8125   0.0375   0.025
0.8375   0.0375   0.025
0.8625   0.0375   0.025
0.8875   0.0375   0.025
0.9125   0.0375   0.025
0.9375   0.0375   0.025
0.9625   0.0375   0.025
0.9875   0.0375   0.025
0.0125   0.0625   0.025
0.0375   0.0625   0.025
0.0625   0.0625   0.025
0.0875   0.0625   0.025
0.1125   0.0625   0.025
0.1375   0.0625   0.025
0.1625   0.0625   0.025
0.1875   0.0625   0.025
0.2125   0.0625   0.025
0.2375   0.0625   0.025
0.2625   0.0625   0.025
0.2875   0.0625   0.025
0.3125   0.0625   0.025
0.3375   0.0625   0.025
0.3625   0.0625   0.025
0.3875   0.0625   0.025
0.4125   0.0625   0.025
0.4375   0.0625   0.025
0.4625   0.0625   0.025
0.4875   0.0625   0.025
0.5125   0.0625   0.025
0.5375   0.0625   0.025
0.5625   0.0625   0.025
0.5875   0.0625   0.025
0.6125   0.0625   0.025
0.6375   0.0625   0.025
0.6625   0.0625   0.025
0.6875   0.0625   0.025
0.7125   0.0625   0.025
0.7375   0.0625   0.025
0.7625   0.0625   0.025
0.7875   0.0625   0.025
0.8125   0.0625   0.025
0.8375   0.0625   0.025
0.8625   0.0625   0.025
0.8875   0.0625   0.025
0.9125   0.0625   0.025
0.9375   0.0625   0.025
0.9625   0.0625   0.025
0.9875   0.0625   0.025
0.0125   0.0875   0.025
0.0375   0.0875   0.025
0.0625   0.0875   0.025
0.0875   0.0875   0.025
0.1125   0.0875   0.025
0.1375   0.0875   0.025
0.1625   0.0875   0.025
0.1875   0.0875   0.025
0.2125   0.0875   0.025
0.2375   0.0875   0.025
0.2625   0.0875   0.025
0.2875   0.0875   0.025
0.3125   0.0875   0.025
0.3375   0.0875   0.025
0.3625   0.0875   0.025
0.3875   0.0875   0.025
0.4125   0.0875   0.025
0.4375   0.0875   0.025
0.4625   0.0875   0.025
0.4875   0.0875   0.025
0.5125   0.0875   0.025
0.5375   0.0875   0.025
0.5625   0.0875   0.025
0.5875   0.0875   0.025
0.6125   0.0875   0.025
0.6375   0.0875   0.025
0.6625   0.0875   0.025
0.6875   0.0875   0.025
0.7125   0.0875   0.025
0.7375   0.0875   0.025
0.7625   0.0875   0.025
0.7875   0.0875   0.025
0.8125   0.0875   0.025
0.8375   0.0875   0.025
0.8625   0.0875   0.025
0.8875   0.0875   0.025
0.9125   0.0875   0.025
0.9375   0.0875   0.025
0.9625   0.0875   0.025
0.9875   0.0875   0.025
0.0125   0.1125   0.025
0.0375   0.1125   0.025
0.0625   0.1125   0.025
0.0875   0.1125   0.025
0.1125   0.1125   0.025
0.1375   0.1125   0.025
0.1625   0.1125   0.025
0.1875   0.1125   0.025
0.2125   0.1125   0.025
0.2375   0.1125   0.025
0.2625   0.1125   0.025
0.2875   0.1125   0.025
0.3125   0.1125   0.025
0.3375   0.1125   0.025
0.3625   0.1125   0.025
0.3875   0.1125   0.025
0.4125   0.1125   0.025
0.4375   0.1125   0.025
0.4625   0.1125   0.025
0.4875   0.1125   0.025
0.5125   0.1125   0.025
0.5375   0.1125   0.025
0.5625   0.1125   0.025
0.5875   0.1125   0.025
0.6125   0.1125   0.025
0.6375   0.1125   0.025
0.6625   0.1125   0.025
0.6875   0.1125   0.025
0.7125   0.1125   0.025
0.7375   0.1125   0.025
0.7625   0.1125   0.025
0.7875   0.1125   0.025
0.8125   0.1125   0.025
0.8375   0.1125   0.025
0.8625   0.1125   0.025
0.8875   0.1125   0.025
0.9125   0.1125   0.025
0.9375   0.1125   0.025
0.9625   0.1125   0.025
0.9875   0.1125   0.025
0.0125   0.1375   0.025
0.0375   0.1375   0.025
0.0625   0.1375   0.025
0.0875   0.1375   0.025
0.1125   0.1375   0.025
0.1375   0.1375   0.025
0.1625   0.1375   0.025
0.1875   0.1375   0.025
0.2125   0.1375   0.025
0.2375   0.1375   0.025
0.2625   0.1375   0.025
0.2875   0.1375   0.025
0.3125   0.1375   0.025
0.3375   0.1375   0.025
0.3625   0.1375   0.025
0.3875   0.1375   0.025
0.4125   0.1375   0.025
0.4375   0.1375   0.025
0.4625   0.1375   0.025
0.4875   0.1375   0.025
0.5125   0.1375   0.025
0.5375   0.1375   0.025
0.5625   0.1375   0.025
0.5875   0.1375   0.025
0.6125   0.1375   0.025
0.6375   0.1375   0.025
0.6625   0.1375   0.025
0.6875   0.1375   0.025
0.7125   0.1375   0.025
0.7375   0.1375   0.025
0.7625   0.1375   0.025
0.7875   0.1375   0.025
0.8125   0.1375   0.025
0.8375   0.1375   0.025
0.8625   0.1375   0.025
0.8875   0.1375   0.025
0.9125   0.1375   0.025
0.9375   0.1375   0.025
0.9625   0.1375   0.025
0.9875   0.1375   0.025
0.0125   0.1625   0.025
0.0375   0.1625   0.025
0.0625   0.1625   0.025
0.0875   0.1625   0.025
0.1125   0.1625   0.025
0.1375   0.1625   0.025
0.1625   0.1625   0.025
0.1875   0.1625   0.025
0.2125   0.1625   0.025
0.2375   0.1625   0.025
0.2625   0.1625   0.025
0.2875   0.1625   0.025
0.3125   0.1625   0.025
0.3375   0.1625   0.025
0.3625   0.1625   0.025
0.3875   0.1625   0.025
0.4125   0.1625   0.025
0.4375   0.1625   0.025
0.4625   0.1625   0.025
0.4875   0.1625   0.025
0.5125   0.1625   0.025
0.5375   0.1625   0.025
0.5625   0.1625   0.025
0.5875   0.1625   0.025
0.6125   0.1625   0.025
0.6375   0.1625   0.025
0.6625   0.1625   0.025
0.6875   0.1625   0.025
0.7125   0.1625   0.025
0.7375   0.1625   0.025
0.7625   0.1625   0.025
0.7875   0.1625   0.025
0.8125   0.1625   0.025
0.8375   0.1625   0.025
0.8625   0.1625   0.025
0.8875   0.1625   0.025
0.9125   0.1625   0.025
0.9375   0.1625   0.025
0.9625   0.1625   0.025
0.9875   0.1625   0.025
0.0125   0.1875   0.025
0.0375   0.1875   0.025
0.0625   0.1875   0.025
0.0875   0.1875   0.025
0.1125   0.1875   0.025
0.1375   0.1875   0.025
0.1625   0.1875   0.025
0.1875   0.1875   0.025
0.2125   0.1875   0.025
0.2375   0.1875   0.025
0.2625   0.1875   0.025
0.2875   0.1875   0.025
0.3125   0.1875   0.025
0.3375   0.1875   0.025
0.3625   0.1875   0.025
0.3875   0.1875   0.025
0.4125   0.1875   0.025
0.4375   0.1875   0.025
0.4625   0.1875   0.025
0.4875   0.1875   0.025
0.5125   0.1875   0.025
0.5375   0.1875   0.025
0.5625   0.1875   0.025
0.5875   0.1875   0.025
0.6125   0.1875   0.025
0.6375   0.1875   0.025
0.6625   0.1875   0.025
0.6875   0.1875   0.025
0.7125   0.1875   0.025
0.7375   0.1875   0.025
0.7625   0.1875   0.025
0.7875   0.1875   0.025
0.8125   0.1875   0.025
0.8375   0.1875   0.025
0.8625   0.1875   0.025
0.8875   0.1875   0.025
0.9125   0.1875   0.025
0.9375   0.1875   0.025
0.9625   0.1875   0.025
0.9875   0.1875   0.025
0.0125   0.2125   0.025
0.0375   0.2125   0.025
0.0625   0.2125   0.025
0.0875   0.2125   0.025
0.1125   0.2125   0.025
0.1375   0.2125   0.025
0.1625   0.2125   0.025
0.1875   0.2125   0.025
0.2125   0.2125   0.025
0.2375   0.2125   0.025
0.2625   0.2125   0.025
0.2875   0.2125   0.025
0.3125   0.2125   0.025
0.3375   0.2125   0.025
0.3625   0.2125   0.025
0.3875   0.2125   0.025
0.4125   0.2125   0.025
0.4375   0.2125   0.025
0.4625   0.2125   0.025
0.4875   0.2125   0.025
0.5125   0.2125   0.025
0.5375   0.2125   0.025
0.5625   0.2125   0.025
0.5875   0.2125   0.025
0.6125   0.2125   0.025
0.6375   0.2125   0.025
0.6625   0.2125   0.025
0.6875   0.2125   0.025
0.7125   0.2125   0.025
0.7375   0.2125   0.025
0.7625   0.2125   0.025
0.7875   0.2125   0.025
0.8125   0.2125   0.025
0.8375   0.2125   0.025
0.8625   0.2125   0.025
0.8875   0.2125   0.025
0.9125   0.2125   0.025
0.9375   0.2125   0.025
0.9625   0.2125   0.025
0.9875   0.2125   0.025
0.0125   0.2375   0.025
0.0375   0.2375   0.025
0.0625   0.2375   0.025
0.0875   0.2375   0.025
0.1125   0.2375   0.025
0.1375   0.2375   0.025
0.1625   0.2375   0.025
0.1875   0.2375   0.025
0.2125   0.2375   0.025
0.2375   0.2375   0.025
0.2625   0.2375   0.025
0.2875   0.2375   0.025
0.3125   0.2375   0.025
0.3375   0.2375   0.025
0.3625   0.2375   0.025
0.3875   0.2375   0.025
0.4125   0.2375   0.025
0.4375   0.2375   0.025
0.4625   0.2375   0.025
0.4875   0.2375   0.025
0.5125   0.2375   0.025
0.5375   0.2375   0.025
0.5625   0.2375   0.025
0.5875   0.2375   0.025
0.6125   0.2375   0.025
0.6375   0.2375   0.025
0.6625   0.2375   0.025
0.6875   0.2375   0.025
0.7125   0.2375   0.025
0.7375   0.2375   0.025
0.7625   0.2375   0.025
0.7875   0.2375   0.025
0.8125   0.2375   0.025
0.8375   0.2375   0.025
0.8625   0.2375   0.025
0.8875   0.2375   0.025
0.9125   0.2375   0.025
0.9375   0.2375   0.025
0.9625   0.2375   0.025
0.9875   0.2375   0.025
0.0125   0.2625   0.025
0.0375   0.2625   0.025
0.0625   0.2625   0.025
0.0875   0.2625   0.025
0.1125   0.2625   0.025
0.1375   0.2625   0.025
0.1625   0.2625   0.025
0.1875   0.2625   0.025
0.2125   0.2625   0.025
0.2375   0.2625   0.025
0.2625   0.2625   0.025
[...]
POINT_DATA   32000
SCALARS Presion double
LOOKUP_TABLE   Presion

0 0 0 0 0 0 0 0 0 0 0 0 0 0 0 0 0 0 0 0 0 0 0 0 0 0 0 0 0 0 0 0 0 0 0 0 0 0 0 0 -0.00206464 -0.00244259 -0.00308081 -0.0038075 -0.00454488 -0.00524315 -0.00586595 -0.00638637 -0.006785 -0.00704848 -0.00716822 -0.00713956 -0.00696098 -0.00663386 -0.00616237 -0.0055535 -0.00481727 -0.00396682 -0.00301848 -0.00199174 -0.000908904 0.00020515 0.0013238 0.00241932 0.00346379 0.00443002 0.00529261 0.00602882 0.0066196 0.00705037 0.00731182 0.0074005 0.00731928 0.00707748 0.0066906 0.00617961 0.00557003 0.00489352 0.00420546 0.00369233 -0.00225757 -0.0024715 -0.00296669 -0.00359782 -0.00427402 -0.00493524 -0.00553969 -0.00605759 -0.00646778 -0.00675555 -0.00691107 -0.00692849 -0.00680505 -0.00654079 -0.00613844 -0.00560342 -0.0049439 -0.004171 -0.00329879 -0.00234429 -0.00132727 -0.000270071 0.000803102 0.00186664 0.00289428 0.00385999 0.00473884 0.00550791 0.0061473 0.00664104 0.00697795 0.00715248 0.00716541 0.00702447 0.00674485 0.00635001 0.00587384 0.00536724 0.00491849 0.00471093 -0.00196218 -0.00223882 -0.00272547 -0.0033322 -0.00398638 -0.00463384 -0.00523501 -0.00576119 -0.0061917 -0.00651181 -0.00671123 -0.00678328 -0.00672397 -0.00653179 -0.00620761 -0.00575467 -0.00517875 -0.00448831 -0.00369465 -0.00281195 -0.00185716 -0.000850129 0.000187139 0.00123068 0.00225527 0.00323514 0.00414489 0.00496046 0.00566016 0.00622575 0.00664356 0.00690543 0.00700977 0.00696242 0.00677748 0.00647862 0.00610129 0.00569784 0.00534851 0.00518053 -0.00139683 -0.00181634 -0.00237344 -0.00301345 -0.0036848 -0.00434517 -0.00496185 -0.0055103 -0.00597229 -0.00633437 -0.00658655 -0.00672171 -0.00673472 -0.00662244 -0.0063836 -0.00601894 -0.00553141 -0.00492645 -0.00421224 -0.00339989 -0.00250345 -0.00154029 -0.00053043 0.000503477 0.00153671 0.00254321 0.00349641 0.00437032 0.0051407 0.00578631 0.00629024 0.00664108 0.0068342 0.00687273 0.00676854 0.00654329 0.00623002 0.00587582 0.00554621 0.00532881 -0.00070206 -0.00128737 -0.00195384 -0.00266472 -0.00338424 -0.00408177 -0.00473286 -0.0053186 -0.00582442 -0.00623902 -0.00655328 -0.00675999 -0.00685307 -0.00682769 -0.00668034 -0.00640906 -0.00601377 -0.00549664 -0.00486253 -0.00411933 -0.00327814 -0.00235386 -0.00136462 -0.000331951 0.000719646 0.00176339 0.0027711 0.0037143 0.00456553 0.00529982 0.00589627 0.00633937 0.0066206 0.00673947 0.00670459 0.00653442 0.00625823 0.00591715 0.00556531 0.00526885 2.5793e-05 -0.00072594 -0.00151727 -0.00231994 -0.00310867 -0.00386242 -0.00456444 -0.00520164 -0.00576351 -0.00624126 -0.00662699 -0.00691364 -0.00709426 -0.00716242 -0.00711234 -0.00693929 -0.00664003 -0.00621336 -0.0056607 -0.0049866 -0.0041991 -0.00331055 -0.00233715 -0.00129938 -0.000221581 0.000868584 0.00194099 0.00296425 0.00390712 0.0047402 0.00543772 0.00597915 0.00635112 0.0065486 0.00657608 0.00644828 0.00619068 0.0058398 0.00544302 0.00505671 0.000715382 -0.000194704 -0.00111357 -0.00201727 -0.00288754 -0.0037107 -0.00447659 -0.00517734 -0.00580632 -0.00635724 -0.0068235 -0.00719823 -0.00747375 -0.00764206 -0.00769518 -0.00762557 -0.00742681 -0.00709428 -0.00662582 -0.0060225 -0.00528917 -0.00443543 -0.00347537 -0.00242823 -0.00131811 -0.000173542 0.000973276 0.00208772 0.00313427 0.00407834 0.00488841 0.00553787 0.0060074 0.00628641 0.00637449 0.00628228 0.00603186 0.00565676 0.00520141 0.00471933 0.00131005 0.000253099 -0.000789113 -0.00179545 -0.00275281 -0.00365331 -0.00449212 -0.00526586 -0.00597126 -0.00660426 -0.00715943 -0.00763007 -0.00800779 -0.00828311 -0.00844584 -0.00848573 -0.00839317 -0.00816001 -0.00778044 -0.00725186 -0.00657561 -0.00575827 -0.00481148 -0.00375286 -0.00260598 -0.00140008 -0.00016937 0.00104808 0.002212 0.00328188 0.00421944 0.00499083 0.00556948 0.00593807 0.0060904 0.00603256 0.00578354 0.00537521 0.0048517 0.00426792 0.00176236 0.000571426 -0.000586172 -0.0016919 -0.00273702 -0.00371841 -0.00463568 -0.00548913 -0.00627825 -0.00700087 -0.00765247 -0.00822645 -0.00871369 -0.00910325 -0.00938284 -0.0095395 -0.00956042 -0.00943387 -0.00915021 -0.0087029 -0.00808945 -0.00731291 -0.00638195 -0.00531208 -0.00412581 -0.00285269 -0.00152881 -0.000195711 0.00110115 0.00231461 0.00339852 0.00431041 0.00501499 0.00548676 0.00571251 0.0056931 0.00544441 0.00499749 0.00439796 0.00370472 0.00203113 0.000719777 -0.000543105 -0.00174191 -0.00287201 -0.00393451 -0.00493276 -0.00587011 -0.00674832 -0.00756665 -0.00832129 -0.00900561 -0.00960972 -0.0101213 -0.0105259 -0.010808 -0.0109516 -0.0109412 -0.0107631 -0.0104065 -0.00986461 -0.00913636 -0.00822677 -0.00714846 -0.00592223 -0.00457735 -0.00315135 -0.00168924 -0.000241924 0.00113601 0.00238935 0.00346546 0.00431855 0.0049131 0.00522732 0.00525572 0.00501063 0.00452261 0.00383989 0.00302704 0.00207986 0.000662134 -0.000694613 -0.0019782 -0.00318813 -0.00432943 -0.00540878 -0.00643207 -0.00740291 -0.00832169 -0.00918506 -0.00998627 -0.0107147 -0.0113565 -0.0118955 -0.0123133 -0.0125906 -0.0127083 -0.0126482 -0.0123949 -0.0119367 -0.0112676 -0.0103882 -0.00930731 -0.00804305 -0.00662358 -0.00508731 -0.00348239 -0.00186537 -0.000298953 0.00115135 0.00242096 0.00345145 0.00419503 0.0046192 0.00471048 0.00447667 0.00394771 0.00317499 0.00222986 0.00187595 0.000366383 -0.00107193 -0.0024307 -0.00371366 -0.00492962 -0.00608826 -0.00719773 -0.00826314 -0.0092858 -0.0102627 -0.0111869 -0.012047 -0.0128279 -0.0135114 -0.0140765 -0.0145007 -0.0147608 -0.0148341 -0.0147 -0.014341 -0.0137457 -0.012909 -0.0118349 -0.0105376 -0.00904315 -0.00738989 -0.00562855 -0.0038213 -0.00203951 -0.000360257 0.00113799 0.00238165 0.00330787 0.00387071 0.00404632 0.00383642 0.00326958 0.00240051 0.00130799 0.00139047 -0.000195916 -0.00170286 -0.00312634 -0.00447439 -0.00575946 -0.00699408 -0.00818839 -0.00934885 -0.0104776 -0.0115718 -0.0126244 -0.0136234 -0.0145525 -0.0153914 -0.0161169 -0.0167029 -0.017122 -0.0173467 -0.0173506 -0.0171101 -0.0166069 -0.0158295 -0.0147756 -0.0134541 -0.0118876 -0.010113 -0.00818282 -0.00616438 -0.00413809 -0.00219376 -0.000425822 0.00107415 0.00222478 0.00296317 0.00325195 0.00308432 0.00248618 0.00151523 0.000257993 0.000598197 -0.00104951 -0.00261169 -0.00408882 -0.00549317 -0.00684072 -0.00814666 -0.00942303 -0.0106776 -0.0119131 -0.0131274 -0.0143131 -0.0154576 -0.0165438 -0.0175495 -0.018449 -0.0192128 -0.0198095 -0.020206 -0.0203697 -0.0202702 -0.0198815 -0.0191842 -0.0181683 -0.0168361 -0.0152046 -0.0133079 -0.0111989 -0.00894927 -0.00664824 -0.00439935 -0.00231504 -0.000508105 0.000917569 0.00187761 0.0023169 0.00221677 0.00159833 0.000521395 -0.000919721 -0.000522059 -0.00221523 -0.00381903 -0.00533834 -0.00678954 -0.00819193 -0.00956324 -0.0109174 -0.0122633 -0.0136049 -0.0149403 -0.0162623 -0.0175582 -0.0188096 -0.0199931 -0.0210804 -0.0220389 -0.0228325 -0.0234227 -0.0237704 -0.0238372 -0.0235889 -0.0229967 -0.0220416 -0.0207171 -0.019033 -0.0170185 -0.0147248 -0.0122265 -0.00962113 -0.00702629 -0.00457431 -0.00240249 -0.000641964 0.000595985 0.00123296 0.00123378 0.000611577 -0.000573157 -0.00221869 -0.00198706 -0.00370978 -0.00534154 -0.00689136 -0.00837935 -0.00982788 -0.0112571 -0.0126829 -0.0141156 -0.0155603 -0.0170158 -0.0184755 -0.0199265 -0.0213499 -0.0227209 -0.0240091 -0.0251784 -0.0261884 -0.0269949 -0.0275518 -0.0278124 -0.0277329 -0.0272746 -0.0264074 -0.0251146 -0.0233964 -0.0212746 -0.0187963 -0.0160368 -0.0131005 -0.0101186 -0.00724477 -0.00464401 -0.00247979 -0.00089689 -3.97392e-06 0.000140929 -0.000461501 -0.00175252 -0.00362376 -0.00380871 -0.00554537 -0.00719175 -0.00876034 -0.0102744 -0.0117591 -0.013237 -0.0147258 -0.0162381 -0.01778 -0.0193518 -0.0209477 -0.022555 -0.0241545 -0.0257205 -0.0272204 -0.0286151 -0.0298596 -0.0309041 -0.0316951 -0.0321773 -0.0322968 -0.0320036 -0.0312555 -0.0300235 -0.028296 -0.0260846 -0.0234295 -0.0204036 -0.0171155 -0.013709 -0.010359 -0.00726112 -0.00461643 -0.00261067 -0.00139148 -0.00104808 -0.00159864 -0.0029898 -0.00510799 -0.00599365 -0.00772961 -0.00937795 -0.0109536 -0.0124823 -0.0139915 -0.0155062 -0.0170466 -0.0186275 -0.0202571 -0.0219375 -0.0236641 -0.025425 -0.0272012 -0.028966 -0.0306851 -0.0323164 -0.0338106 -0.0351122 -0.0361602 -0.0368905 -0.0372386 -0.0371426 -0.0365471 -0.0354091 -0.0337029 -0.0314274 -0.0286122 -0.0253242 -0.0216726 -0.0178107 -0.0139339 -0.01027 -0.00706227 -0.00454571 -0.00291735 -0.00230832 -0.00276458 -0.0042436 -0.00662898 -0.00854308 -0.0102654 -0.0119043 -0.0134756 -0.0150063 -0.016526 -0.0180624 -0.0196388 -0.0212727 -0.0229756 -0.0247518 -0.0265987 -0.0285056 -0.030454 -0.0324166 -0.0343575 -0.0362319 -0.0379863 -0.0395595 -0.0408832 -0.0418844 -0.0424882 -0.0426198 -0.0422103 -0.0412014 -0.0395517 -0.0372444 -0.034295 -0.0307602 -0.026745 -0.0224081 -0.0179622 -0.0136667 -0.00981132 -0.00668805 -0.00455531 -0.00359975 -0.00390715 -0.00545385 -0.00812448 -0.0114527 -0.0131513 -0.0147711 -0.0163268 -0.0178456 -0.0193588 -0.0208974 -0.0224886 -0.0241544 -0.0259099 -0.0277629 -0.0297135 -0.0317527 -0.0338628 -0.0360161 -0.0381755 -0.0402932 -0.0423119 -0.0441648 -0.0457766 -0.0470656 -0.0479462 -0.0483314 -0.0481383 -0.0472926 -0.0457358 -0.0434334 -0.0403838 -0.0366287 -0.0322636 -0.0274462 -0.0224017 -0.0174183 -0.0128332 -0.00900278 -0.00625963 -0.00486229 -0.00495242 -0.00653688 -0.00950721 -0.0147131 -0.0163819 -0.0179757 -0.019505 -0.0209957 -0.0224813 -0.0239967 -0.025575 -0.0272439 -0.029024 -0.0309276 -0.0329582 -0.035109 -0.0373633 -0.0396935 -0.0420607 -0.0444148 -0.0466943 -0.0488271 -0.0507312 -0.0523163 -0.0534867 -0.0541437 -0.0541904 -0.0535367 -0.0521068 -0.0498469 -0.0467355 -0.0427956 -0.0381073 -0.0328205 -0.0271647 -0.0214514 -0.0160633 -0.0114259 -0.00795828 -0.00600992 -0.00579903 -0.00737948 -0.0106588 -0.0183106 -0.0199493 -0.0215135 -0.0230058 -0.0244495 -0.0258805 -0.0273401 -0.0288692 -0.0305037 -0.0322717 -0.0341914 -0.0362704 -0.0385047 -0.0408787 -0.0433645 -0.0459217 -0.0484972 -0.0510257 -0.0534297 -0.0556204 -0.0574997 -0.0589623 -0.0598982 -0.0601975 -0.0597552 -0.0584782 -0.0562933 -0.053158 -0.0490734 -0.0440988 -0.0383686 -0.032108 -0.0256418 -0.0193922 -0.0138544 -0.0095446 -0.00692343 -0.00631136 -0.00783206 -0.0114229 -0.0222282 -0.0238442 -0.0253796 -0.0268244 -0.0281979 -0.0295399 -0.0309014 -0.0323347 -0.0338872 -0.0355969 -0.0374894 -0.0395774 -0.0418598 -0.044322 -0.0469352 -0.0496573 -0.052432 -0.0551893 -0.0578464 -0.060308 -0.0624682 -0.0642127 -0.0654213 -0.0659719 -0.065746 -0.0646344 -0.0625456 -0.0594161 -0.0552236 -0.0500031 -0.0438667 -0.0370247 -0.0298036 -0.022654 -0.0161355 -0.0108676 -0.0074419 -0.00631151 -0.00770054 -0.0115966 -0.0264481 -0.0280593 -0.029572 -0.0309578 -0.0322314 -0.03344 -0.034649 -0.0359278 -0.0373394 -0.0389344 -0.0407478 -0.042798 -0.0450866 -0.0475994 -0.0503065 -0.0531625 -0.0561073 -0.059066 -0.0619496 -0.0646564 -0.0670727 -0.0690757 -0.0705355 -0.0713196 -0.0712971 -0.0703446 -0.0683544 -0.0652436 -0.0609673 -0.0555347 -0.0490308 -0.041642 -0.0336826 -0.0256164 -0.0180553 -0.011721 -0.00735274 -0.00556986 -0.0067368 -0.0109211 -0.0309549 -0.0325926 -0.0340946 -0.0354073 -0.0365419 -0.037559 -0.0385465 -0.0395977 -0.040797 -0.0422111 -0.0438858 -0.0458453 -0.0480937 -0.0506159 -0.0533793 -0.0563344 -0.0594158 -0.0625426 -0.0656193 -0.0685367 -0.0711737 -0.0733989 -0.0750734 -0.0760551 -0.0762021 -0.0753793 -0.0734652 -0.0703606 -0.0660006 -0.0603704 -0.0535262 -0.0456239 -0.0369533 -0.0279726 -0.0193273 -0.0118312 -0.00638021 -0.00379399 -0.00462726 -0.00907022 -0.03574 -0.0374534 -0.0389627 -0.0401824 -0.0411244 -0.0418736 -0.0425519 -0.0432866 -0.0441898 -0.0453478 -0.0468183 -0.048631 -0.0507907 -0.0532799 -0.0560612 -0.0590792 -0.0622616 -0.0655201 -0.0687515 -0.0718386 -0.074652 -0.0770517 -0.07889 -0.0800154 -0.0802766 -0.0795284 -0.0776382 -0.0744942 -0.0700161 -0.0641692 -0.0569837 -0.0485831 -0.0392233 -0.0293387 -0.0195846 -0.0108456 -0.00417249 -0.000615399 -0.000978832 -0.00563596 -0.0408098 -0.0426707 -0.0442101 -0.0453048 -0.045979 -0.0463592 -0.0466184 -0.0469303 -0.0474418 -0.0482619 -0.0494601 -0.0510698 -0.053094 -0.05551 -0.058273 -0.0613194 -0.0645678 -0.067921 -0.0712666 -0.0744783 -0.0774173 -0.0799347 -0.0818734 -0.0830726 -0.0833721 -0.0826174 -0.0806671 -0.0774004 -0.0727266 -0.0665974 -0.0590234 -0.0501 -0.0400456 -0.0292573 -0.0183738 -0.00832089 -0.000287059 0.00442667 0.00469905 -0.000109931 -0.0461983 -0.0483077 -0.0498999 -0.0508154 -0.0511131 -0.05099 -0.0506935 -0.0504583 -0.0504731 -0.0508705 -0.0517298 -0.0530848 -0.0549325 -0.0572412 -0.0599554 -0.0630002 -0.0662831 -0.0696958 -0.0731151 -0.0764044 -0.0794145 -0.0819862 -0.0839524 -0.0851424 -0.085386 -0.0845201 -0.0823951 -0.0788835 -0.0738885 -0.0673552 -0.0592839 -0.0497504 -0.0389413 -0.02721 -0.0151572 -0.00371381 0.00582573 0.0119058 0.0130189 0.00814285 -0.0519891 -0.054483 -0.0561401 -0.0567812 -0.0565438 -0.055739 -0.0547194 -0.0537958 -0.0532031 -0.0530955 -0.0535568 -0.0546146 -0.0562548 -0.0584315 -0.0610748 -0.064095 -0.0673861 -0.0708266 -0.0742812 -0.0776012 -0.0806261 -0.0831849 -0.0850993 -0.0861871 -0.0862673 -0.0851664 -0.0827261 -0.0788121 -0.0733239 -0.0662051 -0.0574544 -0.0471413 -0.0354324 -0.0226429 -0.00932338 0.00362332 0.0148407 0.0225358 0.0247501 0.0199236 -0.0583534 -0.061407 -0.0631075 -0.0633066 -0.0623001 -0.060578 -0.0586334 -0.0568664 -0.0555561 -0.0548702 -0.0548873 -0.0556201 -0.0570354 -0.0590676 -0.0616275 -0.0646082 -0.0678872 -0.0713284 -0.0747826 -0.0780878 -0.0810709 -0.0835481 -0.0853281 -0.0862157 -0.0860168 -0.0845452 -0.0816311 -0.077131 -0.0709391 -0.0629985 -0.0533121 -0.0419542 -0.0290883 -0.0150071 -0.000214006 0.0144379 0.0275762 0.0372081 0.0408728 0.0362645 -0.0656194 -0.0694422 -0.0710821 -0.070546 -0.0684258 -0.0654773 -0.0623706 -0.059597 -0.0574677 -0.0561468 -0.0556926 -0.0560905 -0.0572793 -0.0591673 -0.061642 -0.0645757 -0.0678279 -0.0712463 -0.0746667 -0.0779133 -0.0807991 -0.0831264 -0.0846898 -0.0852792 -0.0846847 -0.0827043 -0.0791521 -0.0738703 -0.0667418 -0.0577041 -0.0467622 -0.0339995 -0.0195901 -0.00382447 0.0128234 0.0295527 0.0450084 0.0570438 0.0626628 0.0585406 -0.0744024 -0.0792046 -0.0804976 -0.0787188 -0.074979 -0.0704057 -0.065866 -0.0619236 -0.0588914 -0.0569025 -0.055973 -0.0560461 -0.0570228 -0.0587787 -0.0611743 -0.0640592 -0.0672734 -0.0706479 -0.0740031 -0.0771489 -0.0798841 -0.0819967 -0.083266 -0.0834654 -0.0823674 -0.0797499 -0.0754061 -0.0691558 -0.0608605 -0.0504396 -0.0378868 -0.0232851 -0.00681833 0.0112123 0.0303401 0.0498005 0.068265 0.0834618 0.0918311 0.0886739 -0.0858539 -0.0917326 -0.0920068 -0.088116 -0.0820234 -0.0753219 -0.0690511 -0.0637897 -0.0597976 -0.0571366 -0.055753 -0.055531 -0.0563234 -0.0579684 -0.0602965 -0.0631337 -0.0663005 -0.0696111 -0.0728713 -0.075877 -0.0784132 -0.0802538 -0.0811626 -0.080896 -0.0792069 -0.0758505 -0.0705932 -0.063224 -0.0535692 -0.0415102 -0.0270039 -0.0101028 0.00902675 0.0300881 0.0526198 0.075881 0.0985602 0.118249 0.130749 0.129511 -0.102166 -0.108761 -0.106541 -0.0990723 -0.0895856 -0.0801384 -0.0718242 -0.0651199 -0.0601485 -0.0568453 -0.0550554 -0.0545863 -0.0552344 -0.0567964 -0.0590724 -0.061865 -0.0649766 -0.068206 -0.0713457 -0.0741791 -0.0764788 -0.0780056 -0.078509 -0.0777289 -0.0753982 -0.0712478 -0.0650132 -0.0564445 -0.0453183 -0.0314543 -0.0147357 0.00486724 0.0272703 0.05225 0.0794083 0.108073 0.136984 0.163572 0.182795 0.18553 -0.127648 -0.133126 -0.125282 -0.111824 -0.0975106 -0.0845968 -0.0739452 -0.0657318 -0.059821 -0.0559546 -0.0538418 -0.0531976 -0.0537566 -0.0552737 -0.05752 -0.0602777 -0.0633334 -0.0664737 -0.06948 -0.0721259 -0.0741741 -0.0753744 -0.0754646 -0.0741699 -0.071205 -0.0662769 -0.0590894 -0.0493482 -0.0367691 -0.0210879 -0.00207396 0.0204516 0.0465892 0.0763289 0.109507 0.145713 0.183971 0.22173 0.252796 0.264129 -0.171175 -0.169168 -0.149283 -0.126024 -0.105036 -0.0879287 -0.0747781 -0.0651411 -0.0584587 -0.0542025 -0.0519159 -0.0512139 -0.051771 -0.0533054 -0.0555654 -0.0583178 -0.0613388 -0.0644066 -0.067296 -0.069774 -0.0715967 -0.0725072 -0.0722343 -0.0704928 -0.0669829 -0.0613914 -0.0533928 -0.0426497 -0.0288137 -0.0115243 0.00959212 0.0349249 0.0648764 0.0998529 0.14024 0.186347 0.238161 0.294138 0.347287 0.377989 -0.252031 -0.222353 -0.177897 -0.139267 -0.109693 -0.0881393 -0.072848 -0.0622835 -0.0552839 -0.0510024 -0.0488183 -0.0482635 -0.0489706 -0.050637 -0.0530006 -0.0558228 -0.0588769 -0.0619389 -0.0647821 -0.0671716 -0.0688618 -0.0695927 -0.0690897 -0.0670618 -0.0632005 -0.0571789 -0.04865 -0.0372418 -0.0225509 -0.00412828 0.0185424 0.0460811 0.0792648 0.119103 0.166938 0.22456 0.29431 0.378431 0.473237 0.549729 -0.412989 -0.29441 -0.20265 -0.142963 -0.105251 -0.0811423 -0.0655018 -0.0553714 -0.0490201 -0.0453868 -0.0437796 -0.0437151 -0.0448304 -0.0468334 -0.0494724 -0.0525184 -0.055752 -0.0589555 -0.0619069 -0.0643753 -0.0661179 -0.0668775 -0.0663805 -0.0643362 -0.0604344 -0.0543434 -0.045706 -0.0341323 -0.0191869 -0.000365493 0.0229445 0.0515334 0.0864905 0.129417 0.182805 0.250706 0.339902 0.461687 0.629917 0.822943 -0.752583 -0.345081 -0.186082 -0.116384 -0.0811987 -0.0613927 -0.0495138 -0.0422967 -0.0381396 -0.0361638 -0.0358286 -0.0367618 -0.0386787 -0.0413422 -0.0445395 -0.0480694 -0.0517332 -0.055329 -0.0586472 -0.061467 -0.0635541 -0.0646587 -0.0645137 -0.0628341 -0.0593149 -0.0536289 -0.0454227 -0.0343093 -0.0198547 -0.00155396 0.0212111 0.0492484 0.0836979 0.126315 0.180078 0.250633 0.349937 0.505136 0.77444 1.27405 0 0 0 0 0 0 0 0 0 0 0 0 0 0 0 0 0 0 0 0 0 0 0 0 0 0 0 0 0 0 0 0 0 0 0 0 0 0 0 0 -0.00209769 -0.00246229 -0.00298867 -0.00353626 -0.00405484 -0.00451643 -0.00490121 -0.00519453 -0.00538588 -0.00546829 -0.00543778 -0.00529292 -0.00503464 -0.00466608 -0.0041927 -0.00362233 -0.0029653 -0.00223456 -0.00144555 -0.00061613 0.000233852 0.00108301 0.0019091 0.00268979 0.0034035 0.00403034 0.00455294 0.00495726 0.00523336 0.00537592 0.00538469 0.00526467 0.00502617 0.00468446 0.00425925 0.00377384 0.00325453 0.00273208 0.00225468 0.0019551 -0.00242086 -0.00261096 -0.00298093 -0.00341199 -0.00384071 -0.00423053 -0.0045582 -0.00480805 -0.00496939 -0.00503513 -0.00500103 -0.00486524 -0.00462804 -0.00429182 -0.00386109 -0.00334262 -0.00274554 -0.00208139 -0.00136409 -0.000609806 0.000163374 0.000935903 0.00168737 0.00239723 0.00304559 0.0036141 0.0040868 0.00445092 0.00469763 0.00482258 0.00482634 0.00471459 0.00449813 0.00419267 0.00381871 0.00340146 0.00297212 0.0025721 0.0022654 0.00216657 -0.00236353 -0.00257991 -0.00291072 -0.00328788 -0.00366328 -0.00400525 -0.00429291 -0.00451226 -0.00465383 -0.00471127 -0.00468059 -0.0045597 -0.00434826 -0.00404769 -0.00366127 -0.00319428 -0.00265421 -0.00205084 -0.0013963 -0.000704947 6.81604e-06 0.00072095 0.00141831 0.00207933 0.00268478 0.00321672 0.00365935 0.00399998 0.00422978 0.00434452 0.00434496 0.00423716 0.00403243 0.00374714 0.00340255 0.00302478 0.00264567 0.00230505 0.0020551 0.00196353 -0.00212455 -0.00243575 -0.00279391 -0.00316553 -0.00352129 -0.00383957 -0.00410537 -0.00430843 -0.00444174 -0.00450041 -0.00448109 -0.00438166 -0.00420114 -0.00393984 -0.00359957 -0.00318384 -0.00269822 -0.00215046 -0.0015507 -0.000911482 -0.000247626 0.000424043 0.00108518 0.00171651 0.0022987 0.00281325 0.00324358 0.00357603 0.0038009 0.0039132 0.00391331 0.00380718 0.0036064 0.00332778 0.00299291 0.0026277 0.0022621 0.00193013 0.00166937 0.00151725 -0.00182293 -0.00224913 -0.00266728 -0.0030643 -0.00342615 -0.00374157 -0.0040025 -0.00420344 -0.00434048 -0.00441061 -0.00441137 -0.00434066 -0.00419685 -0.00397902 -0.00368731 -0.00332327 -0.00289031 -0.00239398 -0.00184232 -0.00124601 -0.000618373 2.4756e-05 0.000665453 0.00128427 0.00186108 0.0023761 0.00281111 0.00315064 0.00338317 0.00350222 0.003507 0.00340285 0.00320114 0.00291879 0.0025774 0.00220221 0.00182087 0.00146204 0.00115329 0.000917013 -0.00153636 -0.00207982 -0.0025719 -0.003012 -0.00339757 -0.00372638 -0.00399715 -0.00420914 -0.00436169 -0.00445378 -0.00448383 -0.00444975 -0.00434916 -0.0041798 -0.00393997 -0.00362909 -0.00324821 -0.00280054 -0.002