# vtk DataFile Version 2.0
Velocidades
ASCII

DATASET STRUCTURED_GRID
DIMENSIONS   40   40   10

POINTS   16000   double
0.0125   0.0125   0.05
0.0125   0.0375   0.05
0.0125   0.0625   0.05
0.0125   0.0875   0.05
0.0125   0.1125   0.05
0.0125   0.1375   0.05
0.0125   0.1625   0.05
0.0125   0.1875   0.05
0.0125   0.2125   0.05
0.0125   0.2375   0.05
0.0125   0.2625   0.05
0.0125   0.2875   0.05
0.0125   0.3125   0.05
0.0125   0.3375   0.05
0.0125   0.3625   0.05
0.0125   0.3875   0.05
0.0125   0.4125   0.05
0.0125   0.4375   0.05
0.0125   0.4625   0.05
0.0125   0.4875   0.05
0.0125   0.5125   0.05
0.0125   0.5375   0.05
0.0125   0.5625   0.05
0.0125   0.5875   0.05
0.0125   0.6125   0.05
0.0125   0.6375   0.05
0.0125   0.6625   0.05
0.0125   0.6875   0.05
0.0125   0.7125   0.05
0.0125   0.7375   0.05
0.0125   0.7625   0.05
0.0125   0.7875   0.05
0.0125   0.8125   0.05
0.0125   0.8375   0.05
0.0125   0.8625   0.05
0.0125   0.8875   0.05
0.0125   0.9125   0.05
0.0125   0.9375   0.05
0.0125   0.9625   0.05
0.0125   0.9875   0.05
0.0375   0.0125   0.05
0.0375   0.0375   0.05
0.0375   0.0625   0.05
0.0375   0.0875   0.05
0.0375   0.1125   0.05
0.0375   0.1375   0.05
0.0375   0.1625   0.05
0.0375   0.1875   0.05
0.0375   0.2125   0.05
0.0375   0.2375   0.05
0.0375   0.2625   0.05
0.0375   0.2875   0.05
0.0375   0.3125   0.05
0.0375   0.3375   0.05
0.0375   0.3625   0.05
0.0375   0.3875   0.05
0.0375   0.4125   0.05
0.0375   0.4375   0.05
0.0375   0.4625   0.05
0.0375   0.4875   0.05
0.0375   0.5125   0.05
0.0375   0.5375   0.05
0.0375   0.5625   0.05
0.0375   0.5875   0.05
0.0375   0.6125   0.05
0.0375   0.6375   0.05
0.0375   0.6625   0.05
0.0375   0.6875   0.05
0.0375   0.7125   0.05
0.0375   0.7375   0.05
0.0375   0.7625   0.05
0.0375   0.7875   0.05
0.0375   0.8125   0.05
0.0375   0.8375   0.05
0.0375   0.8625   0.05
0.0375   0.8875   0.05
0.0375   0.9125   0.05
0.0375   0.9375   0.05
0.0375   0.9625   0.05
0.0375   0.9875   0.05
0.0625   0.0125   0.05
0.0625   0.0375   0.05
0.0625   0.0625   0.05
0.0625   0.0875   0.05
0.0625   0.1125   0.05
0.0625   0.1375   0.05
0.0625   0.1625   0.05
0.0625   0.1875   0.05
0.0625   0.2125   0.05
0.0625   0.2375   0.05
0.0625   0.2625   0.05
0.0625   0.2875   0.05
0.0625   0.3125   0.05
0.0625   0.3375   0.05
0.0625   0.3625   0.05
0.0625   0.3875   0.05
0.0625   0.4125   0.05
0.0625   0.4375   0.05
0.0625   0.4625   0.05
0.0625   0.4875   0.05
0.0625   0.5125   0.05
0.0625   0.5375   0.05
0.0625   0.5625   0.05
0.0625   0.5875   0.05
0.0625   0.6125   0.05
0.0625   0.6375   0.05
0.0625   0.6625   0.05
0.0625   0.6875   0.05
0.0625   0.7125   0.05
0.0625   0.7375   0.05
0.0625   0.7625   0.05
0.0625   0.7875   0.05
0.0625   0.8125   0.05
0.0625   0.8375   0.05
0.0625   0.8625   0.05
0.0625   0.8875   0.05
0.0625   0.9125   0.05
0.0625   0.9375   0.05
0.0625   0.9625   0.05
0.0625   0.9875   0.05
0.0875   0.0125   0.05
0.0875   0.0375   0.05
0.0875   0.0625   0.05
0.0875   0.0875   0.05
0.0875   0.1125   0.05
0.0875   0.1375   0.05
0.0875   0.1625   0.05
0.0875   0.1875   0.05
0.0875   0.2125   0.05
0.0875   0.2375   0.05
0.0875   0.2625   0.05
0.0875   0.2875   0.05
0.0875   0.3125   0.05
0.0875   0.3375   0.05
0.0875   0.3625   0.05
0.0875   0.3875   0.05
0.0875   0.4125   0.05
0.0875   0.4375   0.05
0.0875   0.4625   0.05
0.0875   0.4875   0.05
0.0875   0.5125   0.05
0.0875   0.5375   0.05
0.0875   0.5625   0.05
0.0875   0.5875   0.05
0.0875   0.6125   0.05
0.0875   0.6375   0.05
0.0875   0.6625   0.05
0.0875   0.6875   0.05
0.0875   0.7125   0.05
0.0875   0.7375   0.05
0.0875   0.7625   0.05
0.0875   0.7875   0.05
0.0875   0.8125   0.05
0.0875   0.8375   0.05
0.0875   0.8625   0.05
0.0875   0.8875   0.05
0.0875   0.9125   0.05
0.0875   0.9375   0.05
0.0875   0.9625   0.05
0.0875   0.9875   0.05
0.1125   0.0125   0.05
0.1125   0.0375   0.05
0.1125   0.0625   0.05
0.1125   0.0875   0.05
0.1125   0.1125   0.05
0.1125   0.1375   0.05
0.1125   0.1625   0.05
0.1125   0.1875   0.05
0.1125   0.2125   0.05
0.1125   0.2375   0.05
0.1125   0.2625   0.05
0.1125   0.2875   0.05
0.1125   0.3125   0.05
0.1125   0.3375   0.05
0.1125   0.3625   0.05
0.1125   0.3875   0.05
0.1125   0.4125   0.05
0.1125   0.4375   0.05
0.1125   0.4625   0.05
0.1125   0.4875   0.05
0.1125   0.5125   0.05
0.1125   0.5375   0.05
0.1125   0.5625   0.05
0.1125   0.5875   0.05
0.1125   0.6125   0.05
0.1125   0.6375   0.05
0.1125   0.6625   0.05
0.1125   0.6875   0.05
0.1125   0.7125   0.05
0.1125   0.7375   0.05
0.1125   0.7625   0.05
0.1125   0.7875   0.05
0.1125   0.8125   0.05
0.1125   0.8375   0.05
0.1125   0.8625   0.05
0.1125   0.8875   0.05
0.1125   0.9125   0.05
0.1125   0.9375   0.05
0.1125   0.9625   0.05
0.1125   0.9875   0.05
0.1375   0.0125   0.05
0.1375   0.0375   0.05
0.1375   0.0625   0.05
0.1375   0.0875   0.05
0.1375   0.1125   0.05
0.1375   0.1375   0.05
0.1375   0.1625   0.05
0.1375   0.1875   0.05
0.1375   0.2125   0.05
0.1375   0.2375   0.05
0.1375   0.2625   0.05
0.1375   0.2875   0.05
0.1375   0.3125   0.05
0.1375   0.3375   0.05
0.1375   0.3625   0.05
0.1375   0.3875   0.05
0.1375   0.4125   0.05
0.1375   0.4375   0.05
0.1375   0.4625   0.05
0.1375   0.4875   0.05
0.1375   0.5125   0.05
0.1375   0.5375   0.05
0.1375   0.5625   0.05
0.1375   0.5875   0.05
0.1375   0.6125   0.05
0.1375   0.6375   0.05
0.1375   0.6625   0.05
0.1375   0.6875   0.05
0.1375   0.7125   0.05
0.1375   0.7375   0.05
0.1375   0.7625   0.05
0.1375   0.7875   0.05
0.1375   0.8125   0.05
0.1375   0.8375   0.05
0.1375   0.8625   0.05
0.1375   0.8875   0.05
0.1375   0.9125   0.05
0.1375   0.9375   0.05
0.1375   0.9625   0.05
0.1375   0.9875   0.05
0.1625   0.0125   0.05
0.1625   0.0375   0.05
0.1625   0.0625   0.05
0.1625   0.0875   0.05
0.1625   0.1125   0.05
0.1625   0.1375   0.05
0.1625   0.1625   0.05
0.1625   0.1875   0.05
0.1625   0.2125   0.05
0.1625   0.2375   0.05
0.1625   0.2625   0.05
0.1625   0.2875   0.05
0.1625   0.3125   0.05
0.1625   0.3375   0.05
0.1625   0.3625   0.05
0.1625   0.3875   0.05
0.1625   0.4125   0.05
0.1625   0.4375   0.05
0.1625   0.4625   0.05
0.1625   0.4875   0.05
0.1625   0.5125   0.05
0.1625   0.5375   0.05
0.1625   0.5625   0.05
0.1625   0.5875   0.05
0.1625   0.6125   0.05
0.1625   0.6375   0.05
0.1625   0.6625   0.05
0.1625   0.6875   0.05
0.1625   0.7125   0.05
0.1625   0.7375   0.05
0.1625   0.7625   0.05
0.1625   0.7875   0.05
0.1625   0.8125   0.05
0.1625   0.8375   0.05
0.1625   0.8625   0.05
0.1625   0.8875   0.05
0.1625   0.9125   0.05
0.1625   0.9375   0.05
0.1625   0.9625   0.05
0.1625   0.9875   0.05
0.1875   0.0125   0.05
0.1875   0.0375   0.05
0.1875   0.0625   0.05
0.1875   0.0875   0.05
0.1875   0.1125   0.05
0.1875   0.1375   0.05
0.1875   0.1625   0.05
0.1875   0.1875   0.05
0.1875   0.2125   0.05
0.1875   0.2375   0.05
0.1875   0.2625   0.05
0.1875   0.2875   0.05
0.1875   0.3125   0.05
0.1875   0.3375   0.05
0.1875   0.3625   0.05
0.1875   0.3875   0.05
0.1875   0.4125   0.05
0.1875   0.4375   0.05
0.1875   0.4625   0.05
0.1875   0.4875   0.05
0.1875   0.5125   0.05
0.1875   0.5375   0.05
0.1875   0.5625   0.05
0.1875   0.5875   0.05
0.1875   0.6125   0.05
0.1875   0.6375   0.05
0.1875   0.6625   0.05
0.1875   0.6875   0.05
0.1875   0.7125   0.05
0.1875   0.7375   0.05
0.1875   0.7625   0.05
0.1875   0.7875   0.05
0.1875   0.8125   0.05
0.1875   0.8375   0.05
0.1875   0.8625   0.05
0.1875   0.8875   0.05
0.1875   0.9125   0.05
0.1875   0.9375   0.05
0.1875   0.9625   0.05
0.1875   0.9875   0.05
0.2125   0.0125   0.05
0.2125   0.0375   0.05
0.2125   0.0625   0.05
0.2125   0.0875   0.05
0.2125   0.1125   0.05
0.2125   0.1375   0.05
0.2125   0.1625   0.05
0.2125   0.1875   0.05
0.2125   0.2125   0.05
0.2125   0.2375   0.05
0.2125   0.2625   0.05
0.2125   0.2875   0.05
0.2125   0.3125   0.05
0.2125   0.3375   0.05
0.2125   0.3625   0.05
0.2125   0.3875   0.05
0.2125   0.4125   0.05
0.2125   0.4375   0.05
0.2125   0.4625   0.05
0.2125   0.4875   0.05
0.2125   0.5125   0.05
0.2125   0.5375   0.05
0.2125   0.5625   0.05
0.2125   0.5875   0.05
0.2125   0.6125   0.05
0.2125   0.6375   0.05
0.2125   0.6625   0.05
0.2125   0.6875   0.05
0.2125   0.7125   0.05
0.2125   0.7375   0.05
0.2125   0.7625   0.05
0.2125   0.7875   0.05
0.2125   0.8125   0.05
0.2125   0.8375   0.05
0.2125   0.8625   0.05
0.2125   0.8875   0.05
0.2125   0.9125   0.05
0.2125   0.9375   0.05
0.2125   0.9625   0.05
0.2125   0.9875   0.05
0.2375   0.0125   0.05
0.2375   0.0375   0.05
0.2375   0.0625   0.05
0.2375   0.0875   0.05
0.2375   0.1125   0.05
0.2375   0.1375   0.05
0.2375   0.1625   0.05
0.2375   0.1875   0.05
0.2375   0.2125   0.05
0.2375   0.2375   0.05
0.2375   0.2625   0.05
0.2375   0.2875   0.05
0.2375   0.3125   0.05
0.2375   0.3375   0.05
0.2375   0.3625   0.05
0.2375   0.3875   0.05
0.2375   0.4125   0.05
0.2375   0.4375   0.05
0.2375   0.4625   0.05
0.2375   0.4875   0.05
0.2375   0.5125   0.05
0.2375   0.5375   0.05
0.2375   0.5625   0.05
0.2375   0.5875   0.05
0.2375   0.6125   0.05
0.2375   0.6375   0.05
0.2375   0.6625   0.05
0.2375   0.6875   0.05
0.2375   0.7125   0.05
0.2375   0.7375   0.05
0.2375   0.7625   0.05
0.2375   0.7875   0.05
0.2375   0.8125   0.05
0.2375   0.8375   0.05
0.2375   0.8625   0.05
0.2375   0.8875   0.05
0.2375   0.9125   0.05
0.2375   0.9375   0.05
0.2375   0.9625   0.05
0.2375   0.9875   0.05
0.2625   0.0125   0.05
0.2625   0.0375   0.05
0.2625   0.0625   0.05
0.2625   0.0875   0.05
0.2625   0.1125   0.05
0.2625   0.1375   0.05
0.2625   0.1625   0.05
0.2625   0.1875   0.05
0.2625   0.2125   0.05
0.2625   0.2375   0.05
0.2625   0.2625   0.05
0.2625   0.2875   0.05
0.2625   0.3125   0.05
0.2625   0.3375   0.05
0.2625   0.3625   0.05
0.2625   0.3875   0.05
0.2625   0.4125   0.05
0.2625   0.4375   0.05
0.2625   0.4625   0.05
0.2625   0.4875   0.05
0.2625   0.5125   0.05
0.2625   0.5375   0.05
0.2625   0.5625   0.05
0.2625   0.5875   0.05
0.2625   0.6125   0.05
0.2625   0.6375   0.05
0.2625   0.6625   0.05
0.2625   0.6875   0.05
0.2625   0.7125   0.05
[...]
POINT_DATA   16000
VECTORS Velocidades double

0 0.320956 0
0 0.733282 0
0 0.857454 0
0 0.905201 0
0 0.928374 0
0 0.941739 0
0 0.950355 0
0 0.956314 0
0 0.960627 0
0 0.963846 0
0 0.966296 0
0 0.968183 0
0 0.969643 0
0 0.970767 0
0 0.97162 0
0 0.972246 0
0 0.972678 0
0 0.972938 0
0 0.973039 0
0 0.97299 0
0 0.972794 0
0 0.972448 0
0 0.971945 0
0 0.971272 0
0 0.970408 0
0 0.969326 0
0 0.967988 0
0 0.96634 0
0 0.964311 0
0 0.961797 0
0 0.958649 0
0 0.954645 0
0 0.949437 0
0 0.942441 0
0 0.932594 0
0 0.917713 0
0 0.89256 0
0 0.842109 0
0 0.715154 0
0 0.311284 0
0 0.186906 0
0 0.480564 0
0 0.646095 0
0 0.738977 0
0 0.794304 0
0 0.829601 0
0 0.853497 0
0 0.870442 0
0 0.882881 0
0 0.892243 0
0 0.89941 0
0 0.904953 0
0 0.909251 0
0 0.912569 0
0 0.915089 0
0 0.916942 0
0 0.918221 0
0 0.918989 0
0 0.919289 0
0 0.919143 0
0 0.918561 0
0 0.917534 0
0 0.916042 0
0 0.914045 0
0 0.911487 0
0 0.908287 0
0 0.904334 0
0 0.899477 0
0 0.893509 0
0 0.886138 0
0 0.876952 0
0 0.865343 0
0 0.850384 0
0 0.830601 0
0 0.803512 0
0 0.764686 0
0 0.705744 0
0 0.610238 0
0 0.446911 0
0 0.171605 0
0 0.126666 0
0 0.346345 0
0 0.502325 0
0 0.607524 0
0 0.678642 0
0 0.727871 0
0 0.762957 0
0 0.788663 0
0 0.807939 0
0 0.822656 0
0 0.834036 0
0 0.842898 0
0 0.849807 0
0 0.855159 0
0 0.859236 0
0 0.86224 0
0 0.864316 0
0 0.865563 0
0 0.866047 0
0 0.865807 0
0 0.864854 0
0 0.863179 0
0 0.860747 0
0 0.857498 0
0 0.853342 0
0 0.848155 0
0 0.841766 0
0 0.833943 0
0 0.824374 0
0 0.812629 0
0 0.798109 0
0 0.779964 0
0 0.756955 0
0 0.727229 0
0 0.687945 0
0 0.634669 0
0 0.560503 0
0 0.455283 0
0 0.306735 0
0 0.110027 0
0 0.094657 0
0 0.266972 0
0 0.40378 0
0 0.506683 0
0 0.582672 0
0 0.638863 0
0 0.680861 0
0 0.712689 0
0 0.737137 0
0 0.756129 0
0 0.771 0
0 0.782691 0
0 0.791868 0
0 0.799014 0
0 0.804478 0
0 0.808515 0
0 0.811308 0
0 0.812986 0
0 0.813635 0
0 0.813303 0
0 0.812007 0
0 0.809735 0
0 0.806441 0
0 0.802051 0
0 0.796449 0
0 0.789478 0
0 0.780925 0
0 0.770505 0
0 0.757838 0
0 0.742418 0
0 0.723558 0
0 0.700324 0
0 0.671423 0
0 0.63506 0
0 0.588739 0
0 0.529054 0
0 0.451619 0
0 0.351592 0
0 0.22583 0
0 0.0781666 0
0 0.0751917 0
0 0.215515 0
0 0.333865 0
0 0.429171 0
0 0.504072 0
0 0.562398 0
0 0.60781 0
0 0.643325 0
0 0.671266 0
0 0.693371 0
0 0.71092 0
0 0.724863 0
0 0.735896 0
0 0.74454 0
0 0.75118 0
0 0.756101 0
0 0.759512 0
0 0.761562 0
0 0.762348 0
0 0.761929 0
0 0.760326 0
0 0.757522 0
0 0.753469 0
0 0.748079 0
0 0.741222 0
0 0.732723 0
0 0.722344 0
0 0.709774 0
0 0.694609 0
0 0.676323 0
0 0.654229 0
0 0.627432 0
0 0.594769 0
0 0.554742 0
0 0.505469 0
0 0.444723 0
0 0.370174 0
0 0.280109 0
0 0.174928 0
0 0.0594014 0
0 0.062103 0
0 0.179592 0
0 0.282241 0
0 0.368639 0
0 0.439612 0
0 0.497125 0
0 0.543444 0
0 0.580686 0
0 0.610645 0
0 0.634769 0
0 0.654193 0
0 0.669794 0
0 0.682246 0
0 0.692067 0
0 0.699649 0
0 0.705288 0
0 0.709204 0
0 0.711556 0
0 0.712451 0
0 0.711952 0
0 0.710081 0
0 0.706823 0
0 0.702127 0
0 0.695899 0
0 0.688006 0
0 0.678264 0
0 0.66643 0
0 0.652193 0
0 0.635158 0
0 0.614825 0
0 0.590569 0
0 0.561612 0
0 0.527007 0
0 0.485627 0
0 0.436211 0
0 0.377483 0
0 0.308456 0
0 0.228976 0
0 0.140556 0
0 0.0472165 0
0 0.0526359 0
0 0.153022 0
0 0.242668 0
0 0.320386 0
0 0.386291 0
0 0.441353 0
0 0.486931 0
0 0.524454 0
0 0.555246 0
0 0.580451 0
0 0.601019 0
0 0.617719 0
0 0.631166 0
0 0.641842 0
0 0.650127 0
0 0.656311 0
0 0.660615 0
0 0.663199 0
0 0.664171 0
0 0.663599 0
0 0.661505 0
0 0.657876 0
0 0.652661 0
0 0.645769 0
0 0.637067 0
0 0.626375 0
0 0.613463 0
0 0.598036 0
0 0.579734 0
0 0.558114 0
0 0.532644 0
0 0.502699 0
0 0.467565 0
0 0.426467 0
0 0.378646 0
0 0.323491 0
0 0.260786 0
0 0.191061 0
0 0.115999 0
0 0.0387144 0
0 0.045414 0
0 0.132469 0
0 0.21133 0
0 0.281108 0
0 0.341667 0
0 0.39346 0
0 0.437288 0
0 0.474094 0
0 0.504826 0
0 0.530356 0
0 0.55145 0
0 0.568753 0
0 0.582802 0
0 0.594032 0
0 0.602792 0
0 0.609354 0
0 0.613929 0
0 0.616674 0
0 0.617695 0
0 0.617057 0
0 0.614787 0
0 0.610873 0
0 0.605266 0
0 0.597881 0
0 0.588594 0
0 0.57724 0
0 0.563606 0
0 0.547433 0
0 0.528406 0
0 0.506156 0
0 0.480257 0
0 0.450237 0
0 0.415595 0
0 0.375846 0
0 0.330594 0
0 0.279651 0
0 0.223205 0
0 0.162026 0
0 0.0976523 0
0 0.0324562 0
0 0.0396821 0
0 0.116009 0
0 0.185831 0
0 0.248512 0
0 0.303854 0
0 0.352047 0
0 0.393557 0
0 0.428994 0
0 0.459026 0
0 0.484303 0
0 0.505422 0
0 0.522912 0
0 0.537225 0
0 0.548738 0
0 0.557763 0
0 0.564548 0
0 0.569286 0
0 0.572126 0
0 0.573167 0
0 0.572475 0
0 0.570074 0
0 0.565956 0
0 0.56008 0
0 0.552367 0
0 0.542707 0
0 0.530954 0
0 0.516924 0
0 0.500394 0
0 0.481106 0
0 0.458766 0
0 0.433052 0
0 0.403627 0
0 0.37017 0
0 0.332411 0
0 0.290203 0
0 0.243603 0
0 0.192989 0
0 0.139166 0
0 0.08345 0
0 0.0276584 0
0 0.0349941 0
0 0.102463 0
0 0.164613 0
0 0.220998 0
0 0.271428 0
0 0.315966 0
0 0.354874 0
0 0.388546 0
0 0.417443 0
0 0.442042 0
0 0.462802 0
0 0.480142 0
0 0.494435 0
0 0.506001 0
0 0.515109 0
0 0.521978 0
0 0.526783 0
0 0.529657 0
0 0.530696 0
0 0.529958 0
0 0.527471 0
0 0.523228 0
0 0.517195 0
0 0.509305 0
0 0.499464 0
0 0.487547 0
0 0.4734 0
0 0.456844 0
0 0.437675 0
0 0.415668 0
0 0.390595 0
0 0.362233 0
0 0.330398 0
0 0.294974 0
0 0.255971 0
0 0.213582 0
0 0.168252 0
0 0.120738 0
0 0.0721373 0
0 0.0238622 0
0 0.0310698 0
0 0.0910759 0
0 0.146632 0
0 0.197434 0
0 0.243321 0
0 0.284295 0
0 0.3205 0
0 0.352187 0
0 0.379672 0
0 0.403298 0
0 0.423412 0
0 0.440342 0
0 0.454388 0
0 0.465816 0
0 0.474853 0
0 0.481688 0
0 0.486476 0
0 0.489335 0
0 0.49035 0
0 0.489578 0
0 0.487045 0
0 0.482748 0
0 0.47666 0
0 0.468727 0
0 0.45887 0
0 0.44699 0
0 0.432963 0
0 0.416648 0
0 0.397893 0
0 0.376537 0
0 0.352429 0
0 0.325436 0
0 0.295473 0
0 0.262531 0
0 0.226713 0
0 0.188277 0
0 0.147674 0
0 0.105584 0
0 0.0629152 0
0 0.020782 0
0 0.0277245 0
0 0.0813382 0
0 0.131165 0
0 0.177002 0
0 0.218723 0
0 0.256303 0
0 0.289817 0
0 0.319421 0
0 0.34533 0
0 0.367788 0
0 0.387054 0
0 0.40338 0
0 0.417004 0
0 0.428143 0
0 0.436984 0
0 0.443689 0
0 0.44839 0
0 0.45119 0
0 0.452167 0
0 0.451371 0
0 0.448828 0
0 0.444539 0
0 0.438484 0
0 0.430622 0
0 0.420891 0
0 0.409213 0
0 0.395494 0
0 0.37963 0
0 0.361513 0
0 0.341036 0
0 0.318108 0
0 0.292666 0
0 0.264696 0
0 0.234255 0
0 0.2015 0
0 0.16671 0
0 0.130317 0
0 0.0929133 0
0 0.0552535 0
0 0.0182319 0
0 0.0248315 0
0 0.0728974 0
0 0.117699 0
0 0.159105 0
0 0.197019 0
0 0.231409 0
0 0.262309 0
0 0.289814 0
0 0.314067 0
0 0.33524 0
0 0.353523 0
0 0.369108 0
0 0.382181 0
0 0.392915 0
0 0.401463 0
0 0.407961 0
0 0.412519 0
0 0.415228 0
0 0.416154 0
0 0.415344 0
0 0.412823 0
0 0.408595 0
0 0.402648 0
0 0.394952 0
0 0.385461 0
0 0.374117 0
0 0.360853 0
0 0.345597 0
0 0.328277 0
0 0.308832 0
0 0.287216 0
0 0.263417 0
0 0.23747 0
0 0.209472 0
0 0.179605 0
0 0.148149 0
0 0.115499 0
0 0.0821685 0
0 0.0487881 0
0 0.0160855 0
0 0.0223008 0
0 0.0655007 0
0 0.105858 0
0 0.143293 0
0 0.177736 0
0 0.209153 0
0 0.237554 0
0 0.262996 0
0 0.28557 0
0 0.305398 0
0 0.322617 0
0 0.33737 0
0 0.349801 0
0 0.360046 0
0 0.368229 0
0 0.37446 0
0 0.378834 0
0 0.381425 0
0 0.382293 0
0 0.381479 0
0 0.379007 0
0 0.374884 0
0 0.369106 0
0 0.361651 0
0 0.352489 0
0 0.341581 0
0 0.328881 0
0 0.314344 0
0 0.29793 0
0 0.27961 0
0 0.259375 0
0 0.237248 0
0 0.213295 0
0 0.187635 0
0 0.160459 0
0 0.132034 0
0 0.102716 0
0 0.0729486 0
0 0.0432612 0
0 0.0142543 0
0 0.0200667 0
0 0.0589618 0
0 0.0953633 0
0 0.129227 0
0 0.160504 0
0 0.189162 0
0 0.215201 0
0 0.238648 0
0 0.259564 0
0 0.278029 0
0 0.294142 0
0 0.308009 0
0 0.319739 0
0 0.329438 0
0 0.337204 0
0 0.343128 0
0 0.347286 0
0 0.349742 0
0 0.350546 0
0 0.349737 0
0 0.347336 0
0 0.343354 0
0 0.337791 0
0 0.330636 0
0 0.321871 0
0 0.311472 0
0 0.299413 0
0 0.28567 0
0 0.270228 0
0 0.253081 0
0 0.234249 0
0 0.213778 0
0 0.191751 0
0 0.1683 0
0 0.143612 0
0 0.117937 0
0 0.0915909 0
0 0.0649582 0
0 0.0384855 0
0 0.0126744 0
0 0.0180799 0
0 0.0531405 0
0 0.0860005 0
0 0.116641 0
0 0.145029 0
0 0.171138 0
0 0.194957 0
0 0.216501 0
0 0.235803 0
0 0.252919 0
0 0.267916 0
0 0.280872 0
0 0.291867 0
0 0.300985 0
0 0.308302 0
0 0.313889 0
0 0.317811 0
0 0.320119 0
0 0.320859 0
0 0.320061 0
0 0.317749 0
0 0.313935 0
0 0.308624 0
0 0.301813 0
0 0.293493 0
0 0.283653 0
0 0.272284 0
0 0.259379 0
0 0.244939 0
0 0.228981 0
0 0.21154 0
0 0.192678 0
0 0.172488 0
0 0.151105 0
0 0.128707 0
0 0.105524 0
0 0.0818363 0
0 0.0579754 0
0 0.0343218 0
0 0.0112986 0
0 0.0163025 0
0 0.0479285 0
0 0.077604 0
0 0.105328 0
0 0.131079 0
0 0.154834 0
0 0.176581 0
0 0.196321 0
0 0.214075 0
0 0.229875 0
0 0.243768 0
0 0.255809 0
0 0.266058 0
0 0.274576 0
0 0.281425 0
0 0.28666 0
0 0.290333 0
0 0.292488 0
0 0.293162 0
0 0.292384 0
0 0.290174 0
0 0.286548 0
0 0.281514 0
0 0.275075 0
0 0.267232 0
0 0.257983 0
0 0.247331 0
0 0.235283 0
0 0.221853 0
0 0.207073 0
0 0.190987 0
0 0.173668 0
0 0.155213 0
0 0.135754 0
0 0.115459 0
0 0.0945339 0
0 0.0732284 0
0 0.05183 0
0 0.0306643 0
0 0.0100913 0
0 0.014705 0
0 0.0432408 0
0 0.070042 0
0 0.0951194 0
0 0.118461 0
0 0.140048 0
0 0.159866 0
0 0.17791 0
0 0.194189 0
0 0.208722 0
0 0.221539 0
0 0.232679 0
0 0.242184 0
0 0.2501 0
0 0.256474 0
0 0.26135 0
0 0.26477 0
0 0.266769 0
0 0.267378 0
0 0.266625 0
0 0.264528 0
0 0.261104 0
0 0.256363 0
0 0.250314 0
0 0.242965 0
0 0.234322 0
0 0.224397 0
0 0.213206 0
0 0.200775 0
0 0.187142 0
0 0.172362 0
0 0.156508 0
0 0.13968 0
0 0.122003 0
0 0.103633 0
0 0.0847559 0
0 0.0655914 0
0 0.0463898 0
0 0.0274315 0
0 0.00902504 0
0 0.0132637 0
0 0.0390092 0
0 0.0632084 0
0 0.0858802 0
0 0.107019 0
0 0.126609 0
0 0.144637 0
0 0.161094 0
0 0.17598 0
0 0.189304 0
0 0.201085 0
0 0.211347 0
0 0.220123 0
0 0.227444 0
0 0.233346 0
0 0.237864 0
0 0.24103 0
0 0.242874 0
0 0.243422 0
0 0.242698 0
0 0.24072 0
0 0.237506 0
0 0.233068 0
0 0.227418 0
0 0.220569 0
0 0.212535 0
0 0.203333 0
0 0.192986 0
0 0.181527 0
0 0.169 0
0 0.155463 0
0 0.140991 0
0 0.125681 0
0 0.10965 0
0 0.0930407 0
0 0.0760213 0
0 0.0587849 0
0 0.0415499 0
0 0.0245591 0
0 0.00807823 0
0 0.0119594 0
0 0.035178 0
0 0.0570163 0
0 0.0774976 0
0 0.0966212 0
0 0.114375 0
0 0.130745 0
0 0.145721 0
0 0.159297 0
0 0.171476 0
0 0.182267 0
0 0.191687 0
0 0.199756 0
0 0.206497 0
0 0.211938 0
0 0.216103 0
0 0.21902 0
0 0.220712 0
0 0.221203 0
0 0.220512 0
0 0.218658 0
0 0.215657 0
0 0.211524 0
0 0.206274 0
0 0.199924 0
0 0.19249 0
0 0.183996 0
0 0.17447 0
0 0.163947 0
0 0.152476 0
0 0.140114 0
0 0.126938 0
0 0.113038 0
0 0.0985235 0
0 0.0835247 0
0 0.0681918 0
0 0.0526953 0
0 0.0372264 0
0 0.0219956 0
0 0.00723372 0
0 0.0107762 0
0 0.0317014 0
0 0.051393 0
0 0.0698773 0
0 0.0871568 0
0 0.103222 0
0 0.11806 0
0 0.131658 0
0 0.144008 0
0 0.155109 0
0 0.164962 0
0 0.173578 0
0 0.180969 0
0 0.187152 0
0 0.192145 0
0 0.195969 0
0 0.198644 0
0 0.20019 0
0 0.200627 0
0 0.199972 0
0 0.198243 0
0 0.195456 0
0 0.191626 0
0 0.186772 0
0 0.18091 0
0 0.174063 0
0 0.166255 0
0 0.157517 0
0 0.147889 0
0 0.137417 0
0 0.126162 0
0 0.114194 0
0 0.1016 0
0 0.0884808 0
0 0.0749538 0
0 0.0611531 0
0 0.0472295 0
0 0.0333505 0
0 0.0196996 0
0 0.00647763 0
0 0.00970075 0
0 0.0285404 0
0 0.0462773 0
0 0.0629389 0
0 0.0785301 0
0 0.0930432 0
0 0.106466 0
0 0.118786 0
0 0.129994 0
0 0.140083 0
0 0.149053 0
0 0.156907 0
0 0.163652 0
0 0.169301 0
0 0.173866 0
0 0.177362 0
0 0.179806 0
0 0.181213 0
0 0.1816 0
0 0.180983 0
0 0.179379 0
0 0.176802 0
0 0.17327 0
0 0.168801 0
0 0.163414 0
0 0.157132 0
0 0.149983 0
0 0.141998 0
0 0.133217 0
0 0.123688 0
0 0.113467 0
0 0.102624 0
0 0.091237 0
0 0.0793994 0
0 0.067217 0
0 0.0548095 0
0 0.0423101 0
0 0.0298656 0
0 0.0176367 0
0 0.00579855 0
0 0.00872168 0
0 0.0256619 0
0 0.0416166 0
0 0.0566132 0
0 0.0706579 0
0 0.0837451 0
0 0.0958632 0
0 0.107 0
0 0.117145 0
0 0.126289 0
0 0.13443 0
0 0.141566 0
0 0.147702 0
0 0.152844 0
0 0.157002 0
0 0.160186 0
0 0.162409 0
0 0.163684 0
0 0.164026 0
0 0.163449 0
0 0.161967 0
0 0.159596 0
0 0.156353 0
0 0.152256 0
0 0.147326 0
0 0.141586 0
0 0.135063 0
0 0.127792 0
0 0.11981 0
0 0.111164 0
0 0.101909 0
0 0.092108 0
0 0.0818348 0
0 0.0711736 0
0 0.0602199 0
0 0.0490801 0
0 0.0378719 0
0 0.0267244 0
0 0.0157783 0
0 0.00518699 0
0 0.00782912 0
0 0.0230373 0
0 0.0373651 0
0 0.0508394 0
0 0.0634674 0
0 0.0752445 0
0 0.0861604 0
0 0.0962031 0
0 0.105361 0
0 0.113626 0
0 0.120991 0
0 0.127455 0
0 0.133017 0
0 0.137681 0
0 0.141454 0
0 0.144343 0
0 0.146358 0
0 0.14751 0
0 0.14781 0
0 0.147273 0
0 0.14591 0
0 0.143739 0
0 0.140774 0
0 0.137034 0
0 0.132539 0
0 0.127314 0
0 0.121386 0
0 0.114788 0
0 0.107556 0
0 0.0997355 0
0 0.0913775 0
0 0.0825411 0
0 0.0732938 0
0 0.063712 0
0 0.053881 0
0 0.0438955 0
0 0.0338595 0
0 0.0238866 0
0 0.0141003 0
0 0.00463493 0
0 0.00701442 0
0 0.0206412 0
0 0.0334825 0
0 0.0455641 0
0 0.0568936 0
0 0.0674672 0
0 0.0772759 0
0 0.086308 0
0 0.0945526 0
0 0.102 0
0 0.108643 0
0 0.114477 0
0 0.119502 0
0 0.123718 0
0 0.127128 0
0 0.129739 0
0 0.131559 0
0 0.132595 0
0 0.132859 0
0 0.132361 0
0 0.131115 0
0 0.129134 0
0 0.126435 0
0 0.123035 0
0 0.118954 0
0 0.114217 0
0 0.108849 0
0 0.102882 0
0 0.0963513 0
0 0.0892995 0
0 0.081774 0
0 0.073829 0
0 0.065526 0
0 0.056934 0
0 0.0481291 0
0 0.0391956 0
0 0.0302252 0
0 0.0213179 0
0 0.012582 0
0 0.00413553 0
0 0.00626992 0
0 0.0184512 0
0 0.0299329 0
0 0.0407393 0
0 0.0508779 0
0 0.060346 0
0 0.0691352 0
0 0.0772348 0
0 0.0846341 0
0 0.0913232 0
0 0.0972945 0
0 0.102543 0
0 0.107065 0
0 0.110861 0
0 0.113933 0
0 0.116284 0
0 0.11792 0
0 0.118849 0
0 0.119079 0
0 0.118621 0
0 0.117486 0
0 0.115688 0
0 0.113242 0
0 0.110164 0
0 0.106475 0
0 0.102196 0
0 0.0973538 0
0 0.0919776 0
0 0.0861015 0
0 0.079764 0
0 0.0730093 0
0 0.0658871 0
0 0.0584529 0
0 0.0507685 0
0 0.042902 0
0 0.034928 0
0 0.0269275 0
0 0.0189883 0
0 0.0112056 0
0 0.00368286 0
0 0.00558871 0
0 0.0164472 0
0 0.026684 0
0 0.0363216 0
0 0.0453675 0
0 0.0538194 0
0 0.06167 0
0 0.0689093 0
0 0.0755271 0
0 0.0815138 0
0 0.0868616 0
0 0.0915645 0
0 0.0956189 0
0 0.0990232 0
0 0.101778 0
0 0.103886 0
0 0.105352 0
0 0.106181 0
0 0.106382 0
0 0.105963 0
0 0.104935 0
0 0.10331 0
0 0.101103 0
0 0.098329 0
0 0.0950078 0
0 0.0911601 0
0 0.0868102 0
0 0.0819857 0
0 0.0767184 0
0 0.0710438 0
0 0.0650023 0
0 0.0586389 0
0 0.0520037 0
0 0.045152 0
0 0.0381442 0
0 0.0310463 0
0 0.0239296 0
0 0.0168715 0
0 0.00995525 0
0 0.00327173 0
0 0.00496453 0
0 0.0146108 0
0 0.0237061 0
0 0.0322714 0
0 0.0403136 0
0 0.047831 0
0 0.054817 0
0 0.0612626 0
0 0.0671581 0
0 0.0724945 0
0 0.0772639 0
0 0.0814602 0
0 0.0850793 0
0 0.088119 0
0 0.0905789 0
0 0.0924607 0
0 0.0937677 0
0 0.0945049 0
0 0.0946789 0
0 0.0942977 0
0 0.0933711 0
0 0.0919105 0
0 0.089929 0
0 0.0874418 0
0 0.0844662 0
0 0.0810221 0
0 0.0771321 0
0 0.0728218 0
0 0.0681203 0
0 0.0630602 0
0 0.0576782 0
0 0.0520147 0
0 0.0461146 0
0 0.0400271 0
0 0.0338059 0
0 0.027509 0
0 0.0211993 0
0 0.0149443 0
0 0.0088172 0
0 0.00289758 0
0 0.00439166 0
0 0.0129252 0
0 0.0209724 0
0 0.0285522 0
0 0.0356713 0
0 0.0423283 0
0 0.0485172 0
0 0.0542301 0
0 0.0594579 0
0 0.0641922 0
0 0.0684253 0
0 0.0721513 0
0 0.0753658 0
0 0.0780662 0
0 0.0802516 0
0 0.0819228 0
0 0.0830824 0
0 0.0837346 0
0 0.0838849 0
0 0.0835406 0
0 0.0827104 0
0 0.0814048 0
0 0.0796358 0
0 0.0774175 0
0 0.0747658 0
0 0.0716992 0
0 0.0682383 0
0 0.0644067 0
0 0.0602309 0
0 0.0557404 0
0 0.0509681 0
0 0.0459504 0
0 0.0407272 0
0 0.0353421 0
0 0.0298423 0
0 0.0242789 0
0 0.018707 0
0 0.0131857 0
0 0.00777901 0
0 0.00255629 0
0 0.00386477 0
0 0.0113748 0
0 0.0184576 0
0 0.0251302 0
0 0.0313988 0
0 0.0372623 0
0 0.0427156 0
0 0.0477512 0
0 0.0523611 0
0 0.0565375 0
0 0.0602732 0
0 0.0635625 0
0 0.0664009 0
0 0.0687857 0
0 0.0707156 0
0 0.072191 0
0 0.0732139 0
0 0.0737875 0
0 0.0739168 0
0 0.0736081 0
0 0.0728694 0
0 0.0717099 0
0 0.0701407 0
0 0.0681746 0
0 0.0658263 0
0 0.0631123 0
0 0.0600518 0
0 0.0566659 0
0 0.0529785 0
0 0.0490161 0
0 0.0448082 0
0 0.040387 0
0 0.0357878 0
0 0.0310491 0
0 0.0262123 0
0 0.0213221 0
0 0.0164265 0
0 0.011577 0
0 0.00682946 0
0 0.00224417 0
0 0.00337893 0
0 0.00994503 0
0 0.0161382 0
0 0.0219737 0
0 0.0274569 0
0 0.0325871 0
0 0.0373597 0
0 0.0417683 0
0 0.0458056 0
0 0.0494644 0
0 0.0527381 0
0 0.0556214 0
0 0.05811 0
0 0.0602011 0
0 0.0618932 0
0 0.0631865 0
0 0.0640822 0
0 0.0645833 0
0 0.0646939 0
0 0.0644196 0
0 0.0637673 0
0 0.0627455 0
0 0.0613642 0
0 0.0596347 0
0 0.0575704 0
0 0.0551863 0
0 0.0524993 0
0 0.0495286 0
0 0.0462955 0
0 0.0428235 0
0 0.0391386 0
0 0.0352693 0
0 0.0312467 0
0 0.0271042 0
0 0.0228781 0
0 0.0186073 0
0 0.0143333 0
0 0.0101009 0
0 0.00595828 0
0 0.00195784 0
0 0.00292947 0
0 0.00862229 0
0 0.0139922 0
0 0.0190526 0
0 0.0238084 0
0 0.028259 0
0 0.0324004 0
0 0.0362269 0
0 0.0397321 0
0 0.0429095 0
0 0.0457533 0
0 0.0482585 0
0 0.0504211 0
0 0.0522384 0
0 0.0537088 0
0 0.0548323 0
0 0.0556099 0
0 0.0560438 0
0 0.0561377 0
0 0.0558964 0
0 0.0553261 0
0 0.0544342 0
0 0.0532295 0
0 0.0517222 0
0 0.0499242 0
0 0.0478488 0
0 0.045511 0
0 0.0429278 0
0 0.040118 0
0 0.0371022 0
0 0.0339032 0
0 0.030546 0
0 0.0270574 0
0 0.0234666 0
0 0.0198049 0
0 0.0161057 0
0 0.0124051 0
0 0.00874138 0
0 0.00515607 0
0 0.0016942 0
0 0.00251199 0
0 0.00739363 0
0 0.0119987 0
0 0.0163387 0
0 0.0204182 0
0 0.0242364 0
0 0.0277902 0
0 0.0310745 0
0 0.0340837 0
0 0.0368121 0
0 0.0392546 0
0 0.0414066 0
0 0.0432645 0
0 0.0448259 0
0 0.0460892 0
0 0.0470541 0
0 0.0477214 0
0 0.048093 0
0 0.048172 0
0 0.0479625 0
0 0.0474699 0
0 0.0467006 0
0 0.0456623 0
0 0.0443641 0
0 0.0428162 0
0 0.0410304 0
0 0.0390199 0
0 0.0367993 0
0 0.0343851 0
0 0.0317951 0
0 0.0290491 0
0 0.0261685 0
0 0.0231764 0
0 0.020098 0
0 0.0169598 0
0 0.0137906 0
0 0.010621 0
0 0.00748373 0
0 0.00441405 0
0 0.00145035 0
0 0.00212229 0
0 0.00624669 0
0 0.0101376 0
0 0.013805 0
0 0.0172525 0
0 0.0204798 0
0 0.023484 0
0 0.0262609 0
0 0.0288057 0
0 0.0311135 0
0 0.0331798 0
0 0.0350006 0
0 0.0365728 0
0 0.037894 0
0 0.0389629 0
0 0.0397792 0
0 0.0403433 0
0 0.0406569 0
0 0.0407224 0
0 0.0405435 0
0 0.0401247 0
0 0.0394715 0
0 0.0385906 0
0 0.0374897 0
0 0.0361776 0
0 0.0346645 0
0 0.0329617 0
0 0.0310817 0
0 0.0290386 0
0 0.0268476 0
0 0.0245256 0
0 0.0220907 0
0 0.0195625 0
0 0.0169621 0
0 0.0143122 0
0 0.0116367 0
0 0.00896151 0
0 0.00631407 0
0 0.00372402 0
0 0.0012236 0
0 0.00175635 0
0 0.00516965 0
0 0.00838985 0
0 0.0114253 0
0 0.014279 0
0 0.0169507 0
0 0.0194382 0
0 0.0217377 0
0 0.0238454 0
0 0.025757 0
0 0.0274688 0
0 0.0289774 0
0 0.0302802 0
0 0.031375 0
0 0.0322606 0
0 0.0329368 0
0 0.0334038 0
0 0.033663 0
0 0.0337164 0
0 0.033567 0
0 0.0332186 0
0 0.0326758 0
0 0.0319442 0
0 0.0310302 0
0 0.0299415 0
0 0.0286863 0
0 0.0272742 0
0 0.0257157 0
0 0.0240226 0
0 0.0222076 0
0 0.0202846 0
0 0.0182688 0
0 0.0161763 0
0 0.0140248 0
0 0.0118327 0
0 0.00962007 0
0 0.00740803 0
0 0.00521928 0
0 0.00307822 0
0 0.00101139 0
0 0.00141029 0
0 0.00415109 0
0 0.00673693 0
0 0.00917451 0
0 0.0114664 0
0 0.0136123 0
0 0.0156104 0
0 0.0174578 0
0 0.0191512 0
0 0.0206873 0
0 0.022063 0
0 0.0232755 0
0 0.0243226 0
0 0.0252025 0
0 0.0259144 0
0 0.0264577 0
0 0.0268328 0
0 0.0270407 0
0 0.027083 0
0 0.0269621 0
0 0.0266811 0
0 0.0262438 0
0 0.0256547 0
0 0.024919 0
0 0.0240428 0
0 0.023033 0
0 0.0218973 0
0 0.0206442 0
0 0.0192832 0
0 0.0178246 0
0 0.0162797 0
0 0.0146606 0
0 0.0129803 0
0 0.011253 0
0 0.00949353 0
0 0.00771784 0
0 0.00594291 0
0 0.00418689 0
0 0.00246928 0
0 0.000811306 0
0 0.00108035 0
0 0.00317995 0
0 0.00516089 0
0 0.00702835 0
0 0.00878426 0
0 0.0104285 0
0 0.0119596 0
0 0.0133753 0
0 0.0146732 0
0 0.0158506 0
0 0.0169051 0
0 0.0178346 0
0 0.0186373 0
0 0.0193119 0
0 0.0198576 0
0 0.020274 0
0 0.0205614 0
0 0.0207205 0
0 0.0207525 0
0 0.0206594 0
0 0.0204434 0
0 0.0201075 0
0 0.0196552 0
0 0.0190905 0
0 0.0184181 0
0 0.0176434 0
0 0.0167723 0
0 0.0158114 0
0 0.014768 0
0 0.0136499 0
0 0.0124659 0
0 0.0112254 0
0 0.00993819 0
0 0.00861518 0
0 0.00726776 0
0 0.00590811 0
0 0.00454921 0
0 0.0032049 0
0 0.0018901 0
0 0.000621006 0
0 0.000762851 0
0 0.00224542 0
0 0.00364422 0
0 0.00496293 0
0 0.00620293 0
0 0.00736412 0
0 0.00844546 0
0 0.00944542 0
0 0.0103622 0
0 0.0111939 0
0 0.0119389 0