# vtk DataFile Version 2.0
Presion
ASCII

DATASET STRUCTURED_GRID
DIMENSIONS   40   40   20

POINTS   32000   double
0.0125   0.0125   0.025
0.0375   0.0125   0.025
0.0625   0.0125   0.025
0.0875   0.0125   0.025
0.1125   0.0125   0.025
0.1375   0.0125   0.025
0.1625   0.0125   0.025
0.1875   0.0125   0.025
0.2125   0.0125   0.025
0.2375   0.0125   0.025
0.2625   0.0125   0.025
0.2875   0.0125   0.025
0.3125   0.0125   0.025
0.3375   0.0125   0.025
0.3625   0.0125   0.025
0.3875   0.0125   0.025
0.4125   0.0125   0.025
0.4375   0.0125   0.025
0.4625   0.0125   0.025
0.4875   0.0125   0.025
0.5125   0.0125   0.025
0.5375   0.0125   0.025
0.5625   0.0125   0.025
0.5875   0.0125   0.025
0.6125   0.0125   0.025
0.6375   0.0125   0.025
0.6625   0.0125   0.025
0.6875   0.0125   0.025
0.7125   0.0125   0.025
0.7375   0.0125   0.025
0.7625   0.0125   0.025
0.7875   0.0125   0.025
0.8125   0.0125   0.025
0.8375   0.0125   0.025
0.8625   0.0125   0.025
0.8875   0.0125   0.025
0.9125   0.0125   0.025
0.9375   0.0125   0.025
0.9625   0.0125   0.025
0.9875   0.0125   0.025
0.0125   0.0375   0.025
0.0375   0.0375   0.025
0.0625   0.0375   0.025
0.0875   0.0375   0.025
0.1125   0.0375   0.025
0.1375   0.0375   0.025
0.1625   0.0375   0.025
0.1875   0.0375   0.025
0.2125   0.0375   0.025
0.2375   0.0375   0.025
0.2625   0.0375   0.025
0.2875   0.0375   0.025
0.3125   0.0375   0.025
0.3375   0.0375   0.025
0.3625   0.0375   0.025
0.3875   0.0375   0.025
0.4125   0.0375   0.025
0.4375   0.0375   0.025
0.4625   0.0375   0.025
0.4875   0.0375   0.025
0.5125   0.0375   0.025
0.5375   0.0375   0.025
0.5625   0.0375   0.025
0.5875   0.0375   0.025
0.6125   0.0375   0.025
0.6375   0.0375   0.025
0.6625   0.0375   0.025
0.6875   0.0375   0.025
0.7125   0.0375   0.025
0.7375   0.0375   0.025
0.7625   0.0375   0.025
0.7875   0.0375   0.025
0.8125   0.0375   0.025
0.8375   0.0375   0.025
0.8625   0.0375   0.025
0.8875   0.0375   0.025
0.9125   0.0375   0.025
0.9375   0.0375   0.025
0.9625   0.0375   0.025
0.9875   0.0375   0.025
0.0125   0.0625   0.025
0.0375   0.0625   0.025
0.0625   0.0625   0.025
0.0875   0.0625   0.025
0.1125   0.0625   0.025
0.1375   0.0625   0.025
0.1625   0.0625   0.025
0.1875   0.0625   0.025
0.2125   0.0625   0.025
0.2375   0.0625   0.025
0.2625   0.0625   0.025
0.2875   0.0625   0.025
0.3125   0.0625   0.025
0.3375   0.0625   0.025
0.3625   0.0625   0.025
0.3875   0.0625   0.025
0.4125   0.0625   0.025
0.4375   0.0625   0.025
0.4625   0.0625   0.025
0.4875   0.0625   0.025
0.5125   0.0625   0.025
0.5375   0.0625   0.025
0.5625   0.0625   0.025
0.5875   0.0625   0.025
0.6125   0.0625   0.025
0.6375   0.0625   0.025
0.6625   0.0625   0.025
0.6875   0.0625   0.025
0.7125   0.0625   0.025
0.7375   0.0625   0.025
0.7625   0.0625   0.025
0.7875   0.0625   0.025
0.8125   0.0625   0.025
0.8375   0.0625   0.025
0.8625   0.0625   0.025
0.8875   0.0625   0.025
0.9125   0.0625   0.025
0.9375   0.0625   0.025
0.9625   0.0625   0.025
0.9875   0.0625   0.025
0.0125   0.0875   0.025
0.0375   0.0875   0.025
0.0625   0.0875   0.025
0.0875   0.0875   0.025
0.1125   0.0875   0.025
0.1375   0.0875   0.025
0.1625   0.0875   0.025
0.1875   0.0875   0.025
0.2125   0.0875   0.025
0.2375   0.0875   0.025
0.2625   0.0875   0.025
0.2875   0.0875   0.025
0.3125   0.0875   0.025
0.3375   0.0875   0.025
0.3625   0.0875   0.025
0.3875   0.0875   0.025
0.4125   0.0875   0.025
0.4375   0.0875   0.025
0.4625   0.0875   0.025
0.4875   0.0875   0.025
0.5125   0.0875   0.025
0.5375   0.0875   0.025
0.5625   0.0875   0.025
0.5875   0.0875   0.025
0.6125   0.0875   0.025
0.6375   0.0875   0.025
0.6625   0.0875   0.025
0.6875   0.0875   0.025
0.7125   0.0875   0.025
0.7375   0.0875   0.025
0.7625   0.0875   0.025
0.7875   0.0875   0.025
0.8125   0.0875   0.025
0.8375   0.0875   0.025
0.8625   0.0875   0.025
0.8875   0.0875   0.025
0.9125   0.0875   0.025
0.9375   0.0875   0.025
0.9625   0.0875   0.025
0.9875   0.0875   0.025
0.0125   0.1125   0.025
0.0375   0.1125   0.025
0.0625   0.1125   0.025
0.0875   0.1125   0.025
0.1125   0.1125   0.025
0.1375   0.1125   0.025
0.1625   0.1125   0.025
0.1875   0.1125   0.025
0.2125   0.1125   0.025
0.2375   0.1125   0.025
0.2625   0.1125   0.025
0.2875   0.1125   0.025
0.3125   0.1125   0.025
0.3375   0.1125   0.025
0.3625   0.1125   0.025
0.3875   0.1125   0.025
0.4125   0.1125   0.025
0.4375   0.1125   0.025
0.4625   0.1125   0.025
0.4875   0.1125   0.025
0.5125   0.1125   0.025
0.5375   0.1125   0.025
0.5625   0.1125   0.025
0.5875   0.1125   0.025
0.6125   0.1125   0.025
0.6375   0.1125   0.025
0.6625   0.1125   0.025
0.6875   0.1125   0.025
0.7125   0.1125   0.025
0.7375   0.1125   0.025
0.7625   0.1125   0.025
0.7875   0.1125   0.025
0.8125   0.1125   0.025
0.8375   0.1125   0.025
0.8625   0.1125   0.025
0.8875   0.1125   0.025
0.9125   0.1125   0.025
0.9375   0.1125   0.025
0.9625   0.1125   0.025
0.9875   0.1125   0.025
0.0125   0.1375   0.025
0.0375   0.1375   0.025
0.0625   0.1375   0.025
0.0875   0.1375   0.025
0.1125   0.1375   0.025
0.1375   0.1375   0.025
0.1625   0.1375   0.025
0.1875   0.1375   0.025
0.2125   0.1375   0.025
0.2375   0.1375   0.025
0.2625   0.1375   0.025
0.2875   0.1375   0.025
0.3125   0.1375   0.025
0.3375   0.1375   0.025
0.3625   0.1375   0.025
0.3875   0.1375   0.025
0.4125   0.1375   0.025
0.4375   0.1375   0.025
0.4625   0.1375   0.025
0.4875   0.1375   0.025
0.5125   0.1375   0.025
0.5375   0.1375   0.025
0.5625   0.1375   0.025
0.5875   0.1375   0.025
0.6125   0.1375   0.025
0.6375   0.1375   0.025
0.6625   0.1375   0.025
0.6875   0.1375   0.025
0.7125   0.1375   0.025
0.7375   0.1375   0.025
0.7625   0.1375   0.025
0.7875   0.1375   0.025
0.8125   0.1375   0.025
0.8375   0.1375   0.025
0.8625   0.1375   0.025
0.8875   0.1375   0.025
0.9125   0.1375   0.025
0.9375   0.1375   0.025
0.9625   0.1375   0.025
0.9875   0.1375   0.025
0.0125   0.1625   0.025
0.0375   0.1625   0.025
0.0625   0.1625   0.025
0.0875   0.1625   0.025
0.1125   0.1625   0.025
0.1375   0.1625   0.025
0.1625   0.1625   0.025
0.1875   0.1625   0.025
0.2125   0.1625   0.025
0.2375   0.1625   0.025
0.2625   0.1625   0.025
0.2875   0.1625   0.025
0.3125   0.1625   0.025
0.3375   0.1625   0.025
0.3625   0.1625   0.025
0.3875   0.1625   0.025
0.4125   0.1625   0.025
0.4375   0.1625   0.025
0.4625   0.1625   0.025
0.4875   0.1625   0.025
0.5125   0.1625   0.025
0.5375   0.1625   0.025
0.5625   0.1625   0.025
0.5875   0.1625   0.025
0.6125   0.1625   0.025
0.6375   0.1625   0.025
0.6625   0.1625   0.025
0.6875   0.1625   0.025
0.7125   0.1625   0.025
0.7375   0.1625   0.025
0.7625   0.1625   0.025
0.7875   0.1625   0.025
0.8125   0.1625   0.025
0.8375   0.1625   0.025
0.8625   0.1625   0.025
0.8875   0.1625   0.025
0.9125   0.1625   0.025
0.9375   0.1625   0.025
0.9625   0.1625   0.025
0.9875   0.1625   0.025
0.0125   0.1875   0.025
0.0375   0.1875   0.025
0.0625   0.1875   0.025
0.0875   0.1875   0.025
0.1125   0.1875   0.025
0.1375   0.1875   0.025
0.1625   0.1875   0.025
0.1875   0.1875   0.025
0.2125   0.1875   0.025
0.2375   0.1875   0.025
0.2625   0.1875   0.025
0.2875   0.1875   0.025
0.3125   0.1875   0.025
0.3375   0.1875   0.025
0.3625   0.1875   0.025
0.3875   0.1875   0.025
0.4125   0.1875   0.025
0.4375   0.1875   0.025
0.4625   0.1875   0.025
0.4875   0.1875   0.025
0.5125   0.1875   0.025
0.5375   0.1875   0.025
0.5625   0.1875   0.025
0.5875   0.1875   0.025
0.6125   0.1875   0.025
0.6375   0.1875   0.025
0.6625   0.1875   0.025
0.6875   0.1875   0.025
0.7125   0.1875   0.025
0.7375   0.1875   0.025
0.7625   0.1875   0.025
0.7875   0.1875   0.025
0.8125   0.1875   0.025
0.8375   0.1875   0.025
0.8625   0.1875   0.025
0.8875   0.1875   0.025
0.9125   0.1875   0.025
0.9375   0.1875   0.025
0.9625   0.1875   0.025
0.9875   0.1875   0.025
0.0125   0.2125   0.025
0.0375   0.2125   0.025
0.0625   0.2125   0.025
0.0875   0.2125   0.025
0.1125   0.2125   0.025
0.1375   0.2125   0.025
0.1625   0.2125   0.025
0.1875   0.2125   0.025
0.2125   0.2125   0.025
0.2375   0.2125   0.025
0.2625   0.2125   0.025
0.2875   0.2125   0.025
0.3125   0.2125   0.025
0.3375   0.2125   0.025
0.3625   0.2125   0.025
0.3875   0.2125   0.025
0.4125   0.2125   0.025
0.4375   0.2125   0.025
0.4625   0.2125   0.025
0.4875   0.2125   0.025
0.5125   0.2125   0.025
0.5375   0.2125   0.025
0.5625   0.2125   0.025
0.5875   0.2125   0.025
0.6125   0.2125   0.025
0.6375   0.2125   0.025
0.6625   0.2125   0.025
0.6875   0.2125   0.025
0.7125   0.2125   0.025
0.7375   0.2125   0.025
0.7625   0.2125   0.025
0.7875   0.2125   0.025
0.8125   0.2125   0.025
0.8375   0.2125   0.025
0.8625   0.2125   0.025
0.8875   0.2125   0.025
0.9125   0.2125   0.025
0.9375   0.2125   0.025
0.9625   0.2125   0.025
0.9875   0.2125   0.025
0.0125   0.2375   0.025
0.0375   0.2375   0.025
0.0625   0.2375   0.025
0.0875   0.2375   0.025
0.1125   0.2375   0.025
0.1375   0.2375   0.025
0.1625   0.2375   0.025
0.1875   0.2375   0.025
0.2125   0.2375   0.025
0.2375   0.2375   0.025
0.2625   0.2375   0.025
0.2875   0.2375   0.025
0.3125   0.2375   0.025
0.3375   0.2375   0.025
0.3625   0.2375   0.025
0.3875   0.2375   0.025
0.4125   0.2375   0.025
0.4375   0.2375   0.025
0.4625   0.2375   0.025
0.4875   0.2375   0.025
0.5125   0.2375   0.025
0.5375   0.2375   0.025
0.5625   0.2375   0.025
0.5875   0.2375   0.025
0.6125   0.2375   0.025
0.6375   0.2375   0.025
0.6625   0.2375   0.025
0.6875   0.2375   0.025
0.7125   0.2375   0.025
0.7375   0.2375   0.025
0.7625   0.2375   0.025
0.7875   0.2375   0.025
0.8125   0.2375   0.025
0.8375   0.2375   0.025
0.8625   0.2375   0.025
0.8875   0.2375   0.025
0.9125   0.2375   0.025
0.9375   0.2375   0.025
0.9625   0.2375   0.025
0.9875   0.2375   0.025
0.0125   0.2625   0.025
0.0375   0.2625   0.025
0.0625   0.2625   0.025
0.0875   0.2625   0.025
0.1125   0.2625   0.025
0.1375   0.2625   0.025
0.1625   0.2625   0.025
0.1875   0.2625   0.025
0.2125   0.2625   0.025
0.2375   0.2625   0.025
0.2625   0.2625   0.025
[...]
POINT_DATA   32000
SCALARS Presion double
LOOKUP_TABLE   Presion

0 0 0 0 0 0 0 0 0 0 0 0 0 0 0 0 0 0 0 0 0 0 0 0 0 0 0 0 0 0 0 0 0 0 0 0 0 0 0 0 -0.00310098 -0.00348348 -0.00404775 -0.00461053 -0.00511623 -0.00554132 -0.0058729 -0.0061034 -0.00622899 -0.0062487 -0.00616366 -0.0059774 -0.00569414 -0.00531926 -0.0048589 -0.0043198 -0.00370926 -0.0030352 -0.00230617 -0.00153153 -0.000720901 0.000113371 0.00095953 0.00180427 0.00263331 0.00343153 0.00418318 0.00487224 0.00548281 0.00599955 0.00640838 0.00669634 0.00685294 0.00686998 0.00674185 0.00646565 0.0060417 0.00547792 0.00481409 0.00425175 -0.00379019 -0.00389276 -0.00422826 -0.00464559 -0.00506416 -0.00543983 -0.00574704 -0.00597058 -0.00610171 -0.00613613 -0.00607226 -0.00591208 -0.00565812 -0.00531454 -0.00488646 -0.00437977 -0.00380104 -0.00315752 -0.00245713 -0.00170864 -0.000920693 -0.000105669 0.000725587 0.00156036 0.00238493 0.00318467 0.00394428 0.00464811 0.00528052 0.00582646 0.00627227 0.0066053 0.00681615 0.00689849 0.00685033 0.00667568 0.00638807 0.00601969 0.00564651 0.005455 -0.00400025 -0.0040909 -0.00434757 -0.00468795 -0.00504903 -0.00538762 -0.00567506 -0.00589274 -0.00602903 -0.00607721 -0.00603355 -0.00589868 -0.00567356 -0.00536108 -0.00496526 -0.00449097 -0.00394384 -0.00333021 -0.00265719 -0.00193267 -0.00116419 -0.000363968 0.000458123 0.00128997 0.00211834 0.00292891 0.00370656 0.0044356 0.00510026 0.00568523 0.00617676 0.00656188 0.0068316 0.0069805 0.00700839 0.00692228 0.0067397 0.00649529 0.00625377 0.00613036 -0.00397557 -0.00413736 -0.00439902 -0.00471942 -0.00505702 -0.00537762 -0.00565555 -0.00587251 -0.00601615 -0.00607866 -0.00605491 -0.00594464 -0.00574744 -0.00546507 -0.0051004 -0.00465724 -0.00414014 -0.00355444 -0.00290619 -0.00220232 -0.0014491 -0.000658487 0.000160656 0.000996801 0.00183708 0.00266735 0.00347235 0.00423603 0.00494202 0.00557424 0.00611827 0.00656007 0.00689017 0.0071028 0.00719769 0.00718166 0.00707087 0.00689428 0.00669832 0.00654952 -0.00384806 -0.00410003 -0.00440599 -0.00474345 -0.00508556 -0.00540728 -0.00568786 -0.00591138 -0.00606636 -0.00614501 -0.00614156 -0.00605538 -0.00588505 -0.00563134 -0.0052961 -0.00488205 -0.00439266 -0.00383212 -0.00320539 -0.00251831 -0.00177578 -0.000989437 -0.000167089 0.000680299 0.00154017 0.00239835 0.00323926 0.00404614 0.00480161 0.00548833 0.0060906 0.00659257 0.00698342 0.00725597 0.00740847 0.00744587 0.00738108 0.00723634 0.00704405 0.0068442 -0.00369133 -0.00403202 -0.00439816 -0.00477385 -0.00514021 -0.00547879 -0.00577348 -0.00601127 -0.00618232 -0.00627962 -0.00629738 -0.00623507 -0.00609059 -0.00586396 -0.00555614 -0.00516887 -0.00470451 -0.00416611 -0.00355748 -0.00288328 -0.00214699 -0.00135982 -0.000528519 0.000336537 0.00122305 0.00211674 0.00300148 0.00385957 0.00467224 0.00542041 0.00608653 0.00665224 0.00710462 0.00743424 0.00763706 0.00771544 0.00767887 0.0075443 0.0073354 0.00707927 -0.00354878 -0.0039715 -0.00440277 -0.00482771 -0.00523097 -0.00559804 -0.00591625 -0.00617523 -0.00636698 -0.00648562 -0.00652574 -0.00648727 -0.00636773 -0.00616666 -0.0058843 -0.00552147 -0.00507953 -0.00456039 -0.00396664 -0.00330175 -0.00256768 -0.00177517 -0.000929797 -4.13166e-05 0.000878241 0.00181445 0.00275052 0.00366758 0.00454516 0.00536199 0.00609818 0.00673217 0.00724826 0.0076341 0.00788281 0.00799392 0.00797397 0.00783633 0.00760012 0.00728726 -0.00344763 -0.00394568 -0.00444249 -0.00492196 -0.00536969 -0.00577315 -0.00612193 -0.0064077 -0.00662412 -0.00676654 -0.00683016 -0.0068156 -0.00672027 -0.00654343 -0.00628477 -0.00594435 -0.00552256 -0.00502021 -0.00443868 -0.00378016 -0.00304503 -0.00224344 -0.00137968 -0.000462796 0.000495536 0.00148076 0.00247538 0.00345919 0.00440974 0.00530321 0.00611683 0.00682515 0.00740908 0.00785269 0.00814577 0.00828494 0.00827421 0.00812489 0.00785446 0.00748406 -0.00340611 -0.00397439 -0.00453577 -0.0050721 -0.00556862 -0.00601355 -0.00639777 -0.00671443 -0.00695857 -0.00712672 -0.0072148 -0.00722424 -0.00715256 -0.0069989 -0.00676258 -0.006443 -0.00603968 -0.00555236 -0.00498117 -0.00432698 -0.00358845 -0.00277502 -0.00188955 -0.000940175 6.19228e-05 0.00110215 0.00216236 0.00322089 0.00425313 0.00523228 0.00613221 0.00692288 0.00758108 0.0080866 0.00842536 0.00859081 0.0085848 0.00841759 0.00810699 0.0076762 -0.00343742 -0.00407279 -0.00469782 -0.00529206 -0.00583979 -0.00632926 -0.00675204 -0.00710232 -0.00737629 -0.00757154 -0.00768476 -0.00771828 -0.00766986 -0.00753869 -0.00732386 -0.00702422 -0.00663848 -0.00616532 -0.00560363 -0.00495284 -0.00420977 -0.00338297 -0.00247362 -0.00148872 -0.000438714 0.000661975 0.00179462 0.00293616 0.00405959 0.0051348 0.00613179 0.0070151 0.00775661 0.00833096 0.00871948 0.00891203 0.00890828 0.00871815 0.00836112 0.00786439 -0.00355209 -0.00425331 -0.00494173 -0.00559456 -0.0061949 -0.0067307 -0.00719387 -0.00757938 -0.0078844 -0.00810756 -0.00824632 -0.00830398 -0.00827866 -0.00816974 -0.00797616 -0.00769635 -0.00732826 -0.00686952 -0.00631772 -0.00567078 -0.00492348 -0.00408324 -0.00314927 -0.00212711 -0.00102611 0.000139769 0.00135146 0.00258457 0.00380961 0.00499281 0.00609974 0.00708864 0.00792548 0.0085787 0.00902402 0.00924697 0.0092448 0.0090273 0.00861658 0.00804537 -0.00375942 -0.00452694 -0.00527937 -0.00599162 -0.00664553 -0.00722863 -0.0077331 -0.00815459 -0.0084912 -0.00874257 -0.00890705 -0.00898894 -0.00898683 -0.00890042 -0.0087286 -0.00846945 -0.00812022 -0.00767749 -0.0071375 -0.00649649 -0.00574703 -0.00489508 -0.00393752 -0.00287799 -0.0017243 -0.000489494 0.000807386 0.00214081 0.00347881 0.00478364 0.00601585 0.00712637 0.00807408 0.00881982 0.00933239 0.00959187 0.00959234 0.00934345 0.00887049 0.00821295 -0.00406853 -0.00490426 -0.00572224 -0.00649509 -0.0072034 -0.00783436 -0.00838042 -0.00883798 -0.00920614 -0.00948567 -0.00967589 -0.00978218 -0.00980375 -0.0097407 -0.00959201 -0.00935544 -0.00902761 -0.00860404 -0.00807953 -0.00744852 -0.00670111 -0.0058414 -0.00486352 -0.00376864 -0.00256242 -0.00125638 0.000131004 0.00157345 0.00303662 0.00447856 0.0058542 0.00710601 0.00818433 0.00904068 0.00963511 0.00994064 0.00994705 0.00966329 0.00911812 0.00835886 -0.004489 -0.00539614 -0.00628211 -0.00711718 -0.00788079 -0.00855989 -0.0091474 -0.00964063 -0.0100399 -0.0103472 -0.0105631 -0.0106942 -0.0107403 -0.0107022 -0.0105789 -0.0103681 -0.0100657 -0.00966629 -0.00916304 -0.00854843 -0.00780986 -0.00694912 -0.005957 -0.00483154 -0.00357548 -0.00219797 -0.000716144 0.000843578 0.0024448 0.00404128 0.00558165 0.00699874 0.00823256 0.0092231 0.00991929 0.0102848 0.0103035 0.00998235 0.00935367 0.00847343 -0.00503147 -0.00601434 -0.00697153 -0.0078709 -0.00869081 -0.00941819 -0.0100467 -0.0105748 -0.0110043 -0.0113389 -0.0115804 -0.0117367 -0.0118088 -0.0117979 -0.0117034 -0.011523 -0.0112519 -0.0108836 -0.0104098 -0.00982075 -0.00910095 -0.00824925 -0.00725253 -0.00610485 -0.004805 -0.0033587 -0.00178066 -9.64838e-05 0.00165599 0.0034263 0.00515625 0.00676769 0.00818819 0.00934345 0.0101681 0.0106136 0.0106548 0.0102957 0.00957117 0.00854661 -0.00570796 -0.00677192 -0.00780433 -0.00877052 -0.00964782 -0.0104234 -0.011092 -0.0116538 -0.0121124 -0.0124734 -0.0127404 -0.0129227 -0.0130226 -0.013042 -0.012981 -0.012837 -0.0126048 -0.012277 -0.0118436 -0.0112925 -0.0106051 -0.00977659 -0.00878929 -0.00763226 -0.00629914 -0.00479077 -0.00311796 -0.00130415 0.000612398 0.00257749 0.00452561 0.00636638 0.00801236 0.00937157 0.0103604 0.0109135 0.0109937 0.0105989 0.00976574 0.00856921 -0.00653224 -0.00768366 -0.00879603 -0.00983189 -0.0107677 -0.0115911 -0.0122985 -0.0128922 -0.0133782 -0.0137644 -0.0140566 -0.0142659 -0.0143958 -0.0144496 -0.0144277 -0.0143277 -0.0141441 -0.0138686 -0.0134895 -0.0129924 -0.0123551 -0.0115687 -0.0106101 -0.00946213 -0.00811189 -0.00655353 -0.004792 -0.00284668 -0.000754631 0.00142715 0.00362576 0.00573736 0.00765668 0.00926985 0.0104697 0.0111689 0.0113127 0.0108894 0.00993525 0.00853485 -0.00752012 -0.00876643 -0.00996422 -0.0110729 -0.0120681 -0.0129384 -0.0136825 -0.0143055 -0.0148165 -0.0152261 -0.015543 -0.01578 -0.0159427 -0.0160353 -0.0160592 -0.0160123 -0.0158891 -0.0156801 -0.0153723 -0.0149488 -0.0143841 -0.0136638 -0.0127591 -0.0116452 -0.0103008 -0.00871138 -0.00687343 -0.00479969 -0.00252367 -0.000103462 0.00238106 0.00481178 0.00706254 0.00899262 0.0104648 0.0113622 0.0116056 0.0111681 0.0100827 0.00844257 -0.00868975 -0.0100396 -0.011329 -0.0125137 -0.0135687 -0.0144843 -0.0152618 -0.0159102 -0.0164425 -0.0168728 -0.017213 -0.0174783 -0.0176762 -0.0178126 -0.0178898 -0.0179063 -0.0178565 -0.0177307 -0.0175141 -0.0171876 -0.0167221 -0.0160975 -0.0152781 -0.0142304 -0.0129228 -0.0113293 -0.00943515 -0.00724303 -0.00477962 -0.00210139 0.000706188 0.00351059 0.00616175 0.00848653 0.0103096 0.0114749 0.0118693 0.0114426 0.0102196 0.00830052 -0.010062 -0.0115256 -0.0129136 -0.0141776 -0.015292 -0.0162493 -0.0170551 -0.0177232 -0.0182712 -0.0187178 -0.0190788 -0.0193719 -0.0196071 -0.019792 -0.0199301 -0.0200208 -0.020059 -0.0200343 -0.0199311 -0.0197278 -0.0193922 -0.0188977 -0.018201 -0.0172588 -0.016027 -0.0144654 -0.0125446 -0.0102531 -0.00760643 -0.0046554 -0.00148842 0.00174864 0.00487947 0.00769267 0.00996529 0.0114899 0.0121064 0.0117301 0.0103703 0.008131 -0.0116609 -0.0132503 -0.0147448 -0.0160909 -0.0172627 -0.0182561 -0.0190823 -0.0197612 -0.0203168 -0.0207728 -0.02115 -0.0214687 -0.0217418 -0.0219788 -0.022185 -0.0223606 -0.0225011 -0.0225963 -0.0226298 -0.0225777 -0.0224051 -0.0220784 -0.0215466 -0.0207549 -0.0196452 -0.0181604 -0.0162524 -0.013891 -0.011075 -0.00784453 -0.00428628 -0.000556606 0.00314105 0.0065517 0.0093943 0.0113952 0.0123298 0.0120634 0.0105784 0.0079772 -0.0135143 -0.0152443 -0.0168543 -0.0182844 -0.0195091 -0.0205293 -0.0213637 -0.0220404 -0.0225911 -0.0230462 -0.0234317 -0.0237712 -0.0240806 -0.0243717 -0.0246513 -0.024921 -0.0251772 -0.0254099 -0.0256024 -0.0257293 -0.0257529 -0.0256328 -0.0253097 -0.0247169 -0.0237805 -0.0224241 -0.020577 -0.0181856 -0.0152261 -0.0117208 -0.00774842 -0.00347042 0.000884292 0.00501355 0.00856781 0.0111898 0.0125687 0.0124973 0.0109145 0.00791218 -0.0156553 -0.0175441 -0.0192795 -0.0207939 -0.022063 -0.0230952 -0.0239195 -0.024575 -0.025103 -0.0255416 -0.0259232 -0.0262747 -0.0266154 -0.0269593 -0.0273148 -0.0276849 -0.0280671 -0.0284522 -0.0288232 -0.0291536 -0.0294038 -0.0295261 -0.0294533 -0.0291066 -0.0283949 -0.0272208 -0.0254881 -0.0231148 -0.0200487 -0.0162864 -0.0118906 -0.00701926 -0.0019215 0.00305321 0.00747832 0.0108946 0.0128778 0.0131185 0.011487 0.00805035 -0.0181231 -0.0201941 -0.0220659 -0.0236619 -0.0249608 -0.0259821 -0.0267694 -0.0273763 -0.0278559 -0.0282559 -0.0286156 -0.0289652 -0.0293275 -0.0297185 -0.030148 -0.0306205 -0.0311345 -0.0316816 -0.032245 -0.0327972 -0.0332973 -0.0336905 -0.0339022 -0.0338411 -0.0333993 -0.0324568 -0.0308903 -0.0285859 -0.0254575 -0.0214686 -0.0166559 -0.011163 -0.00524925 0.000693706 0.00615843 0.0105666 0.0133502 0.014058 0.0124556 0.00856222 -0.0209666 -0.0232495 -0.0252696 -0.0269393 -0.0282438 -0.0292197 -0.0299311 -0.0304505 -0.0308464 -0.0311771 -0.0314895 -0.0318171 -0.0321856 -0.0326125 -0.0331088 -0.0336799 -0.0343251 -0.0350367 -0.0357981 -0.036581 -0.0373433 -0.0380236 -0.0385401 -0.0387898 -0.0386481 -0.037973 -0.0366132 -0.0344215 -0.0312741 -0.0270954 -0.0218865 -0.0157636 -0.00898227 -0.00196393 0.00470679 0.0103209 0.014135 0.0155081 0.0140489 0.00969283 -0.0242473 -0.0267814 -0.0289617 -0.0306883 -0.0319596 -0.0328387 -0.0334187 -0.0337973 -0.0340616 -0.0342821 -0.0345133 -0.0347916 -0.0351444 -0.03559 -0.0361396 -0.0367987 -0.037567 -0.038437 -0.0393917 -0.040402 -0.0414246 -0.0423911 -0.0432134 -0.0437773 -0.0439426 -0.0435463 -0.0424106 -0.0403552 -0.0372181 -0.0328807 -0.0273018 -0.0205572 -0.0128813 -0.00470626 0.00332048 0.0103582 0.015461 0.0177429 0.016586 0.0117846 -0.0280466 -0.030884 -0.033234 -0.0349858 -0.036163 -0.0368699 -0.0372408 -0.0374066 -0.0374765 -0.0375342 -0.0376413 -0.0378353 -0.0381442 -0.0385851 -0.0391683 -0.0398983 -0.0407739 -0.0417867 -0.0429189 -0.0441394 -0.0454036 -0.0466354 -0.0477407 -0.0485947 -0.0490428 -0.048903 -0.0479731 -0.0460429 -0.042914 -0.0384258 -0.0324914 -0.0251369 -0.0165584 -0.00717429 0.00233069 0.0109982 0.0176658 0.021146 0.020504 0.015306 -0.0324765 -0.0356863 -0.0382084 -0.0399282 -0.0409164 -0.0413418 -0.041397 -0.0412549 -0.0410508 -0.040881 -0.0408122 -0.0408804 -0.0411115 -0.0415195 -0.0421115 -0.0428893 -0.0438492 -0.0449808 -0.0462637 -0.0476636 -0.0491335 -0.0505887 -0.0519286 -0.0530182 -0.0536892 -0.0537427 -0.0529551 -0.0510906 -0.0479191 -0.0432426 -0.0369311 -0.0289576 -0.0194675 -0.00884076 0.00223536 0.012717 0.0212314 0.0262434 0.0263925 0.0208876 -0.0376973 -0.0413708 -0.04405 -0.045637 -0.0462898 -0.0462772 -0.0458726 -0.0453013 -0.0447256 -0.0442521 -0.0439484 -0.0438447 -0.0439611 -0.0443052 -0.0448783 -0.045677 -0.0466935 -0.0479129 -0.0493104 -0.050847 -0.0524714 -0.0540886 -0.0555906 -0.0568315 -0.0576297 -0.0577706 -0.0570121 -0.0550966 -0.0517688 -0.0468004 -0.0400262 -0.0313702 -0.0209239 -0.00900988 0.00371855 0.0161799 0.0268242 0.0337453 0.0350394 0.0293716 -0.0439507 -0.0482047 -0.0509864 -0.0522655 -0.0523581 -0.0516865 -0.0506325 -0.0494811 -0.0484195 -0.0475576 -0.0469562 -0.0466336 -0.0465989 -0.0468488 -0.0473755 -0.0481679 -0.049211 -0.0504834 -0.0519537 -0.0535757 -0.0552915 -0.056994 -0.0585659 -0.0598489 -0.0606478 -0.060732 -0.0598424 -0.0577025 -0.0540367 -0.0485938 -0.041183 -0.0316906 -0.0201607 -0.00685304 0.0076425 0.022261 0.0353344 0.0445975 0.0474927 0.0418824 -0.051618 -0.0565919 -0.0593357 -0.060004 -0.0591942 -0.0575569 -0.05561 -0.0536988 -0.0520241 -0.050686 -0.0497262 -0.0491426 -0.0489255 -0.0490562 -0.0495135 -0.0502752 -0.0513167 -0.0526074 -0.0541066 -0.0557585 -0.057496 -0.0591979 -0.0607351 -0.0619351 -0.0625871 -0.0624437 -0.0612277 -0.0586442 -0.0543985 -0.0482203 -0.039901 -0.0293003 -0.0164295 -0.00149317 0.0149945 0.0320319 0.0479069 0.0600452 0.065151 0.0599418 -0.0613333 -0.06716 -0.0695434 -0.0690796 -0.0668523 -0.0638333 -0.0606924 -0.0578178 -0.0553985 -0.0535018 -0.0521334 -0.051258 -0.0508389 -0.0508355 -0.0512092 -0.0519233 -0.0529405 -0.0542185 -0.0557052 -0.0573325 -0.0590219 -0.0606355 -0.0620307 -0.0630182 -0.0633693 -0.0628177 -0.0610655 -0.057796 -0.0526922 -0.0454619 -0.0358769 -0.0237749 -0.00914433 0.00785047 0.0267664 0.0466926 0.0659429 0.0817074 0.0899034 0.0856679 -0.0742079 -0.08091 -0.0822266 -0.07974 -0.0753339 -0.0703866 -0.0656968 -0.0616442 -0.0583588 -0.0558403 -0.054034 -0.0528565 -0.0522342 -0.0520979 -0.0523872 -0.053048 -0.0540276 -0.05527 -0.0567096 -0.0582644 -0.0598422 -0.0612876 -0.0624417 -0.0630973 -0.0630056 -0.0618784 -0.0593935 -0.0552068 -0.0489709 -0.0403599 -0.0291121 -0.0150291 0.0019322 0.0216471 0.0437386 0.0674005 0.0910285 0.111648 0.124348 0.122143 -0.0923025 -0.0994623 -0.0982041 -0.0921935 -0.0845156 -0.0769547 -0.070327 -0.0648967 -0.0606578 -0.0574926 -0.0552557 -0.0537979 -0.0529978 -0.0527521 -0.0529748 -0.0535918 -0.054534 -0.0557303 -0.0571004 -0.0585478 -0.0599653 -0.0611799 -0.0620161 -0.0622475 -0.0616044 -0.0597748 -0.0564088 -0.0511287 -0.0435455 -0.0332819 -0.0200138 -0.00347011 0.0164694 0.0397631 0.0661356 0.0949278 0.124696 0.152379 0.172128 0.174101 -0.119673 -0.125431 -0.118438 -0.106442 -0.0939923 -0.0830198 -0.0740837 -0.0671432 -0.0619407 -0.0581754 -0.0555754 -0.0539075 -0.0529939 -0.0526928 -0.0528913 -0.0534949 -0.0544182 -0.0555754 -0.0568723 -0.0581982 -0.0594315 -0.0603835 -0.0608624 -0.0606242 -0.0593792 -0.0567918 -0.0524835 -0.0460388 -0.0370174 -0.0249711 -0.00947809 0.00986276 0.0333373 0.0611036 0.0931251 0.129052 0.167834 0.206582 0.238357 0.249191 -0.164821 -0.162829 -0.14366 -0.121821 -0.102696 -0.0875285 -0.0760753 -0.0676792 -0.0616685 -0.0574811 -0.0546849 -0.0529514 -0.0520436 -0.051783 -0.0520327 -0.0526812 -0.0536294 -0.0547797 -0.0560269 -0.0572488 -0.0583115 -0.0590148 -0.0591537 -0.0584697 -0.056657 -0.0533604 -0.0481753 -0.0406499 -0.0302897 -0.0165644 0.00107478 0.0232167 0.0504253 0.0832492 0.122179 0.167584 0.219443 0.276043 0.329851 0.360305 -0.246622 -0.21677 -0.172909 -0.135659 -0.10794 -0.0883145 -0.0747039 -0.0653656 -0.0590329 -0.0548297 -0.0521602 -0.0506125 -0.0499055 -0.0498371 -0.0502571 -0.0510456 -0.0520969 -0.053308 -0.0545675 -0.0557474 -0.0567054 -0.0572374 -0.0571296 -0.0561153 -0.0538794 -0.0500543 -0.044218 -0.0358909 -0.0245333 -0.00953942 0.00976859 0.0341894 0.064643 0.102258 0.148452 0.205049 0.274382 0.358624 0.453804 0.5302 -0.40768 -0.288871 -0.197674 -0.139379 -0.103541 -0.0813809 -0.0674504 -0.0585906 -0.0529662 -0.0494833 -0.047469 -0.046493 -0.0462738 -0.0466168 -0.0473797 -0.0484497 -0.0497268 -0.0511117 -0.0524958 -0.053753 -0.0547394 -0.0552562 -0.0550875 -0.0539671 -0.0515797 -0.0475559 -0.041469 -0.0328283 -0.0210711 -0.00554655 0.0145106 0.0400542 0.0723083 0.112983 0.164636 0.231331 0.319815 0.441312 0.60955 0.802491 -0.746954 -0.339234 -0.180791 -0.112511 -0.0792642 -0.0615098 -0.0514727 -0.0456722 -0.0423871 -0.0406944 -0.0400649 -0.0401758 -0.0408221 -0.0418638 -0.0431981 -0.0447411 -0.0464149 -0.0481372 -0.0498136 -0.0513302 -0.0525508 -0.0532924 -0.0533456 -0.0524544 -0.0503136 -0.0465642 -0.0407894 -0.032508 -0.0211651 -0.00611496 0.0134117 0.0383806 0.0700713 0.110354 0.162285 0.231534 0.330023 0.484806 0.753948 1.25345 0 0 0 0 0 0 0 0 0 0 0 0 0 0 0 0 0 0 0 0 0 0 0 0 0 0 0 0 0 0 0 0 0 0 0 0 0 0 0 0 -0.00306768 -0.00345795 -0.00396549 -0.00443021 -0.00481553 -0.00511175 -0.00531569 -0.00542652 -0.00544491 -0.00537282 -0.00521332 -0.00497045 -0.00464899 -0.00425441 -0.0037928 -0.00327085 -0.0026958 -0.00207555 -0.00141865 -0.000734378 -3.27734e-05 0.000675428 0.00137891 0.00206575 0.00272364 0.00334012 0.00390284 0.0043999 0.00482017 0.00515369 0.005392 0.00552847 0.00555856 0.00547991 0.0052924 0.00499817 0.00460225 0.00411685 0.00358296 0.00317278 -0.00379128 -0.00390153 -0.00418248 -0.00449771 -0.00478442 -0.00501376 -0.00517188 -0.00525213 -0.00525176 -0.00517045 -0.00500962 -0.00477194 -0.00446108 -0.00408157 -0.00363869 -0.00313845 -0.00258757 -0.00199346 -0.00136433 -0.00070909 -3.75258e-05 0.000639937 0.00131234 0.00196815 0.00259552 0.00318255 0.00371758 0.00418954 0.00458833 0.00490522 0.00513321 0.00526745 0.00530567 0.00524854 0.00510034 0.00487024 0.00457546 0.00424912 0.00395966 0.00385223 -0.00409643 -0.00417369 -0.00436397 -0.00459236 -0.00480944 -0.00498602 -0.00510551 -0.00515873 -0.00514101 -0.00505054 -0.0048875 -0.00465346 -0.00435107 -0.00398393 -0.00355653 -0.00307412 -0.00254276 -0.0019693 -0.00136145 -0.000727719 -7.75567e-05 0.000578901 0.00123098 0.00186738 0.00247645 0.00304654 0.00356628 0.00402498 0.00441306 0.0047225 0.00494726 0.00508382 0.00513167 0.00509382 0.00497763 0.00479621 0.00457101 0.00433645 0.00414699 0.00408146 -0.0042119 -0.00433209 -0.00450569 -0.00469688 -0.00487445 -0.00501618 -0.00510765 -0.00514005 -0.00510837 -0.0050102 -0.00484505 -0.00461372 -0.00431802 -0.00396074 -0.00354557 -0.003077 -0.00256038 -0.00200195 -0.00140886 -0.000789158 -0.000151986 0.000492773 0.00113463 0.00176232 0.0023642 0.00292854 0.00344387 0.00389949 0.0042859 0.00459531 0.0048222 0.00496384 0.00502089 0.00499779 0.00490348 0.00475218 0.00456452 0.00436876 0.00420068 0.00409794 -0.00425548 -0.00443755 -0.00462917 -0.00481462 -0.0049763 -0.00509966 -0.00517419 -0.00519295 -0.00515172 -0.00504824 -0.00488182 -0.00465281 -0.0043624 -0.00401269 -0.00360662 -0.00314796 -0.00264133 -0.00209233 -0.00150754 -0.000894555 -0.000262217 0.000379774 0.00102099 0.00165006 0.00225508 0.00282394 0.00334479 0.00380649 0.00419921 0.00451499 0.00474834 0.00489682 0.00496168 0.00494804 0.00486524 0.00472707 0.0045516 0.0043604 0.00417607 0.00401632 -0.00429085 -0.00453582 -0.00476019 -0.00495789 -0.00511996 -0.00523797 -0.00530532 -0.00531739 -0.00527125 -0.00516526 -0.00499885 -0.00477218 -0.00448601 -0.00414187 -0.00374201 -0.0032895 -0.00278829 -0.0022433 -0.00166055 -0.00104719 -0.000411806 0.000236027 0.