# vtk DataFile Version 2.0
Velocidades
ASCII

DATASET STRUCTURED_GRID
DIMENSIONS   40   40   10

POINTS   16000   double
0.0125   0.0125   0.05
0.0125   0.0375   0.05
0.0125   0.0625   0.05
0.0125   0.0875   0.05
0.0125   0.1125   0.05
0.0125   0.1375   0.05
0.0125   0.1625   0.05
0.0125   0.1875   0.05
0.0125   0.2125   0.05
0.0125   0.2375   0.05
0.0125   0.2625   0.05
0.0125   0.2875   0.05
0.0125   0.3125   0.05
0.0125   0.3375   0.05
0.0125   0.3625   0.05
0.0125   0.3875   0.05
0.0125   0.4125   0.05
0.0125   0.4375   0.05
0.0125   0.4625   0.05
0.0125   0.4875   0.05
0.0125   0.5125   0.05
0.0125   0.5375   0.05
0.0125   0.5625   0.05
0.0125   0.5875   0.05
0.0125   0.6125   0.05
0.0125   0.6375   0.05
0.0125   0.6625   0.05
0.0125   0.6875   0.05
0.0125   0.7125   0.05
0.0125   0.7375   0.05
0.0125   0.7625   0.05
0.0125   0.7875   0.05
0.0125   0.8125   0.05
0.0125   0.8375   0.05
0.0125   0.8625   0.05
0.0125   0.8875   0.05
0.0125   0.9125   0.05
0.0125   0.9375   0.05
0.0125   0.9625   0.05
0.0125   0.9875   0.05
0.0375   0.0125   0.05
0.0375   0.0375   0.05
0.0375   0.0625   0.05
0.0375   0.0875   0.05
0.0375   0.1125   0.05
0.0375   0.1375   0.05
0.0375   0.1625   0.05
0.0375   0.1875   0.05
0.0375   0.2125   0.05
0.0375   0.2375   0.05
0.0375   0.2625   0.05
0.0375   0.2875   0.05
0.0375   0.3125   0.05
0.0375   0.3375   0.05
0.0375   0.3625   0.05
0.0375   0.3875   0.05
0.0375   0.4125   0.05
0.0375   0.4375   0.05
0.0375   0.4625   0.05
0.0375   0.4875   0.05
0.0375   0.5125   0.05
0.0375   0.5375   0.05
0.0375   0.5625   0.05
0.0375   0.5875   0.05
0.0375   0.6125   0.05
0.0375   0.6375   0.05
0.0375   0.6625   0.05
0.0375   0.6875   0.05
0.0375   0.7125   0.05
0.0375   0.7375   0.05
0.0375   0.7625   0.05
0.0375   0.7875   0.05
0.0375   0.8125   0.05
0.0375   0.8375   0.05
0.0375   0.8625   0.05
0.0375   0.8875   0.05
0.0375   0.9125   0.05
0.0375   0.9375   0.05
0.0375   0.9625   0.05
0.0375   0.9875   0.05
0.0625   0.0125   0.05
0.0625   0.0375   0.05
0.0625   0.0625   0.05
0.0625   0.0875   0.05
0.0625   0.1125   0.05
0.0625   0.1375   0.05
0.0625   0.1625   0.05
0.0625   0.1875   0.05
0.0625   0.2125   0.05
0.0625   0.2375   0.05
0.0625   0.2625   0.05
0.0625   0.2875   0.05
0.0625   0.3125   0.05
0.0625   0.3375   0.05
0.0625   0.3625   0.05
0.0625   0.3875   0.05
0.0625   0.4125   0.05
0.0625   0.4375   0.05
0.0625   0.4625   0.05
0.0625   0.4875   0.05
0.0625   0.5125   0.05
0.0625   0.5375   0.05
0.0625   0.5625   0.05
0.0625   0.5875   0.05
0.0625   0.6125   0.05
0.0625   0.6375   0.05
0.0625   0.6625   0.05
0.0625   0.6875   0.05
0.0625   0.7125   0.05
0.0625   0.7375   0.05
0.0625   0.7625   0.05
0.0625   0.7875   0.05
0.0625   0.8125   0.05
0.0625   0.8375   0.05
0.0625   0.8625   0.05
0.0625   0.8875   0.05
0.0625   0.9125   0.05
0.0625   0.9375   0.05
0.0625   0.9625   0.05
0.0625   0.9875   0.05
0.0875   0.0125   0.05
0.0875   0.0375   0.05
0.0875   0.0625   0.05
0.0875   0.0875   0.05
0.0875   0.1125   0.05
0.0875   0.1375   0.05
0.0875   0.1625   0.05
0.0875   0.1875   0.05
0.0875   0.2125   0.05
0.0875   0.2375   0.05
0.0875   0.2625   0.05
0.0875   0.2875   0.05
0.0875   0.3125   0.05
0.0875   0.3375   0.05
0.0875   0.3625   0.05
0.0875   0.3875   0.05
0.0875   0.4125   0.05
0.0875   0.4375   0.05
0.0875   0.4625   0.05
0.0875   0.4875   0.05
0.0875   0.5125   0.05
0.0875   0.5375   0.05
0.0875   0.5625   0.05
0.0875   0.5875   0.05
0.0875   0.6125   0.05
0.0875   0.6375   0.05
0.0875   0.6625   0.05
0.0875   0.6875   0.05
0.0875   0.7125   0.05
0.0875   0.7375   0.05
0.0875   0.7625   0.05
0.0875   0.7875   0.05
0.0875   0.8125   0.05
0.0875   0.8375   0.05
0.0875   0.8625   0.05
0.0875   0.8875   0.05
0.0875   0.9125   0.05
0.0875   0.9375   0.05
0.0875   0.9625   0.05
0.0875   0.9875   0.05
0.1125   0.0125   0.05
0.1125   0.0375   0.05
0.1125   0.0625   0.05
0.1125   0.0875   0.05
0.1125   0.1125   0.05
0.1125   0.1375   0.05
0.1125   0.1625   0.05
0.1125   0.1875   0.05
0.1125   0.2125   0.05
0.1125   0.2375   0.05
0.1125   0.2625   0.05
0.1125   0.2875   0.05
0.1125   0.3125   0.05
0.1125   0.3375   0.05
0.1125   0.3625   0.05
0.1125   0.3875   0.05
0.1125   0.4125   0.05
0.1125   0.4375   0.05
0.1125   0.4625   0.05
0.1125   0.4875   0.05
0.1125   0.5125   0.05
0.1125   0.5375   0.05
0.1125   0.5625   0.05
0.1125   0.5875   0.05
0.1125   0.6125   0.05
0.1125   0.6375   0.05
0.1125   0.6625   0.05
0.1125   0.6875   0.05
0.1125   0.7125   0.05
0.1125   0.7375   0.05
0.1125   0.7625   0.05
0.1125   0.7875   0.05
0.1125   0.8125   0.05
0.1125   0.8375   0.05
0.1125   0.8625   0.05
0.1125   0.8875   0.05
0.1125   0.9125   0.05
0.1125   0.9375   0.05
0.1125   0.9625   0.05
0.1125   0.9875   0.05
0.1375   0.0125   0.05
0.1375   0.0375   0.05
0.1375   0.0625   0.05
0.1375   0.0875   0.05
0.1375   0.1125   0.05
0.1375   0.1375   0.05
0.1375   0.1625   0.05
0.1375   0.1875   0.05
0.1375   0.2125   0.05
0.1375   0.2375   0.05
0.1375   0.2625   0.05
0.1375   0.2875   0.05
0.1375   0.3125   0.05
0.1375   0.3375   0.05
0.1375   0.3625   0.05
0.1375   0.3875   0.05
0.1375   0.4125   0.05
0.1375   0.4375   0.05
0.1375   0.4625   0.05
0.1375   0.4875   0.05
0.1375   0.5125   0.05
0.1375   0.5375   0.05
0.1375   0.5625   0.05
0.1375   0.5875   0.05
0.1375   0.6125   0.05
0.1375   0.6375   0.05
0.1375   0.6625   0.05
0.1375   0.6875   0.05
0.1375   0.7125   0.05
0.1375   0.7375   0.05
0.1375   0.7625   0.05
0.1375   0.7875   0.05
0.1375   0.8125   0.05
0.1375   0.8375   0.05
0.1375   0.8625   0.05
0.1375   0.8875   0.05
0.1375   0.9125   0.05
0.1375   0.9375   0.05
0.1375   0.9625   0.05
0.1375   0.9875   0.05
0.1625   0.0125   0.05
0.1625   0.0375   0.05
0.1625   0.0625   0.05
0.1625   0.0875   0.05
0.1625   0.1125   0.05
0.1625   0.1375   0.05
0.1625   0.1625   0.05
0.1625   0.1875   0.05
0.1625   0.2125   0.05
0.1625   0.2375   0.05
0.1625   0.2625   0.05
0.1625   0.2875   0.05
0.1625   0.3125   0.05
0.1625   0.3375   0.05
0.1625   0.3625   0.05
0.1625   0.3875   0.05
0.1625   0.4125   0.05
0.1625   0.4375   0.05
0.1625   0.4625   0.05
0.1625   0.4875   0.05
0.1625   0.5125   0.05
0.1625   0.5375   0.05
0.1625   0.5625   0.05
0.1625   0.5875   0.05
0.1625   0.6125   0.05
0.1625   0.6375   0.05
0.1625   0.6625   0.05
0.1625   0.6875   0.05
0.1625   0.7125   0.05
0.1625   0.7375   0.05
0.1625   0.7625   0.05
0.1625   0.7875   0.05
0.1625   0.8125   0.05
0.1625   0.8375   0.05
0.1625   0.8625   0.05
0.1625   0.8875   0.05
0.1625   0.9125   0.05
0.1625   0.9375   0.05
0.1625   0.9625   0.05
0.1625   0.9875   0.05
0.1875   0.0125   0.05
0.1875   0.0375   0.05
0.1875   0.0625   0.05
0.1875   0.0875   0.05
0.1875   0.1125   0.05
0.1875   0.1375   0.05
0.1875   0.1625   0.05
0.1875   0.1875   0.05
0.1875   0.2125   0.05
0.1875   0.2375   0.05
0.1875   0.2625   0.05
0.1875   0.2875   0.05
0.1875   0.3125   0.05
0.1875   0.3375   0.05
0.1875   0.3625   0.05
0.1875   0.3875   0.05
0.1875   0.4125   0.05
0.1875   0.4375   0.05
0.1875   0.4625   0.05
0.1875   0.4875   0.05
0.1875   0.5125   0.05
0.1875   0.5375   0.05
0.1875   0.5625   0.05
0.1875   0.5875   0.05
0.1875   0.6125   0.05
0.1875   0.6375   0.05
0.1875   0.6625   0.05
0.1875   0.6875   0.05
0.1875   0.7125   0.05
0.1875   0.7375   0.05
0.1875   0.7625   0.05
0.1875   0.7875   0.05
0.1875   0.8125   0.05
0.1875   0.8375   0.05
0.1875   0.8625   0.05
0.1875   0.8875   0.05
0.1875   0.9125   0.05
0.1875   0.9375   0.05
0.1875   0.9625   0.05
0.1875   0.9875   0.05
0.2125   0.0125   0.05
0.2125   0.0375   0.05
0.2125   0.0625   0.05
0.2125   0.0875   0.05
0.2125   0.1125   0.05
0.2125   0.1375   0.05
0.2125   0.1625   0.05
0.2125   0.1875   0.05
0.2125   0.2125   0.05
0.2125   0.2375   0.05
0.2125   0.2625   0.05
0.2125   0.2875   0.05
0.2125   0.3125   0.05
0.2125   0.3375   0.05
0.2125   0.3625   0.05
0.2125   0.3875   0.05
0.2125   0.4125   0.05
0.2125   0.4375   0.05
0.2125   0.4625   0.05
0.2125   0.4875   0.05
0.2125   0.5125   0.05
0.2125   0.5375   0.05
0.2125   0.5625   0.05
0.2125   0.5875   0.05
0.2125   0.6125   0.05
0.2125   0.6375   0.05
0.2125   0.6625   0.05
0.2125   0.6875   0.05
0.2125   0.7125   0.05
0.2125   0.7375   0.05
0.2125   0.7625   0.05
0.2125   0.7875   0.05
0.2125   0.8125   0.05
0.2125   0.8375   0.05
0.2125   0.8625   0.05
0.2125   0.8875   0.05
0.2125   0.9125   0.05
0.2125   0.9375   0.05
0.2125   0.9625   0.05
0.2125   0.9875   0.05
0.2375   0.0125   0.05
0.2375   0.0375   0.05
0.2375   0.0625   0.05
0.2375   0.0875   0.05
0.2375   0.1125   0.05
0.2375   0.1375   0.05
0.2375   0.1625   0.05
0.2375   0.1875   0.05
0.2375   0.2125   0.05
0.2375   0.2375   0.05
0.2375   0.2625   0.05
0.2375   0.2875   0.05
0.2375   0.3125   0.05
0.2375   0.3375   0.05
0.2375   0.3625   0.05
0.2375   0.3875   0.05
0.2375   0.4125   0.05
0.2375   0.4375   0.05
0.2375   0.4625   0.05
0.2375   0.4875   0.05
0.2375   0.5125   0.05
0.2375   0.5375   0.05
0.2375   0.5625   0.05
0.2375   0.5875   0.05
0.2375   0.6125   0.05
0.2375   0.6375   0.05
0.2375   0.6625   0.05
0.2375   0.6875   0.05
0.2375   0.7125   0.05
0.2375   0.7375   0.05
0.2375   0.7625   0.05
0.2375   0.7875   0.05
0.2375   0.8125   0.05
0.2375   0.8375   0.05
0.2375   0.8625   0.05
0.2375   0.8875   0.05
0.2375   0.9125   0.05
0.2375   0.9375   0.05
0.2375   0.9625   0.05
0.2375   0.9875   0.05
0.2625   0.0125   0.05
0.2625   0.0375   0.05
0.2625   0.0625   0.05
0.2625   0.0875   0.05
0.2625   0.1125   0.05
0.2625   0.1375   0.05
0.2625   0.1625   0.05
0.2625   0.1875   0.05
0.2625   0.2125   0.05
0.2625   0.2375   0.05
0.2625   0.2625   0.05
0.2625   0.2875   0.05
0.2625   0.3125   0.05
0.2625   0.3375   0.05
0.2625   0.3625   0.05
0.2625   0.3875   0.05
0.2625   0.4125   0.05
0.2625   0.4375   0.05
0.2625   0.4625   0.05
0.2625   0.4875   0.05
0.2625   0.5125   0.05
0.2625   0.5375   0.05
0.2625   0.5625   0.05
0.2625   0.5875   0.05
0.2625   0.6125   0.05
0.2625   0.6375   0.05
0.2625   0.6625   0.05
0.2625   0.6875   0.05
0.2625   0.7125   0.05
[...]
POINT_DATA   16000
VECTORS Velocidades double

0 0.320925 0
0 0.733193 0
0 0.85731 0
0 0.905005 0
0 0.928129 0
0 0.941448 0
0 0.950021 0
0 0.95594 0
0 0.960217 0
0 0.963403 0
0 0.965824 0
0 0.967685 0
0 0.969122 0
0 0.970228 0
0 0.971065 0
0 0.971681 0
0 0.972105 0
0 0.972361 0
0 0.972461 0
0 0.972416 0
0 0.972226 0
0 0.97189 0
0 0.971401 0
0 0.970743 0
0 0.969899 0
0 0.968839 0
0 0.967526 0
0 0.965906 0
0 0.963906 0
0 0.961423 0
0 0.958308 0
0 0.954339 0
0 0.949166 0
0 0.942206 0
0 0.932396 0
0 0.917552 0
0 0.892436 0
0 0.842022 0
0 0.715103 0
0 0.311267 0
0 0.186816 0
0 0.480299 0
0 0.645664 0
0 0.73839 0
0 0.793571 0
0 0.828731 0
0 0.852499 0
0 0.869325 0
0 0.881656 0
0 0.890919 0
0 0.897999 0
0 0.903463 0
0 0.907695 0
0 0.910956 0
0 0.913431 0
0 0.91525 0
0 0.916506 0
0 0.917262 0
0 0.917561 0
0 0.917424 0
0 0.916862 0
0 0.915865 0
0 0.914412 0
0 0.912464 0
0 0.909964 0
0 0.90683 0
0 0.902952 0
0 0.898177 0
0 0.892296 0
0 0.885019 0
0 0.875931 0
0 0.864425 0
0 0.849573 0
0 0.829899 0
0 0.80292 0
0 0.764206 0
0 0.705374 0
0 0.609978 0
0 0.446758 0
0 0.171554 0
0 0.126517 0
0 0.345905 0
0 0.501612 0
0 0.606552 0
0 0.677427 0
0 0.726429 0
0 0.761303 0
0 0.786813 0
0 0.805909 0
0 0.820463 0
0 0.831696 0
0 0.84043 0
0 0.847228 0
0 0.852487 0
0 0.856489 0
0 0.859437 0
0 0.861474 0
0 0.8627 0
0 0.863183 0
0 0.862958 0
0 0.862038 0
0 0.860413 0
0 0.858046 0
0 0.854879 0
0 0.850819 0
0 0.845742 0
0 0.839475 0
0 0.831788 0
0 0.822364 0
0 0.810774 0
0 0.796417 0
0 0.778443 0
0 0.75561 0
0 0.726065 0
0 0.686964 0
0 0.633872 0
0 0.55989 0
0 0.454851 0
0 0.30648 0
0 0.109944 0
0 0.0944498 0
0 0.266362 0
0 0.40279 0
0 0.505335 0
0 0.580986 0
0 0.636861 0
0 0.678565 0
0 0.710121 0
0 0.734319 0
0 0.753084 0
0 0.767752 0
0 0.779264 0
0 0.788287 0
0 0.795304 0
0 0.800664 0
0 0.804623 0
0 0.807363 0
0 0.809013 0
0 0.809658 0
0 0.809348 0
0 0.808098 0
0 0.805895 0
0 0.802693 0
0 0.798415 0
0 0.792946 0
0 0.786128 0
0 0.777745 0
0 0.767512 0
0 0.755048 0
0 0.739843 0
0 0.72121 0
0 0.698212 0
0 0.669556 0
0 0.633444 0
0 0.587377 0
0 0.527948 0
0 0.450768 0
0 0.350993 0
0 0.225477 0
0 0.0780505 0
0 0.0749282 0
0 0.214739 0
0 0.332606 0
0 0.427457 0
0 0.501929 0
0 0.559853 0
0 0.604891 0
0 0.64006 0
0 0.667684 0
0 0.6895 0
0 0.706792 0
0 0.720506 0
0 0.731344 0
0 0.739824 0
0 0.746332 0
0 0.751154 0
0 0.754497 0
0 0.756511 0
0 0.757294 0
0 0.756902 0
0 0.755357 0
0 0.752641 0
0 0.748703 0
0 0.743457 0
0 0.73677 0
0 0.728465 0
0 0.718302 0
0 0.70597 0
0 0.691062 0
0 0.67305 0
0 0.651244 0
0 0.624748 0
0 0.592396 0
0 0.552687 0
0 0.503738 0
0 0.443317 0
0 0.369093 0
0 0.279347 0
0 0.174479 0
0 0.0592539 0
0 0.0617855 0
0 0.178658 0
0 0.280724 0
0 0.366573 0
0 0.43703 0
0 0.494059 0
0 0.539927 0
0 0.576751 0
0 0.606328 0
0 0.630105 0
0 0.649217 0
0 0.664544 0
0 0.676761 0
0 0.686385 0
0 0.693807 0
0 0.699326 0
0 0.703161 0
0 0.70547 0
0 0.706361 0
0 0.705895 0
0 0.704093 0
0 0.700941 0
0 0.696384 0
0 0.69033 0
0 0.682641 0
0 0.673132 0
0 0.661559 0
0 0.647609 0
0 0.630884 0
0 0.610881 0
0 0.586972 0
0 0.558378 0
0 0.524147 0
0 0.483152 0
0 0.434125 0
0 0.375789 0
0 0.307152 0
0 0.228058 0
0 0.140015 0
0 0.0470387 0
0 0.0522671 0
0 0.151936 0
0 0.240906 0
0 0.317986 0
0 0.383291 0
0 0.437791 0
0 0.482844 0
0 0.519883 0
0 0.55023 0
0 0.575032 0
0 0.595239 0
0 0.611621 0
0 0.624793 0
0 0.63524 0
0 0.64334 0
0 0.649385 0
0 0.653594 0
0 0.656128 0
0 0.657095 0
0 0.656561 0
0 0.654548 0
0 0.651042 0
0 0.64599 0
0 0.639299 0
0 0.630834 0
0 0.620414 0
0 0.607804 0
0 0.592711 0
0 0.574768 0
0 0.553531 0
0 0.528465 0
0 0.498942 0
0 0.464243 0
0 0.423591 0
0 0.376222 0
0 0.321523 0
0 0.259272 0
0 0.189994 0
0 0.11537 0
0 0.0385079 0
0 0.0449969 0
0 0.131241 0
0 0.209337 0
0 0.278393 0
0 0.338273 0
0 0.389431 0
0 0.432666 0
0 0.468924 0
0 0.499153 0
0 0.524227 0
0 0.544912 0
0 0.561855 0
0 0.575595 0
0 0.586565 0
0 0.595115 0
0 0.601519 0
0 0.605988 0
0 0.608676 0
0 0.609691 0
0 0.609097 0
0 0.606919 0
0 0.603143 0
0 0.59772 0
0 0.590562 0
0 0.581544 0
0 0.570496 0
0 0.557206 0
0 0.541409 0
0 0.522789 0
0 0.500973 0
0 0.475531 0
0 0.445987 0
0 0.411837 0
0 0.372593 0
0 0.327853 0
0 0.277425 0
0 0.221492 0
0 0.16082 0
0 0.0969413 0
0 0.0322226 0
0 0.0392201 0
0 0.114648 0
0 0.183623 0
0 0.245505 0
0 0.300095 0
0 0.347584 0
0 0.388437 0
0 0.423267 0
0 0.452742 0
0 0.477513 0
0 0.498179 0
0 0.515271 0
0 0.52924 0
0 0.540466 0
0 0.549259 0
0 0.555869 0
0 0.560489 0
0 0.563266 0
0 0.564301 0
0 0.563657 0
0 0.561358 0
0 0.557394 0
0 0.551721 0
0 0.54426 0
0 0.534897 0
0 0.523484 0
0 0.509834 0
0 0.493721 0
0 0.474884 0
0 0.453024 0
0 0.427816 0
0 0.39892 0
0 0.366008 0
0 0.328808 0
0 0.287166 0
0 0.241137 0
0 0.191091 0
0 0.13783 0
0 0.0826625 0
0 0.0273997 0
0 0.0344908 0
0 0.100982 0
0 0.162208 0
0 0.217723 0
0 0.267334 0
0 0.311104 0
0 0.349297 0
0 0.382307 0
0 0.410598 0
0 0.434646 0
0 0.454913 0
0 0.471819 0
0 0.485738 0
0 0.496991 0
0 0.505846 0
0 0.512524 0
0 0.517201 0
0 0.520007 0
0 0.521039 0
0 0.520354 0
0 0.517977 0
0 0.513901 0
0 0.50809 0
0 0.500474 0
0 0.490957 0
0 0.47941 0
0 0.465678 0
0 0.449576 0
0 0.430897 0
0 0.409414 0
0 0.384892 0
0 0.357105 0
0 0.325864 0
0 0.291049 0
0 0.252663 0
0 0.210895 0
0 0.166185 0
0 0.119282 0
0 0.0712795 0
0 0.0235804 0
0 0.0305293 0
0 0.0894847 0
0 0.144049 0
0 0.193916 0
0 0.238923 0
0 0.279073 0
0 0.31451 0
0 0.345487 0
0 0.37232 0
0 0.395355 0
0 0.414939 0
0 0.431403 0
0 0.445047 0
0 0.456139 0
0 0.464905 0
0 0.471536 0
0 0.476185 0
0 0.478971 0
0 0.479979 0
0 0.479263 0
0 0.476848 0
0 0.472731 0
0 0.466881 0
0 0.459242 0
0 0.449734 0
0 0.438251 0
0 0.424669 0
0 0.408842 0
0 0.390614 0
0 0.36982 0
0 0.346303 0
0 0.319928 0
0 0.290604 0
0 0.258315 0
0 0.223161 0
0 0.185392 0
0 0.145455 0
0 0.104021 0
0 0.0619938 0
0 0.0204793 0
0 0.0271509 0
0 0.0796497 0
0 0.128425 0
0 0.173269 0
0 0.214057 0
0 0.250762 0
0 0.283461 0
0 0.312311 0
0 0.337528 0
0 0.359359 0
0 0.378063 0
0 0.393894 0
0 0.407093 0
0 0.417874 0
0 0.426428 0
0 0.432916 0
0 0.437469 0
0 0.440193 0
0 0.441161 0
0 0.440425 0
0 0.438008 0
0 0.433909 0
0 0.428108 0
0 0.420558 0
0 0.411196 0
0 0.39994 0
0 0.386693 0
0 0.371347 0
0 0.353789 0
0 0.333908 0
0 0.311608 0
0 0.286822 0
0 0.259529 0
0 0.229782 0
0 0.19773 0
0 0.163649 0
0 0.127962 0
0 0.0912549 0
0 0.0542758 0
0 0.0179107 0
0 0.0242293 0
0 0.0711245 0
0 0.114821 0
0 0.155185 0
0 0.19212 0
0 0.225592 0
0 0.255636 0
0 0.282349 0
0 0.305875 0
0 0.32639 0
0 0.344083 0
0 0.359149 0
0 0.371774 0
0 0.382133 0
0 0.390379 0
0 0.396649 0
0 0.401053 0
0 0.40368 0
0 0.404598 0
0 0.403851 0
0 0.401462 0
0 0.397435 0
0 0.391753 0
0 0.384385 0
0 0.375281 0
0 0.364381 0
0 0.351612 0
0 0.3369 0
0 0.320168 0
0 0.301348 0
0 0.280392 0
0 0.257281 0
0 0.232045 0
0 0.204775 0
0 0.175647 0
0 0.144934 0
0 0.113025 0
0 0.0804272 0
0 0.0477616 0
0 0.0157483 0
0 0.0216744 0
0 0.0636568 0
0 0.102865 0
0 0.139217 0
0 0.17264 0
0 0.203102 0
0 0.230613 0
0 0.255231 0
0 0.277051 0
0 0.296194 0
0 0.312799 0
0 0.327011 0
0 0.338977 0
0 0.348831 0
0 0.356701 0
0 0.362695 0
0 0.366908 0
0 0.369415 0
0 0.370274 0
0 0.369525 0
0 0.367191 0
0 0.363277 0
0 0.357774 0
0 0.35066 0
0 0.341901 0
0 0.331454 0
0 0.31927 0
0 0.305299 0
0 0.289496 0
0 0.271826 0
0 0.252278 0
0 0.230867 0
0 0.207652 0
0 0.18275 0
0 0.156342 0
0 0.128691 0
0 0.100143 0
0 0.0711375 0
0 0.0421936 0
0 0.0139035 0
0 0.0194208 0
0 0.0570604 0
0 0.0922771 0
0 0.125023 0
0 0.155249 0
0 0.182923 0
0 0.208043 0
0 0.230642 0
0 0.250778 0
0 0.268537 0
0 0.284018 0
0 0.297328 0
0 0.308577 0
0 0.317874 0
0 0.325317 0
0 0.330996 0
0 0.334988 0
0 0.337357 0
0 0.338153 0
0 0.33741 0
0 0.335151 0
0 0.331384 0
0 0.326106 0
0 0.319303 0
0 0.310954 0
0 0.30103 0
0 0.289503 0
0 0.276343 0
0 0.26153 0
0 0.245055 0
0 0.22693 0
0 0.207197 0
0 0.185933 0
0 0.163263 0
0 0.139367 0
0 0.114489 0
0 0.0889384 0
0 0.0630907 0
0 0.0373846 0
0 0.0123127 0
0 0.017419 0
0 0.0511953 0
0 0.0828432 0
0 0.112341 0
0 0.139653 0
0 0.164754 0
0 0.187635 0
0 0.20831 0
0 0.226816 0
0 0.243208 0
0 0.257558 0
0 0.269944 0
0 0.280448 0
0 0.289154 0
0 0.29614 0
0 0.301478 0
0 0.30523 0
0 0.30745 0
0 0.308179 0
0 0.307451 0
0 0.305284 0
0 0.30169 0
0 0.29667 0
0 0.290218 0
0 0.282323 0
0 0.27297 0
0 0.262145 0
0 0.249836 0
0 0.236041 0
0 0.22077 0
0 0.204053 0
0 0.185945 0
0 0.166536 0
0 0.145951 0
0 0.124365 0
0 0.101997 0
0 0.0791227 0
0 0.0560648 0
0 0.0331955 0
0 0.0109286 0
0 0.0156314 0
0 0.0459531 0
0 0.0743977 0
0 0.100961 0
0 0.125619 0
0 0.148351 0
0 0.169145 0
0 0.188003 0
0 0.204948 0
0 0.220014 0
0 0.233249 0
0 0.244711 0
0 0.254462 0
0 0.262562 0
0 0.269075 0
0 0.274056 0
0 0.277557 0
0 0.279622 0
0 0.280286 0
0 0.279577 0
0 0.277516 0
0 0.274113 0
0 0.269374 0
0 0.263301 0
0 0.255889 0
0 0.247134 0
0 0.237035 0
0 0.225592 0
0 0.212817 0
0 0.198734 0
0 0.183384 0
0 0.166831 0
0 0.149169 0
0 0.130521 0
0 0.111048 0
0 0.0909522 0
0 0.0704726 0
0 0.0498897 0
0 0.0295205 0
0 0.0097156 0
0 0.0140282 0
0 0.0412487 0
0 0.0668086 0
0 0.0907152 0
0 0.112955 0
0 0.13351 0
0 0.152367 0
0 0.169522 0
0 0.184985 0
0 0.198778 0
0 0.210932 0
0 0.221488 0
0 0.23049 0
0 0.237984 0
0 0.24402 0
0 0.24864 0
0 0.251885 0
0 0.253793 0
0 0.254393 0
0 0.25371 0
0 0.251762 0
0 0.248563 0
0 0.24412 0
0 0.23844 0
0 0.231526 0
0 0.223382 0
0 0.214014 0
0 0.203434 0
0 0.191662 0
0 0.178733 0
0 0.164694 0
0 0.149613 0
0 0.133584 0
0 0.116726 0
0 0.0991855 0
0 0.0811439 0
0 0.0628123 0
0 0.0444331 0
0 0.026278 0
0 0.00864613 0
0 0.0125857 0
0 0.0370136 0
0 0.0599693 0
0 0.0814683 0
0 0.101504 0
0 0.12006 0
0 0.137125 0
0 0.152691 0
0 0.166759 0
0 0.179342 0
0 0.190459 0
0 0.200137 0
0 0.208408 0
0 0.215307 0
0 0.22087 0
0 0.225131 0
0 0.228123 0
0 0.229876 0
0 0.230414 0
0 0.229761 0
0 0.227932 0
0 0.224943 0
0 0.220804 0
0 0.215523 0
0 0.209111 0
0 0.201576 0
0 0.192931 0
0 0.183196 0
0 0.172398 0
0 0.160576 0
0 0.147781 0
0 0.134084 0
0 0.119574 0
0 0.104363 0
0 0.0885855 0
0 0.072403 0
0 0.056001 0
0 0.0395899 0
0 0.0234036 0
0 0.00769865 0
0 0.0112846 0
0 0.0331918 0
0 0.0537924 0
0 0.0731065 0
0 0.091132 0
0 0.107857 0
0 0.123269 0
0 0.137357 0
0 0.15012 0
0 0.161561 0
0 0.171691 0
0 0.180529 0
0 0.188096 0
0 0.194418 0
0 0.19952 0
0 0.20343 0
0 0.206174 0
0 0.207775 0
0 0.208256 0
0 0.207636 0
0 0.20593 0
0 0.203153 0
0 0.199318 0
0 0.194436 0
0 0.188519 0
0 0.181582 0
0 0.173644 0
0 0.164726 0
0 0.154861 0
0 0.144091 0
0 0.132469 0
0 0.120064 0
0 0.10696 0
0 0.0932613 0
0 0.0790905 0
0 0.0645906 0
0 0.0499246 0
0 0.0352755 0
0 0.0208456 0
0 0.00685593 0
0 0.0101088 0
0 0.029737 0
0 0.0482045 0
0 0.0655344 0
0 0.0817279 0
0 0.0967756 0
0 0.110665 0
0 0.123386 0
0 0.134932 0
0 0.145302 0
0 0.154502 0
0 0.162543 0
0 0.169437 0
0 0.175204 0
0 0.179863 0
0 0.183435 0
0 0.185939 0
0 0.187396 0
0 0.187823 0
0 0.187237 0
0 0.185655 0
0 0.183089 0
0 0.179554 0
0 0.175063 0
0 0.169631 0
0 0.163275 0
0 0.156016 0
0 0.14788 0
0 0.138903 0
0 0.129125 0
0 0.1186 0
0 0.107395 0
0 0.095589 0
0 0.0832765 0
0 0.0705683 0
0 0.0575914 0
0 0.0444892 0
0 0.031421 0
0 0.0185622 0
0 0.00610399 0
0 0.00904484 0
0 0.0266096 0
0 0.0431434 0
0 0.0586705 0
0 0.0731941 0
0 0.0867072 0
0 0.0991982 0
0 0.110656 0
0 0.121073 0
0 0.130445 0
0 0.138772 0
0 0.14606 0
0 0.152319 0
0 0.157559 0
0 0.161795 0
0 0.165043 0
0 0.167319 0
0 0.168637 0
0 0.169015 0
0 0.168467 0
0 0.167006 0
0 0.164648 0
0 0.161405 0
0 0.157293 0
0 0.152328 0
0 0.146529 0
0 0.139919 0
0 0.132526 0
0 0.124385 0
0 0.115538 0
0 0.106036 0
0 0.0959415 0
0 0.0853289 0
0 0.0742842 0
0 0.0629067 0
0 0.0513089 0
0 0.0396167 0
0 0.0279692 0
0 0.0165187 0
0 0.00543132 0
0 0.00808103 0
0 0.0237761 0
0 0.0385556 0
0 0.052444 0
0 0.0654462 0
0 0.0775565 0
0 0.0887644 0
0 0.0990591 0
0 0.108431 0
0 0.116875 0
0 0.124388 0
0 0.130972 0
0 0.136632 0
0 0.141375 0
0 0.145212 0
0 0.148153 0
0 0.150212 0
0 0.151401 0
0 0.151734 0
0 0.151223 0
0 0.149882 0
0 0.147724 0
0 0.144764 0
0 0.141016 0
0 0.136497 0
0 0.131229 0
0 0.125234 0
0 0.118541 0
0 0.111184 0
0 0.103204 0
0 0.0946502 0
0 0.0855811 0
0 0.0760642 0
0 0.0661775 0
0 0.0560099 0
0 0.0456609 0
0 0.0352412 0
0 0.0248721 0
0 0.0146864 0
0 0.0048283 0
0 0.00720734 0
0 0.021207 0
0 0.0343943 0
0 0.0467931 0
0 0.0584092 0
0 0.0692382 0
0 0.0792707 0
0 0.088496 0
0 0.0969046 0
0 0.104489 0
0 0.111246 0
0 0.117173 0
0 0.122273 0
0 0.12655 0
0 0.130011 0
0 0.132665 0
0 0.13452 0
0 0.135588 0
0 0.13588 0
0 0.135407 0
0 0.134182 0
0 0.132217 0
0 0.129526 0
0 0.126124 0
0 0.12203 0
0 0.117263 0
0 0.111847 0
0 0.105809 0
0 0.0991835 0
0 0.0920093 0
0 0.0843324 0
0 0.0762064 0
0 0.0676932 0
0 0.058863 0
0 0.0497949 0
0 0.040577 0
0 0.0313063 0
0 0.0220889 0
0 0.0130405 0
0 0.00428681 0
0 0.00641488 0
0 0.0188764 0
0 0.030618 0
0 0.0416625 0
0 0.0520162 0
0 0.0616757 0
0 0.0706325 0
0 0.0788766 0
0 0.0863984 0
0 0.0931899 0
0 0.0992458 0
0 0.104563 0
0 0.109142 0
0 0.112984 0
0 0.116095 0
0 0.118479 0
0 0.120145 0
0 0.1211 0
0 0.121355 0
0 0.12092 0
0 0.119806 0
0 0.118024 0
0 0.115589 0
0 0.112516 0
0 0.108821 0
0 0.104525 0
0 0.0996502 0
0 0.0942242 0
0 0.0882784 0
0 0.0818497 0
0 0.0749808 0
0 0.0677209 0
0 0.0601257 0
0 0.0522584 0
0 0.0441892 0
0 0.0359958 0
0 0.0277633 0
0 0.0195845 0
0 0.0115602 0
0 0.00379986 0
0 0.00569573 0
0 0.0167611 0
0 0.0271896 0
0 0.0370027 0
0 0.0462069 0
0 0.0547995 0
0 0.0627729 0
0 0.0701178 0
0 0.0768248 0
0 0.0828859 0
0 0.0882949 0
0 0.093048 0
0 0.0971434 0
0 0.100582 0
0 0.103366 0
0 0.105499 0
0 0.106989 0
0 0.10784 0
0 0.108062 0
0 0.107664 0
0 0.106656 0
0 0.105048 0
0 0.102855 0
0 0.10009 0
0 0.0967699 0
0 0.092914 0
0 0.0885443 0
0 0.0836864 0
0 0.07837 0
0 0.0726293 0
0 0.0665036 0
0 0.0600374 0
0 0.053281 0
0 0.0462907 0
0 0.0391288 0
0 0.0318635 0
0 0.0245697 0
0 0.0173282 0
0 0.0102269 0
0 0.00336138 0
0 0.00504276 0
0 0.0148402 0
0 0.0240755 0
0 0.0327688 0
0 0.0409262 0
0 0.0485456 0
0 0.0556205 0
0 0.0621422 0
0 0.0681019 0
0 0.0734914 0
0 0.0783045 0
0 0.0825366 0
0 0.0861851 0
0 0.0892495 0
0 0.091731 0
0 0.0936324 0
0 0.0949583 0
0 0.0957141 0
0 0.0959068 0
0 0.0955445 0
0 0.0946364 0
0 0.0931931 0
0 0.0912265 0
0 0.0887503 0
0 0.0857803 0
0 0.0823346 0
0 0.0784339 0
0 0.0741022 0
0 0.0693671 0
0 0.0642599 0
0 0.0588164 0
0 0.0530768 0
0 0.0470862 0
0 0.0408944 0
0 0.0345565 0
0 0.0281325 0
0 0.0216878 0
0 0.0152931 0
0 0.00902473 0
0 0.00296607 0
0 0.00444944 0
0 0.0130946 0
0 0.0212451 0
0 0.0289194 0
0 0.0361233 0
0 0.0428553 0
0 0.0491095 0
0 0.054878 0
0 0.0601526 0
0 0.0649256 0
0 0.0691905 0
0 0.0729426 0
0 0.0761788 0
0 0.0788977 0
0 0.0810996 0
0 0.0827864 0
0 0.0839615 0
0 0.0846294 0
0 0.084796 0
0 0.0844685 0
0 0.0836551 0
0 0.0823657 0
0 0.0806112 0
0 0.0784045 0
0 0.0757603 0
0 0.0726954 0
0 0.0692293 0
0 0.0653839 0
0 0.0611846 0
0 0.0566598 0
0 0.051842 0
0 0.046767 0
0 0.041475 0
0 0.0360102 0
0 0.030421 0
0 0.02476 0
0 0.0190841 0
0 0.0134551 0
0 0.00793929 0
0 0.00260919 0
0 0.0039098 0
0 0.0115068 0
0 0.0186702 0
0 0.0254165 0
0 0.0317514 0
0 0.0376736 0
0 0.043178 0
0 0.0482574 0
0 0.0529044 0
0 0.0571116 0
0 0.0608728 0
0 0.0641833 0
0 0.0670396 0
0 0.0694399 0
0 0.0713838 0
0 0.0728727 0
0 0.0739088 0
0 0.0744961 0
0 0.0746396 0
0 0.0743455 0
0 0.0736213 0
0 0.0724758 0
0 0.0709192 0
0 0.0689633 0
0 0.0666216 0
0 0.0639097 0
0 0.0608454 0
0 0.0574487 0
0 0.0537426 0
0 0.0497529 0
0 0.0455085 0
0 0.0410413 0
0 0.036387 0
0 0.0315843 0
0 0.0266758 0
0 0.0217073 0
0 0.0167284 0
0 0.0117926 0
0 0.00695774 0
0 0.00228651 0
0 0.00341828 0
0 0.0100605 0
0 0.0163243 0
0 0.0222246 0
0 0.0277666 0
0 0.0329493 0
0 0.0377681 0
0 0.0422169 0
0 0.0462885 0
0 0.0499765 0
0 0.053275 0
0 0.0561792 0
0 0.0586857 0
0 0.0607924 0
0 0.0624987 0
0 0.0638051 0
0 0.0647135 0
0 0.065227 0
0 0.06535 0
0 0.0650878 0
0 0.0644472 0
0 0.0634361 0
0 0.0620637 0
0 0.0603408 0
0 0.0582797 0
0 0.0558946 0
0 0.0532014 0
0 0.0502185 0
0 0.0469664 0
0 0.0434681 0
0 0.0397492 0
0 0.0358381 0
0 0.0317661 0
0 0.0275671 0
0 0.0232781 0
0 0.0189391 0
0 0.014593 0
0 0.0102862 0
0 0.00606845 0
0 0.00199419 0
0 0.00296969 0
0 0.00874039 0
0 0.0141829 0
0 0.0193105 0
0 0.0241277 0
0 0.0286339 0
0 0.0328251 0
0 0.0366958 0
0 0.0402397 0
0 0.0434509 0
0 0.0463238 0
0 0.0488542 0
0 0.0510385 0
0 0.0528748 0
0 0.0543619 0
0 0.0555002 0
0 0.0562911 0
0 0.0567371 0
0 0.0568419 0
0 0.0566102 0
0 0.0560479 0
0 0.0551622 0
0 0.0539612 0
0 0.0524546 0
0 0.0506536 0
0 0.0485707 0
0 0.0462205 0
0 0.0436192 0
0 0.040785 0
0 0.0377384 0
0 0.0345017 0
0 0.0311001 0
0 0.0275606 0
0 0.0239128 0
0 0.0201888 0
0 0.0164231 0
0 0.0126528 0
0 0.00891772 0
0 0.00526078 0
0 0.00172872 0
0 0.00255915 0
0 0.00753223 0
0 0.0122229 0
0 0.0166427 0
0 0.0207959 0
0 0.0246818 0
0 0.028297 0
0 0.0316368 0
0 0.0346955 0
0 0.0374679 0
0 0.0399491 0
0 0.0421349 0
0 0.0440222 0
0 0.0456088 0
0 0.0468938 0
0 0.0478771 0
0 0.0485598 0
0 0.0489439 0
0 0.0490325 0
0 0.0488298 0
0 0.0483409 0
0 0.047572 0
0 0.0465305 0
0 0.045225 0
0 0.0436652 0
0 0.0418624 0
0 0.0398294 0
0 0.0375804 0
0 0.0351316 0
0 0.0325007 0
0 0.0297074 0
0 0.0267733 0
0 0.0237219 0
0 0.0205787 0
0 0.0173714 0
0 0.0141294 0
0 0.0108845 0
0 0.00767074 0
0 0.00452491 0
0 0.00148686 0
0 0.00218204 0
0 0.00642239 0
0 0.0104222 0
0 0.0141916 0
0 0.017734 0
0 0.0210492 0
0 0.0241342 0
0 0.0269848 0
0 0.0295962 0
0 0.0319637 0
0 0.0340831 0
0 0.0359505 0
0 0.0375632 0
0 0.0389191 0
0 0.0400171 0
0 0.0408571 0
0 0.0414399 0
0 0.0417671 0
0 0.0418414 0
0 0.0416663 0
0 0.0412462 0
0 0.0405865 0
0 0.0396937 0
0 0.0385751 0
0 0.0372396 0
0 0.0356967 0
0 0.0339577 0
0 0.0320349 0
0 0.0299423 0
0 0.0276952 0
0 0.0253106 0
0 0.022807 0
0 0.0202045 0
0 0.0175249 0
0 0.0147916 0
0 0.0120297 0
0 0.00926617 0
0 0.00652981 0
0 0.0038517 0
0 0.00126562 0
0 0.00183395 0
0 0.00539795 0
0 0.00875999 0
0 0.0119286 0
0 0.0149069 0
0 0.0176945 0
0 0.0202891 0
0 0.022687 0
0 0.0248842 0
0 0.0268767 0
0 0.0286605 0
0 0.0302327 0
0 0.0315905 0
0 0.0327322 0
0 0.0336567 0
0 0.0343638 0
0 0.034854 0
0 0.0351288 0
0 0.0351903 0
0 0.0350414 0
0 0.0346859 0
0 0.0341285 0
0 0.0333747 0
0 0.0324308 0
0 0.0313043 0
0 0.0300035 0
0 0.0285379 0
0 0.0269182 0
0 0.0251561 0
0 0.0232649 0
0 0.0212587 0
0 0.0191532 0
0 0.0169654 0
0 0.0147136 0
0 0.0124174 0
0 0.0100979 0
0 0.00777754 0
0 0.00548045 0
0 0.00323259 0
0 0.00106217 0
0 0.00151068 0
0 0.00444649 0
0 0.00721607 0
0 0.00982651 0
0 0.0122804 0
0 0.0145776 0
0 0.016716 0
0 0.0186926 0
0 0.0205041 0
0 0.022147 0
0 0.0236182 0
0 0.024915 0
0 0.0260351 0
0 0.0269769 0
0 0.0277395 0
0 0.0283226 0
0 0.0287267 0
0 0.0289529 0
0 0.0290028 0
0 0.028879 0
0 0.0285845 0
0 0.0281234 0
0 0.0275 0
0 0.0267199 0
0 0.0257892 0
0 0.0247149 0
0 0.023505 0
0 0.0221683 0
0 0.0207146 0
0 0.019155 0
0 0.0175011 0
0 0.0157659 0
0 0.0139635 0
0 0.0121089 0
0 0.0102183 0
0 0.00830892 0
0 0.00639924 0
0 0.00450901 0
0 0.00265951 0
0 0.000873849 0
0 0.00120815 0
0 0.00355606 0
0 0.00577112 0
0 0.00785903 0
0 0.00982192 0
0 0.0116596 0
0 0.0133705 0
0 0.0149522 0
0 0.0164019 0
0 0.017717 0
0 0.0188947 0
0 0.0199328 0
0 0.0208296 0
0 0.0215837 0
0 0.0221943 0
0 0.0226611 0
0 0.0229844 0
0 0.0231651 0
0 0.0232045 0
0 0.0231047 0
0 0.0228682 0
0 0.022498 0
0 0.0219979 0
0 0.0213723 0
0 0.0206262 0
0 0.0197653 0
0 0.0187959 0
0 0.0177253 0
0 0.0165613 0
0 0.0153129 0
0 0.0139893 0
0 0.0126012 0
0 0.0111596 0
0 0.00967662 0
0 0.00816516 0
0 0.00663901 0
0 0.00511286 0
0 0.00360246 0
0 0.00212475 0
0 0.000698131 0
0 0.000922429 0
0 0.00271509 0
0 0.00440637 0
0 0.00600064 0
0 0.00749955 0
0 0.00890297 0
0 0.0102097 0
0 0.0114178 0
0 0.0125253 0
0 0.01353 0
0 0.0144299 0
0 0.0152232 0
0 0.0159085 0
0 0.0164847 0
0 0.0169513 0
0 0.0173079 0
0 0.0175549 0
0 0.0176927 0
0 0.0177225 0
0 0.0176458 0
0 0.0174646 0
0 0.0171811 0
0 0.0167984 0
0 0.0163197 0
0 0.015749 0
0 0.0150906 0
0 0.0143494 0
0 0.013531 0
0 0.0126415 0
0 0.0116876 0
0 0.0106766 0
0 0.00961648 0
0 0.00851575 0
0 0.00738364 0
0 0.00622998 0
0 0.00506528 0
0 0.00390074 0
0 0.00274833 0
0 0.00162094 0
0 0.000532589 0
0 0.000649678 0
0 0.00191228 0
0 0.0031035 0
0 0.00422644 0
0 0.00528226 0
0 0.00627089 0
0 0.00719144 0
0 0.00804263 0