# vtk DataFile Version 2.0
Velocidades
ASCII

DATASET STRUCTURED_GRID
DIMENSIONS   40   40   20

POINTS   32000   double
0.0125   0.0125   0.025
0.0125   0.0375   0.025
0.0125   0.0625   0.025
0.0125   0.0875   0.025
0.0125   0.1125   0.025
0.0125   0.1375   0.025
0.0125   0.1625   0.025
0.0125   0.1875   0.025
0.0125   0.2125   0.025
0.0125   0.2375   0.025
0.0125   0.2625   0.025
0.0125   0.2875   0.025
0.0125   0.3125   0.025
0.0125   0.3375   0.025
0.0125   0.3625   0.025
0.0125   0.3875   0.025
0.0125   0.4125   0.025
0.0125   0.4375   0.025
0.0125   0.4625   0.025
0.0125   0.4875   0.025
0.0125   0.5125   0.025
0.0125   0.5375   0.025
0.0125   0.5625   0.025
0.0125   0.5875   0.025
0.0125   0.6125   0.025
0.0125   0.6375   0.025
0.0125   0.6625   0.025
0.0125   0.6875   0.025
0.0125   0.7125   0.025
0.0125   0.7375   0.025
0.0125   0.7625   0.025
0.0125   0.7875   0.025
0.0125   0.8125   0.025
0.0125   0.8375   0.025
0.0125   0.8625   0.025
0.0125   0.8875   0.025
0.0125   0.9125   0.025
0.0125   0.9375   0.025
0.0125   0.9625   0.025
0.0125   0.9875   0.025
0.0375   0.0125   0.025
0.0375   0.0375   0.025
0.0375   0.0625   0.025
0.0375   0.0875   0.025
0.0375   0.1125   0.025
0.0375   0.1375   0.025
0.0375   0.1625   0.025
0.0375   0.1875   0.025
0.0375   0.2125   0.025
0.0375   0.2375   0.025
0.0375   0.2625   0.025
0.0375   0.2875   0.025
0.0375   0.3125   0.025
0.0375   0.3375   0.025
0.0375   0.3625   0.025
0.0375   0.3875   0.025
0.0375   0.4125   0.025
0.0375   0.4375   0.025
0.0375   0.4625   0.025
0.0375   0.4875   0.025
0.0375   0.5125   0.025
0.0375   0.5375   0.025
0.0375   0.5625   0.025
0.0375   0.5875   0.025
0.0375   0.6125   0.025
0.0375   0.6375   0.025
0.0375   0.6625   0.025
0.0375   0.6875   0.025
0.0375   0.7125   0.025
0.0375   0.7375   0.025
0.0375   0.7625   0.025
0.0375   0.7875   0.025
0.0375   0.8125   0.025
0.0375   0.8375   0.025
0.0375   0.8625   0.025
0.0375   0.8875   0.025
0.0375   0.9125   0.025
0.0375   0.9375   0.025
0.0375   0.9625   0.025
0.0375   0.9875   0.025
0.0625   0.0125   0.025
0.0625   0.0375   0.025
0.0625   0.0625   0.025
0.0625   0.0875   0.025
0.0625   0.1125   0.025
0.0625   0.1375   0.025
0.0625   0.1625   0.025
0.0625   0.1875   0.025
0.0625   0.2125   0.025
0.0625   0.2375   0.025
0.0625   0.2625   0.025
0.0625   0.2875   0.025
0.0625   0.3125   0.025
0.0625   0.3375   0.025
0.0625   0.3625   0.025
0.0625   0.3875   0.025
0.0625   0.4125   0.025
0.0625   0.4375   0.025
0.0625   0.4625   0.025
0.0625   0.4875   0.025
0.0625   0.5125   0.025
0.0625   0.5375   0.025
0.0625   0.5625   0.025
0.0625   0.5875   0.025
0.0625   0.6125   0.025
0.0625   0.6375   0.025
0.0625   0.6625   0.025
0.0625   0.6875   0.025
0.0625   0.7125   0.025
0.0625   0.7375   0.025
0.0625   0.7625   0.025
0.0625   0.7875   0.025
0.0625   0.8125   0.025
0.0625   0.8375   0.025
0.0625   0.8625   0.025
0.0625   0.8875   0.025
0.0625   0.9125   0.025
0.0625   0.9375   0.025
0.0625   0.9625   0.025
0.0625   0.9875   0.025
0.0875   0.0125   0.025
0.0875   0.0375   0.025
0.0875   0.0625   0.025
0.0875   0.0875   0.025
0.0875   0.1125   0.025
0.0875   0.1375   0.025
0.0875   0.1625   0.025
0.0875   0.1875   0.025
0.0875   0.2125   0.025
0.0875   0.2375   0.025
0.0875   0.2625   0.025
0.0875   0.2875   0.025
0.0875   0.3125   0.025
0.0875   0.3375   0.025
0.0875   0.3625   0.025
0.0875   0.3875   0.025
0.0875   0.4125   0.025
0.0875   0.4375   0.025
0.0875   0.4625   0.025
0.0875   0.4875   0.025
0.0875   0.5125   0.025
0.0875   0.5375   0.025
0.0875   0.5625   0.025
0.0875   0.5875   0.025
0.0875   0.6125   0.025
0.0875   0.6375   0.025
0.0875   0.6625   0.025
0.0875   0.6875   0.025
0.0875   0.7125   0.025
0.0875   0.7375   0.025
0.0875   0.7625   0.025
0.0875   0.7875   0.025
0.0875   0.8125   0.025
0.0875   0.8375   0.025
0.0875   0.8625   0.025
0.0875   0.8875   0.025
0.0875   0.9125   0.025
0.0875   0.9375   0.025
0.0875   0.9625   0.025
0.0875   0.9875   0.025
0.1125   0.0125   0.025
0.1125   0.0375   0.025
0.1125   0.0625   0.025
0.1125   0.0875   0.025
0.1125   0.1125   0.025
0.1125   0.1375   0.025
0.1125   0.1625   0.025
0.1125   0.1875   0.025
0.1125   0.2125   0.025
0.1125   0.2375   0.025
0.1125   0.2625   0.025
0.1125   0.2875   0.025
0.1125   0.3125   0.025
0.1125   0.3375   0.025
0.1125   0.3625   0.025
0.1125   0.3875   0.025
0.1125   0.4125   0.025
0.1125   0.4375   0.025
0.1125   0.4625   0.025
0.1125   0.4875   0.025
0.1125   0.5125   0.025
0.1125   0.5375   0.025
0.1125   0.5625   0.025
0.1125   0.5875   0.025
0.1125   0.6125   0.025
0.1125   0.6375   0.025
0.1125   0.6625   0.025
0.1125   0.6875   0.025
0.1125   0.7125   0.025
0.1125   0.7375   0.025
0.1125   0.7625   0.025
0.1125   0.7875   0.025
0.1125   0.8125   0.025
0.1125   0.8375   0.025
0.1125   0.8625   0.025
0.1125   0.8875   0.025
0.1125   0.9125   0.025
0.1125   0.9375   0.025
0.1125   0.9625   0.025
0.1125   0.9875   0.025
0.1375   0.0125   0.025
0.1375   0.0375   0.025
0.1375   0.0625   0.025
0.1375   0.0875   0.025
0.1375   0.1125   0.025
0.1375   0.1375   0.025
0.1375   0.1625   0.025
0.1375   0.1875   0.025
0.1375   0.2125   0.025
0.1375   0.2375   0.025
0.1375   0.2625   0.025
0.1375   0.2875   0.025
0.1375   0.3125   0.025
0.1375   0.3375   0.025
0.1375   0.3625   0.025
0.1375   0.3875   0.025
0.1375   0.4125   0.025
0.1375   0.4375   0.025
0.1375   0.4625   0.025
0.1375   0.4875   0.025
0.1375   0.5125   0.025
0.1375   0.5375   0.025
0.1375   0.5625   0.025
0.1375   0.5875   0.025
0.1375   0.6125   0.025
0.1375   0.6375   0.025
0.1375   0.6625   0.025
0.1375   0.6875   0.025
0.1375   0.7125   0.025
0.1375   0.7375   0.025
0.1375   0.7625   0.025
0.1375   0.7875   0.025
0.1375   0.8125   0.025
0.1375   0.8375   0.025
0.1375   0.8625   0.025
0.1375   0.8875   0.025
0.1375   0.9125   0.025
0.1375   0.9375   0.025
0.1375   0.9625   0.025
0.1375   0.9875   0.025
0.1625   0.0125   0.025
0.1625   0.0375   0.025
0.1625   0.0625   0.025
0.1625   0.0875   0.025
0.1625   0.1125   0.025
0.1625   0.1375   0.025
0.1625   0.1625   0.025
0.1625   0.1875   0.025
0.1625   0.2125   0.025
0.1625   0.2375   0.025
0.1625   0.2625   0.025
0.1625   0.2875   0.025
0.1625   0.3125   0.025
0.1625   0.3375   0.025
0.1625   0.3625   0.025
0.1625   0.3875   0.025
0.1625   0.4125   0.025
0.1625   0.4375   0.025
0.1625   0.4625   0.025
0.1625   0.4875   0.025
0.1625   0.5125   0.025
0.1625   0.5375   0.025
0.1625   0.5625   0.025
0.1625   0.5875   0.025
0.1625   0.6125   0.025
0.1625   0.6375   0.025
0.1625   0.6625   0.025
0.1625   0.6875   0.025
0.1625   0.7125   0.025
0.1625   0.7375   0.025
0.1625   0.7625   0.025
0.1625   0.7875   0.025
0.1625   0.8125   0.025
0.1625   0.8375   0.025
0.1625   0.8625   0.025
0.1625   0.8875   0.025
0.1625   0.9125   0.025
0.1625   0.9375   0.025
0.1625   0.9625   0.025
0.1625   0.9875   0.025
0.1875   0.0125   0.025
0.1875   0.0375   0.025
0.1875   0.0625   0.025
0.1875   0.0875   0.025
0.1875   0.1125   0.025
0.1875   0.1375   0.025
0.1875   0.1625   0.025
0.1875   0.1875   0.025
0.1875   0.2125   0.025
0.1875   0.2375   0.025
0.1875   0.2625   0.025
0.1875   0.2875   0.025
0.1875   0.3125   0.025
0.1875   0.3375   0.025
0.1875   0.3625   0.025
0.1875   0.3875   0.025
0.1875   0.4125   0.025
0.1875   0.4375   0.025
0.1875   0.4625   0.025
0.1875   0.4875   0.025
0.1875   0.5125   0.025
0.1875   0.5375   0.025
0.1875   0.5625   0.025
0.1875   0.5875   0.025
0.1875   0.6125   0.025
0.1875   0.6375   0.025
0.1875   0.6625   0.025
0.1875   0.6875   0.025
0.1875   0.7125   0.025
0.1875   0.7375   0.025
0.1875   0.7625   0.025
0.1875   0.7875   0.025
0.1875   0.8125   0.025
0.1875   0.8375   0.025
0.1875   0.8625   0.025
0.1875   0.8875   0.025
0.1875   0.9125   0.025
0.1875   0.9375   0.025
0.1875   0.9625   0.025
0.1875   0.9875   0.025
0.2125   0.0125   0.025
0.2125   0.0375   0.025
0.2125   0.0625   0.025
0.2125   0.0875   0.025
0.2125   0.1125   0.025
0.2125   0.1375   0.025
0.2125   0.1625   0.025
0.2125   0.1875   0.025
0.2125   0.2125   0.025
0.2125   0.2375   0.025
0.2125   0.2625   0.025
0.2125   0.2875   0.025
0.2125   0.3125   0.025
0.2125   0.3375   0.025
0.2125   0.3625   0.025
0.2125   0.3875   0.025
0.2125   0.4125   0.025
0.2125   0.4375   0.025
0.2125   0.4625   0.025
0.2125   0.4875   0.025
0.2125   0.5125   0.025
0.2125   0.5375   0.025
0.2125   0.5625   0.025
0.2125   0.5875   0.025
0.2125   0.6125   0.025
0.2125   0.6375   0.025
0.2125   0.6625   0.025
0.2125   0.6875   0.025
0.2125   0.7125   0.025
0.2125   0.7375   0.025
0.2125   0.7625   0.025
0.2125   0.7875   0.025
0.2125   0.8125   0.025
0.2125   0.8375   0.025
0.2125   0.8625   0.025
0.2125   0.8875   0.025
0.2125   0.9125   0.025
0.2125   0.9375   0.025
0.2125   0.9625   0.025
0.2125   0.9875   0.025
0.2375   0.0125   0.025
0.2375   0.0375   0.025
0.2375   0.0625   0.025
0.2375   0.0875   0.025
0.2375   0.1125   0.025
0.2375   0.1375   0.025
0.2375   0.1625   0.025
0.2375   0.1875   0.025
0.2375   0.2125   0.025
0.2375   0.2375   0.025
0.2375   0.2625   0.025
0.2375   0.2875   0.025
0.2375   0.3125   0.025
0.2375   0.3375   0.025
0.2375   0.3625   0.025
0.2375   0.3875   0.025
0.2375   0.4125   0.025
0.2375   0.4375   0.025
0.2375   0.4625   0.025
0.2375   0.4875   0.025
0.2375   0.5125   0.025
0.2375   0.5375   0.025
0.2375   0.5625   0.025
0.2375   0.5875   0.025
0.2375   0.6125   0.025
0.2375   0.6375   0.025
0.2375   0.6625   0.025
0.2375   0.6875   0.025
0.2375   0.7125   0.025
0.2375   0.7375   0.025
0.2375   0.7625   0.025
0.2375   0.7875   0.025
0.2375   0.8125   0.025
0.2375   0.8375   0.025
0.2375   0.8625   0.025
0.2375   0.8875   0.025
0.2375   0.9125   0.025
0.2375   0.9375   0.025
0.2375   0.9625   0.025
0.2375   0.9875   0.025
0.2625   0.0125   0.025
0.2625   0.0375   0.025
0.2625   0.0625   0.025
0.2625   0.0875   0.025
0.2625   0.1125   0.025
0.2625   0.1375   0.025
0.2625   0.1625   0.025
0.2625   0.1875   0.025
0.2625   0.2125   0.025
0.2625   0.2375   0.025
0.2625   0.2625   0.025
[...]
POINT_DATA   32000
VECTORS Velocidades double

6.48743e-05 0.0012099 0
0.000254173 0.00216508 0
0.000151932 0.00175576 0
-7.96694e-07 0.00159549 0
-0.000150764 0.00172888 0
-0.000288228 0.00213819 0
-0.000412894 0.0027963 0
-0.000526042 0.00367761 0
-0.000628825 0.00475939 0
-0.000721977 0.00602118 0
-0.00080583 0.00744391 0
-0.000880379 0.00900911 0
-0.000945366 0.0106983 0
-0.00100036 0.0124926 0
-0.00104485 0.0143725 0
-0.00107835 0.0163176 0
-0.00110051 0.0183071 0
-0.00111123 0.0203199 0
-0.00111082 0.0223355 0
-0.00110015 0.0243347 0
-0.00108078 0.026301 0
-0.0010552 0.0282221 0
-0.00102706 0.0300921 0
-0.00100148 0.0319137 0
-0.000985553 0.033702 0
-0.000989095 0.0354887 0
-0.00102579 0.0373291 0
-0.00111507 0.039311 0
-0.00128508 0.0415698 0
-0.00157742 0.0443099 0
-0.00205496 0.0478402 0
-0.00281442 0.0526293 0
-0.00400731 0.0593944 0
-0.00587402 0.0692471 0
-0.00879351 0.0839224 0
-0.0133169 0.106094 0
-0.0199258 0.139481 0
-0.0268849 0.186567 0
-0.0163082 0.230241 0
0.124138 0.123426 0
0.000137161 0.00264579 0
0.000574338 0.00522527 0
0.000251145 0.00520941 0
-0.000288928 0.00554172 0
-0.000866859 0.00637895 0
-0.00142515 0.00776761 0
-0.00194666 0.00970007 0
-0.00242741 0.0121461 0
-0.00286728 0.0150667 0
-0.00326681 0.0184203 0
-0.00362615 0.0221637 0
-0.00394467 0.0262532 0
-0.00422107 0.0306439 0
-0.00445355 0.0352893 0
-0.00464011 0.0401414 0
-0.00477895 0.0451506 0
-0.00486891 0.0502663 0
-0.00491 0.0554378 0
-0.00490397 0.0606162 0
-0.00485492 0.0657563 0
-0.00477003 0.0708195 0
-0.00466033 0.0757776 0
-0.00454174 0.0806171 0
-0.00443633 0.0853452 0
-0.00437424 0.0899971 0
-0.00439632 0.0946449 0
-0.00455814 0.0994102 0
-0.0049361 0.10448 0
-0.00563631 0.11013 0
-0.00680776 0.116749 0
-0.0086608 0.124878 0
-0.0114921 0.135246 0
-0.0157138 0.148794 0
-0.0218731 0.166641 0
-0.0305991 0.189845 0
-0.042221 0.218565 0
-0.054995 0.249483 0
-0.0574455 0.268577 0
0.00402152 0.23605 0
0.348639 0.099842 0
7.32481e-05 0.00386056 0
0.00044037 0.00792254 0
-0.000205411 0.00852755 0
-0.00127156 0.00962345 0
-0.00247037 0.0113472 0
-0.00367264 0.013766 0
-0.00482299 0.0168919 0
-0.00589874 0.0207035 0
-0.00689085 0.0251611 0
-0.0077954 0.0302151 0
-0.00860977 0.0358106 0
-0.00933106 0.041889 0
-0.00995561 0.0483887 0
-0.0104791 0.0552452 0
-0.0108972 0.0623913 0
-0.0112061 0.0697577 0
-0.0114036 0.0772733 0
-0.01149 0.084867 0
-0.0114696 0.0924695 0
-0.0113521 0.100016 0
-0.0111535 0.107452 0
-0.0108987 0.114732 0
-0.0106226 0.121832 0
-0.0103735 0.128752 0
-0.0102161 0.135526 0
-0.0102359 0.142228 0
-0.0105466 0.148988 0
-0.0112979 0.156 0
-0.012688 0.163537 0
-0.0149774 0.171958 0
-0.0185021 0.181712 0
-0.0236774 0.193302 0
-0.0309658 0.207188 0
-0.0407393 0.223529 0
-0.0528383 0.241584 0
-0.0652542 0.258386 0
-0.0702113 0.266083 0
-0.0425926 0.247883 0
0.0914551 0.178969 0
0.51364 0.0642161 0
-0.000145153 0.00499941 0
-0.000204762 0.0104483 0
-0.00136657 0.0116581 0
-0.00307845 0.0135306 0
-0.00500867 0.0161406 0
-0.00697549 0.0195359 0
-0.00888468 0.0237287 0
-0.010689 0.0287017 0
-0.0123647 0.0344174 0
-0.0138992 0.0408251 0
-0.0152839 0.0478656 0
-0.0165115 0.0554731 0
-0.0175744 0.0635774 0
-0.0184645 0.0721036 0
-0.0191739 0.0809729 0
-0.0196962 0.0901031 0
-0.0200272 0.0994095 0
-0.0201676 0.108806 0
-0.0201238 0.118209 0
-0.0199113 0.127538 0
-0.0195559 0.136718 0
-0.0190971 0.14569 0
-0.0185904 0.154411 0
-0.0181114 0.162859 0
-0.0177596 0.171044 0
-0.0176642 0.179013 0
-0.0179906 0.186853 0
-0.018948 0.194697 0
-0.0207976 0.202723 0
-0.0238556 0.21114 0
-0.0284826 0.220149 0
-0.0350353 0.229861 0
-0.0437271 0.240122 0
-0.0542727 0.25017 0
-0.0650255 0.258 0
-0.0709116 0.259285 0
-0.0585485 0.24592 0
0.00462458 0.205739 0
0.189878 0.129821 0
0.619857 0.0412217 0
-0.000503919 0.00606372 0
-0.00130203 0.0127873 0
-0.00318987 0.0145201 0
-0.00567274 0.0170808 0
-0.00841804 0.0204804 0
-0.0112195 0.0247315 0
-0.0139562 0.0298314 0
-0.0165591 0.0357586 0
-0.0189893 0.0424757 0
-0.0212232 0.0499324 0
-0.0232444 0.0580688 0
-0.0250394 0.0668176 0
-0.0265949 0.0761049 0
-0.0278978 0.0858513 0
-0.0289356 0.0959715 0
-0.0296975 0.106376 0
-0.0301767 0.11697 0
-0.0303722 0.127659 0
-0.030292 0.138343 0
-0.0299552 0.148928 0
-0.0293959 0.159324 0
-0.028666 0.169448 0
-0.0278385 0.179234 0
-0.0270118 0.188629 0
-0.0263135 0.197606 0
-0.0259049 0.206158 0
-0.0259858 0.214306 0
-0.0267972 0.222091 0
-0.0286194 0.229558 0
-0.0317577 0.236731 0
-0.036498 0.243555 0
-0.0429971 0.249788 0
-0.0510343 0.254819 0
-0.0594706 0.257356 0
-0.0651036 0.25494 0
-0.0602998 0.243329 0
-0.0283449 0.216184 0
0.0645314 0.166736 0
0.277972 0.0954385 0
0.689358 0.0276053 0
-0.000979045 0.00702425 0
-0.00277215 0.0148781 0
-0.0055726 0.0170357 0
-0.00894344 0.0201616 0
-0.0125733 0.0242137 0
-0.0162534 0.029167 0
-0.0198507 0.0349977 0
-0.0232823 0.0416746 0
-0.0264969 0.0491572 0
-0.0294609 0.0573953 0
-0.0321496 0.0663302 0
-0.034542 0.0758954 0
-0.0366181 0.0860173 0
-0.0383585 0.0966153 0
-0.0397443 0.107602 0
-0.0407591 0.118882 0
-0.041391 0.130357 0
-0.0416358 0.14192 0
-0.0415001 0.153463 0
-0.0410043 0.164877 0
-0.0401871 0.176052 0
-0.0391083 0.186884 0
-0.0378532 0.197278 0
-0.0365352 0.207145 0
-0.0352998 0.216412 0
-0.0343264 0.225017 0
-0.0338289 0.232903 0
-0.0340521 0.240013 0
-0.0352577 0.246269 0
-0.0376899 0.251533 0
-0.0414981 0.255549 0
-0.0465735 0.257844 0
-0.0522157 0.257568 0
-0.0564741 0.253261 0
-0.0548842 0.242561 0
-0.0381591 0.221983 0
0.0116303 0.187295 0
0.126007 0.135765 0
0.352031 0.0722904 0
0.737027 0.0194629 0
-0.00154524 0.00785084 0
-0.00453477 0.0166616 0
-0.00839814 0.0191459 0
-0.0127543 0.0227081 0
-0.0173236 0.0272639 0
-0.0219097 0.0327558 0
-0.0263796 0.0391382 0
-0.0306455 0.0463685 0
-0.0346487 0.054401 0
-0.0383481 0.0631853 0
-0.0417115 0.0726644 0
-0.0447104 0.0827744 0
-0.0473173 0.0934439 0
-0.0495049 0.104593 0
-0.0512463 0.116135 0
-0.0525175 0.127973 0
-0.0532995 0.140001 0
-0.0535818 0.152108 0
-0.0533665 0.164175 0
-0.0526719 0.176076 0
-0.0515366 0.187685 0
-0.0500237 0.198876 0
-0.0482238 0.209521 0
-0.0462576 0.219497 0
-0.0442782 0.228687 0
-0.0424698 0.23697 0
-0.0410441 0.244223 0
-0.0402289 0.250306 0
-0.040243 0.255039 0
-0.0412438 0.258171 0
-0.0432227 0.259322 0
-0.0458015 0.257903 0
-0.0478451 0.252999 0
-0.0467476 0.243215 0
-0.0371738 0.22654 0
-0.00900843 0.200398 0
0.055496 0.162338 0
0.184276 0.112199 0
0.413578 0.0565908 0
0.771457 0.0144245 0
-0.00217888 0.00851982 0
-0.00651442 0.0180937 0
-0.0115526 0.0208132 0
-0.0169665 0.024688 0
-0.0225136 0.0296019 0
-0.028019 0.0354713 0
-0.0333597 0.0422321 0
-0.0384504 0.0498306 0
-0.0432309 0.0582165 0
-0.0476557 0.0673389 0
-0.0516866 0.0771433 0
-0.0552883 0.0875694 0
-0.0584251 0.0985493 0
-0.0610605 0.110006 0
-0.0631582 0.121854 0
-0.0646841 0.133995 0
-0.0656092 0.14632 0
-0.065914 0.158712 0
-0.0655924 0.171041 0
-0.0646566 0.183168 0
-0.063141 0.19495 0
-0.0611064 0.206236 0
-0.0586429 0.216872 0
-0.0558717 0.226703 0
-0.0529449 0.235568 0
-0.0500421 0.243301 0
-0.0473619 0.249724 0
-0.0451037 0.254633 0
-0.0434331 0.257782 0
-0.0424151 0.25885 0
-0.0418895 0.257401 0
-0.0412407 0.252818 0
-0.038982 0.244224 0
-0.0320333 0.2304 0
-0.0145423 0.209758 0
0.0238326 0.180546 0
0.0998905 0.141628 0
0.237755 0.0943479 0
0.465072 0.045683 0
0.797548 0.0111727 0
-0.00285891 0.00901466 0
-0.00864291 0.019145 0
-0.0149307 0.0220169 0
-0.0214484 0.02609 0
-0.0279934 0.0312254 0
-0.0344184 0.0373199 0
-0.0406173 0.0442953 0
-0.0465139 0.0520895 0
-0.0520512 0.0606493 0
-0.0571829 0.0699242 0
-0.0618668 0.0798631 0
-0.0660612 0.0904102 0
-0.0697217 0.101502 0
-0.072802 0.113066 0
-0.0752539 0.125018 0
-0.077031 0.137261 0
-0.0780917 0.149683 0
-0.0784039 0.16216 0
-0.0779502 0.174554 0
-0.0767323 0.186714 0
-0.0747764 0.198478 0
-0.0721365 0.209675 0
-0.0688975 0.220128 0
-0.0651757 0.22965 0
-0.0611169 0.238049 0
-0.0568905 0.245121 0
-0.0526768 0.250648 0
-0.0486433 0.254387 0
-0.0449027 0.256051 0
-0.0414349 0.255289 0
-0.037949 0.251654 0
-0.0336374 0.244554 0
-0.0267506 0.233205 0
-0.0138966 0.216598 0
0.0110194 0.193544 0
0.0581731 0.162954 0
0.143061 0.124606 0
0.286244 0.0806643 0
0.508706 0.0378659 0
0.818151 0.00897785 0
-0.00356692 0.00932477 0
-0.0108596 0.0197979 0
-0.0184372 0.0227477 0
-0.0260784 0.0269152 0
-0.0336229 0.0321457 0
-0.0409548 0.038323 0
-0.0479902 0.0453599 0
-0.0546671 0.0531897 0
-0.0609357 0.0617583 0
-0.0667518 0.071018 0
-0.0720713 0.0809221 0
-0.0768464 0.0914205 0
-0.0810241 0.102456 0
-0.0845463 0.11396 0
-0.0873518 0.125852 0
-0.089379 0.138036 0
-0.0905707 0.150398 0
-0.0908791 0.162809 0
-0.0902716 0.175122 0
-0.0887364 0.187175 0
-0.0862873 0.198791 0
-0.0829683 0.209781 0
-0.0788554 0.219944 0
-0.0740568 0.229072 0
-0.0687095 0.236946 0
-0.0629705 0.243336 0
-0.0570013 0.247998 0
-0.05094 0.250666 0
-0.0448523 0.251036 0
-0.0386469 0.248755 0
-0.0319279 0.243391 0
-0.0237416 0.234404 0
-0.0121544 0.221123 0
0.0064065 0.20274 0
0.0380817 0.178409 0
0.0926442 0.147549 0
0.184172 0.110546 0
0.330071 0.0699671 0
0.546192 0.0320719 0
0.834969 0.00742787 0
-0.00428673 0.00944395 0
-0.0131106 0.020043 0
-0.0219861 0.0230034 0
-0.0307453 0.0271701 0
-0.039272 0.0323788 0
-0.0474851 0.0385064 0
-0.0553269 0.0454617 0
-0.0627531 0.0531774 0
-0.0697246 0.0616019 0
-0.0762018 0.0706922 0
-0.0821398 0.0804083 0
-0.0874853 0.0907071 0
-0.0921761 0.101538 0
-0.0961413 0.112839 0
-0.0993041 0.124534 0
-0.101586 0.136527 0
-0.10291 0.148706 0
-0.10321 0.160935 0
-0.102436 0.173062 0
-0.100557 0.184913 0
-0.0975735 0.196297 0
-0.0935158 0.20701 0
-0.0884492 0.216835 0
-0.0824724 0.225542 0
-0.0757126 0.232894 0
-0.0683158 0.238646 0
-0.0604272 0.242536 0
-0.0521605 0.24429 0
-0.043544 0.243604 0
-0.0344305 0.240136 0
-0.0243442 0.233485 0
-0.0122255 0.223175 0
0.0039784 0.208643 0
0.0279217 0.189263 0
0.0656553 0.164465 0
0.126418 0.134045 0
0.222876 0.0987827 0
0.36971 0.0614067 0
0.578798 0.0276282 0
0.849057 0.00628408 0
-0.00500388 0.00936925 0
-0.015347 0.0198766 0
-0.0254989 0.0227853 0
-0.0353463 0.0268629 0
-0.0448197 0.0319407 0
-0.0538757 0.0378942 0
-0.0624855 0.0446333 0
-0.0706255 0.0520941 0
-0.0782699 0.0602308 0
-0.0853852 0.0690082 0
-0.0919267 0.0783945 0
-0.097836 0.0883556 0
-0.103041 0.0988494 0
-0.107456 0.109821 0
-0.110987 0.121199 0
-0.113535 0.132892 0
-0.115002 0.144786 0
-0.1153 0.156744 0
-0.114357 0.168606 0
-0.112122 0.18019 0
-0.108577 0.191295 0
-0.103739 0.201701 0
-0.0976613 0.211177 0
-0.0904318 0.219481 0
-0.0821702 0.226361 0
-0.0730133 0.23156 0
-0.0630947 0.234812 0
-0.0525104 0.235841 0
-0.0412613 0.234351 0
-0.0291589 0.230021 0
-0.0156693 0.222488 0
0.000339536 0.211338 0
0.0209887 0.196106 0
0.0499404 0.17632 0
0.0930651 0.15163 0
0.159001 0.122104 0
0.259076 0.0887723 0
0.405633 0.0543817 0
0.607454 0.0241034 0
0.861086 0.0054039 0
-0.00570494 0.00910021 0
-0.0175238 0.0192989 0
-0.0289023 0.0220974 0
-0.0397852 0.0260022 0
-0.0501523 0.030846 0
-0.0600003 0.0365074 0
-0.069332 0.0429024 0
-0.0781463 0.0499746 0
-0.0864322 0.0576875 0
-0.0941639 0.0660159 0
-0.101297 0.0749388 0
-0.107768 0.0844328 0
-0.113494 0.0944657 0
-0.118373 0.104991 0
-0.122291 0.115945 0
-0.125128 0.127239 0
-0.12676 0.138762 0
-0.127074 0.150374 0
-0.125973 0.161913 0
-0.123385 0.173187 0
-0.119272 0.183988 0
-0.113633 0.194083 0
-0.106509 0.203231 0
-0.0979816 0.211178 0
-0.0881625 0.217663 0
-0.0771834 0.222424 0
-0.0651714 0.225193 0
-0.0522117 0.225699 0
-0.038287 0.223659 0
-0.0231804 0.218774 0
-0.00631809 0.21072 0
0.013478 0.199138 0
0.0383578 0.183651 0
0.0719374 0.163912 0
0.119849 0.139742 0
0.190105 0.111406 0
0.292788 0.0800849 0
0.43825 0.0484651 0
0.632836 0.0212147 0
0.871494 0.00469927 0
-0.00637697 0.0086386 0
-0.0195976 0.0183142 0
-0.0321265 0.0209455 0
-0.0439707 0.0245974 0
-0.0551618 0.0291082 0
-0.0657393 0.034365 0
-0.0757389 0.0402938 0
-0.0851839 0.0468498 0
-0.094079 0.0540086 0
-0.102406 0.0617577 0
-0.110123 0.0700891 0
-0.117158 0.0789918 0
-0.123418 0.0884451 0
-0.128783 0.0984133 0
-0.133118 0.10884 0
-0.136276 0.119643 0
-0.138108 0.130715 0
-0.13847 0.141917 0
-0.13724 0.153082 0
-0.13432 0.164016 0
-0.129649 0.174501 0
-0.123211 0.184298 0
-0.115035 0.193155 0
-0.105192 0.20081 0
-0.0937929 0.206997 0
-0.0809664 0.21145 0
-0.0668383 0.213903 0
-0.0514895 0.21409 0
-0.0348927 0.211745 0
-0.0168132 0.20659 0
0.00334836 0.198334 0
0.0267946 0.18667 0
0.0556739 0.171291 0
0.0935173 0.151953 0
0.14568 0.128608 0
0.219552 0.101665 0
0.324073 0.0723834 0
0.467894 0.043349 0
0.655434 0.0187708 0
0.880576 0.00411379 0
-0.00700708 0.00798856 0
-0.0215259 0.0169309 0
-0.035104 0.0193393 0
-0.0478147 0.0226603 0
-0.0597449 0.0267428 0
-0.0709783 0.031487 0
-0.0815849 0.0368329 0
-0.0916129 0.0427504 0
-0.101083 0.04923 0
-0.109987 0.0562743 0
-0.11828 0.0638898 0
-0.125887 0.0720797 0
-0.132699 0.0808368 0
-0.13858 0.090137 0
-0.143369 0.0999341 0
-0.146893 0.110155 0
-0.148971 0.120696 0
-0.149431 0.131423 0
-0.148117 0.142168 0
-0.144905 0.152734 0
-0.139712 0.162898 0
-0.132502 0.172416 0
-0.123292 0.181028 0
-0.112148 0.188466 0
-0.0991774 0.19446 0
-0.0845121 0.198742 0
-0.0682806 0.201048 0
-0.050565 0.20112 0
-0.031335 0.198704 0
-0.0103464 0.193542 0
0.0130136 0.185372 0
0.0399555 0.173927 0
0.0726025 0.158962 0
0.114372 0.140312 0
0.17032 0.118032 0
0.247228 0.0926291 0
0.352998 0.0654012 0
0.494825 0.0388065 0
0.675601 0.0166389 0
0.888533 0.00360989 0
-0.00758213 0.00715698 0
-0.0232668 0.0151628 0
-0.0377687 0.0172933 0
-0.0512326 0.0202076 0
-0.0638027 0.0237704 0
-0.0756083 0.0278991 0
-0.0867542 0.032551 0
-0.0973134 0.0377136 0
-0.107323 0.0433943 0
-0.116782 0.0496123 0
-0.125647 0.0563903 0
-0.133835 0.0637471 0
-0.141224 0.0716903 0
-0.147656 0.0802098 0
-0.152947 0.0892716 0
-0.156891 0.0988132 0
-0.159277 0.108739 0
-0.159897 0.118921 0
-0.158564 0.129194 0
-0.155124 0.139361 0
-0.149467 0.149197 0
-0.141538 0.158454 0
-0.131342 0.166867 0
-0.118939 0.174165 0
-0.104437 0.180073 0
-0.087973 0.184322 0
-0.0696822 0.18665 0
-0.0496524 0.186805 0
-0.0278555 0.184541 0
-0.00404515 0.179617 0
0.0223956 0.171793 0
0.0526713 0.160837 0
0.0888613 0.14655 0
0.134248 0.128835 0
0.193578 0.107821 0
0.273046 0.0840821 0
0.379614 0.0589243 0
0.519235 0.0346658 0
0.693589 0.0147226 0
0.895499 0.0031615 0
-0.00808865 0.0061541 0
-0.0247781 0.0130305 0
-0.0400564 0.0148293 0
-0.0541431 0.0172642 0
-0.0672416 0.0202208 0
-0.0795267 0.0236371 0
-0.0911376 0.027491 0
-0.102172 0.0317889 0
-0.112682 0.0365568 0
-0.122675 0.0418315 0
-0.132106 0.0476528 0
-0.140886 0.0540563 0
-0.148876 0.0610659 0
-0.1559 0.0686869 0
-0.161744 0.0769004 0
-0.166173 0.085657 0
-0.16894 0.0948732 0
-0.169802 0.104429 0
-0.168534 0.114166 0
-0.164949 0.123893 0
-0.158912 0.133384 0
-0.150346 0.142392 0
-0.139241 0.150648 0
-0.125653 0.157877 0
-0.109691 0.163803 0
-0.0914992 0.168153 0
-0.0712222 0.170666 0
-0.048957 0.171093 0
-0.0246825 0.169194 0
0.00184471 0.164738 0
0.0312375 0.157503 0
0.064683 0.147282 0
0.104202 0.133916 0
0.152925 0.117355 0
0.215288 0.0977879 0
0.296925 0.0758323 0
0.40395 0.0527763 0
0.541255 0.0307926 0
0.709571 0.0129502 0
0.901565 0.00274975 0
-0.00851294 0.00499408 0
-0.0260189 0.0105632 0
-0.0419057 0.0119787 0
-0.0564701 0.0138662 0
-0.0699745 0.0161365 0
-0.0826385 0.0187519 0
-0.0946341 0.0217122 0
-0.106082 0.0250442 0
-0.11705 0.0287926 0
-0.12755 0.0330123 0
-0.137539 0.0377607 0
-0.146917 0.0430905 0
-0.155535 0.0490431 0
-0.163191 0.0556415 0
-0.169647 0.0628838 0
-0.174633 0.0707374 0
-0.177866 0.0791341 0
-0.179063 0.0879671 0
-0.177963 0.0970902 0
-0.174344 0.106319 0
-0.168037 0.115434 0
-0.158943 0.124188 0
-0.147038 0.132316 0
-0.132371 0.139538 0
-0.115053 0.145575 0
-0.0952343 0.150151 0
-0.0730722 0.153005 0
-0.0486755 0.153884 0
-0.0220326 0.152552 0
0.00709156 0.148784 0
0.0392992 0.142368 0
0.0757503 0.133117 0
0.118394 0.120898 0
0.170201 0.105701 0
0.235292 0.087758 0
0.318775 0.0677088 0
0.426002 0.0468081 0
0.560965 0.0270787 0
0.723659 0.0112659 0
0.906789 0.00236044 0
-0.00884142 0.00369555 0
-0.0269498 0.00779919 0
-0.0432596 0.0087841 0
-0.0581444 0.010063 0
-0.0719236 0.0115764 0
-0.0848589 0.0133129 0
-0.0971526 0.0152953 0
-0.108947 0.0175708 0
-0.120322 0.0202025 0
-0.131298 0.0232625 0
-0.141829 0.0268253 0
-0.15181 0.0309614 0
-0.161075 0.0357303 0
-0.169403 0.0411742 0
-0.176528 0.0473112 0
-0.182147 0.0541286 0
-0.185939 0.0615783 0
-0.187582 0.0695719 0
-0.186772 0.0779796 0
-0.183249 0.0866302 0
-0.17681 0.095315 0
-0.167331 0.103793 0
-0.154768 0.111801 0
-0.139161 0.11906 0
-0.120623 0.125287 0
-0.0993113 0.130203 0
-0.0753943 0.13354 0
-0.0489943 0.135043 0
-0.0201125 0.134472 0
0.0114742 0.131602 0
0.0463513 0.126227 0
0.0856428 0.118171 0
0.131217 0.107322 0
0.185875 0.0936996 0
0.253429 0.0775612 0
0.338492 0.059556 0
0.445737 0.0408905 0
0.578395 0.023434 0
0.735915 0.00962466 0
0.911201 0.00198242 0
-0.00906107 0.00228204 0
-0.0275354 0.00478793 0
-0.044068 0.00530118 0
-0.0591064 0.00591996 0
-0.0730225 0.00661804 0
-0.0861157 0.00741143 0
-0.0986152 0.00834585 0
-0.110681 0.00948765 0
-0.122407 0.0109169 0
-0.133816 0.0127216 0
-0.144865 0.0149923 0
-0.155441 0.0178164 0
-0.165365 0.0212721 0
-0.174398 0.0254224 0
-0.182247 0.0303076 0
-0.188576 0.0359394 0
-0.193027 0.0422939 0
-0.195234 0.0493071 0
-0.194854 0.0568718 0
-0.191582 0.0648367 0
-0.185178 0.0730092 0
-0.175487 0.0811601 0
-0.162442 0.0890319 0
-0.146072 0.0963482 0
-0.126487 0.102824 0
-0.103849 0.108174 0
-0.0783377 0.112123 0
-0.0500896 0.114408 0
-0.0191199 0.114781 0
0.014779 0.113013 0
0.0521699 0.108896 0
0.0941337 0.102259 0
0.142448 0.0930059 0
0.199742 0.0811722 0
0.269525 0.0670322 0
0.355951 0.0512288 0
0.463087 0.0349082 0
0.593533 0.019781 0
0.746356 0.00798911 0
0.914814 0.00160664 0
-0.00916023 0.0007821 0
-0.0277453 0.00158986 0
-0.0442904 0.00159926 0
-0.0593094 0.00151918 0
-0.0732199 0.00135887 0
-0.0863528 0.00116204 0
-0.0989592 0.000995803 0
-0.111215 0.000943532 0
-0.123223 0.0010997 0
-0.135012 0.00156579 0
-0.14654 0.00244634 0
-0.157689 0.00384457 0
-0.168272 0.00585728 0
-0.17803 0.00856892 0
-0.186648 0.0120449 0
-0.19376 0.0163244 0
-0.19897 0.0214133 0
-0.201871 0.0272782 0
-0.202073 0.0338417 0
-0.199228 0.0409797 0
-0.193053 0.048523 0
-0.183356 0.0562604 0
-0.170044 0.0639462 0
-0.153126 0.0713092 0
-0.132705 0.0780634 0
-0.108945 0.0839183 0
-0.0820355 0.0885881 0
-0.0521243 0.0917975 0
-0.0192428 0.093287 0
0.0167981 0.0928164 0
0.0565336 0.0901716 0
0.100994 0.0851821 0
0.151861 0.0777553 0
0.211586 0.0679379 0
0.28339 0.056008 0
0.370998 0.0425893 0
0.477949 0.0287549 0
0.606327 0.0160509 0
0.754968 0.00632697 0
0.917621 0.00122546 0
-0.00912931 -0.000770786 0
-0.0275573 -0.00172359 0
-0.0438987 -0.0022387 0
-0.0587228 -0.00304051 0
-0.0724829 -0.00408329 0
-0.0855334 -0.00529695 0
-0.0981417 -0.00659555 0
-0.110495 -0.007882 0
-0.122705 -0.00905092 0
-0.134806 -0.00999066 0
-0.146757 -0.0105855 0
-0.15844 -0.0107184 0
-0.16966 -0.0102752 0
-0.180147 -0.00914952 0
-0.189565 -0.00724922 0
-0.197522 -0.00450401 0
-0.203586 -0.000873096 0
-0.20731 0.0036472 0
-0.208259 0.00901694 0
-0.206035 0.0151483 0
-0.200309 0.0219038 0
-0.190846 0.0290986 0
-0.177518 0.0365056 0
-0.16031 0.0438641 0
-0.139308 0.0508902 0
-0.114674 0.0572881 0
-0.0865996 0.0627602 0
-0.0552458 0.0670162 0
-0.0206587 0.0697797 0
0.0173293 0.0707947 0
0.059221 0.0698351 0
0.10599 0.0667235 0
0.159216 0.0613657 0
0.221174 0.0538089 0
0.294806 0.044324 0
0.38345 0.033502 0
0.490184 0.02233 0
0.616686 0.0121803 0
0.761699 0.0046093 0
0.919604 0.000832172 0
-0.00896183 -0.00233872 0
-0.0269589 -0.00507099 0
-0.0428803 -0.00611715 0
-0.0573353 -0.00764462 0
-0.0708002 -0.00957188 0
-0.0836436 -0.0118051 0
-0.0961423 -0.0142432 0
-0.108491 -0.0167797 0
-0.120808 -0.0193026 0
-0.133134 -0.0216944 0
-0.145431 -0.0238318 0
-0.157585 -0.0255871 0
-0.169398 -0.0268308 0
-0.180594 -0.0274351 0
-0.190821 -0.0272806 0
-0.199667 -0.0262632 0
-0.206669 -0.0243026 0
-0.211342 -0.0213515 0
-0.213204 -0.0174039 0
-0.211808 -0.0125022 0