# vtk DataFile Version 2.0
Velocidades
ASCII

DATASET STRUCTURED_GRID
DIMENSIONS   40   40   20

POINTS   32000   double
0.0125   0.0125   0.025
0.0125   0.0375   0.025
0.0125   0.0625   0.025
0.0125   0.0875   0.025
0.0125   0.1125   0.025
0.0125   0.1375   0.025
0.0125   0.1625   0.025
0.0125   0.1875   0.025
0.0125   0.2125   0.025
0.0125   0.2375   0.025
0.0125   0.2625   0.025
0.0125   0.2875   0.025
0.0125   0.3125   0.025
0.0125   0.3375   0.025
0.0125   0.3625   0.025
0.0125   0.3875   0.025
0.0125   0.4125   0.025
0.0125   0.4375   0.025
0.0125   0.4625   0.025
0.0125   0.4875   0.025
0.0125   0.5125   0.025
0.0125   0.5375   0.025
0.0125   0.5625   0.025
0.0125   0.5875   0.025
0.0125   0.6125   0.025
0.0125   0.6375   0.025
0.0125   0.6625   0.025
0.0125   0.6875   0.025
0.0125   0.7125   0.025
0.0125   0.7375   0.025
0.0125   0.7625   0.025
0.0125   0.7875   0.025
0.0125   0.8125   0.025
0.0125   0.8375   0.025
0.0125   0.8625   0.025
0.0125   0.8875   0.025
0.0125   0.9125   0.025
0.0125   0.9375   0.025
0.0125   0.9625   0.025
0.0125   0.9875   0.025
0.0375   0.0125   0.025
0.0375   0.0375   0.025
0.0375   0.0625   0.025
0.0375   0.0875   0.025
0.0375   0.1125   0.025
0.0375   0.1375   0.025
0.0375   0.1625   0.025
0.0375   0.1875   0.025
0.0375   0.2125   0.025
0.0375   0.2375   0.025
0.0375   0.2625   0.025
0.0375   0.2875   0.025
0.0375   0.3125   0.025
0.0375   0.3375   0.025
0.0375   0.3625   0.025
0.0375   0.3875   0.025
0.0375   0.4125   0.025
0.0375   0.4375   0.025
0.0375   0.4625   0.025
0.0375   0.4875   0.025
0.0375   0.5125   0.025
0.0375   0.5375   0.025
0.0375   0.5625   0.025
0.0375   0.5875   0.025
0.0375   0.6125   0.025
0.0375   0.6375   0.025
0.0375   0.6625   0.025
0.0375   0.6875   0.025
0.0375   0.7125   0.025
0.0375   0.7375   0.025
0.0375   0.7625   0.025
0.0375   0.7875   0.025
0.0375   0.8125   0.025
0.0375   0.8375   0.025
0.0375   0.8625   0.025
0.0375   0.8875   0.025
0.0375   0.9125   0.025
0.0375   0.9375   0.025
0.0375   0.9625   0.025
0.0375   0.9875   0.025
0.0625   0.0125   0.025
0.0625   0.0375   0.025
0.0625   0.0625   0.025
0.0625   0.0875   0.025
0.0625   0.1125   0.025
0.0625   0.1375   0.025
0.0625   0.1625   0.025
0.0625   0.1875   0.025
0.0625   0.2125   0.025
0.0625   0.2375   0.025
0.0625   0.2625   0.025
0.0625   0.2875   0.025
0.0625   0.3125   0.025
0.0625   0.3375   0.025
0.0625   0.3625   0.025
0.0625   0.3875   0.025
0.0625   0.4125   0.025
0.0625   0.4375   0.025
0.0625   0.4625   0.025
0.0625   0.4875   0.025
0.0625   0.5125   0.025
0.0625   0.5375   0.025
0.0625   0.5625   0.025
0.0625   0.5875   0.025
0.0625   0.6125   0.025
0.0625   0.6375   0.025
0.0625   0.6625   0.025
0.0625   0.6875   0.025
0.0625   0.7125   0.025
0.0625   0.7375   0.025
0.0625   0.7625   0.025
0.0625   0.7875   0.025
0.0625   0.8125   0.025
0.0625   0.8375   0.025
0.0625   0.8625   0.025
0.0625   0.8875   0.025
0.0625   0.9125   0.025
0.0625   0.9375   0.025
0.0625   0.9625   0.025
0.0625   0.9875   0.025
0.0875   0.0125   0.025
0.0875   0.0375   0.025
0.0875   0.0625   0.025
0.0875   0.0875   0.025
0.0875   0.1125   0.025
0.0875   0.1375   0.025
0.0875   0.1625   0.025
0.0875   0.1875   0.025
0.0875   0.2125   0.025
0.0875   0.2375   0.025
0.0875   0.2625   0.025
0.0875   0.2875   0.025
0.0875   0.3125   0.025
0.0875   0.3375   0.025
0.0875   0.3625   0.025
0.0875   0.3875   0.025
0.0875   0.4125   0.025
0.0875   0.4375   0.025
0.0875   0.4625   0.025
0.0875   0.4875   0.025
0.0875   0.5125   0.025
0.0875   0.5375   0.025
0.0875   0.5625   0.025
0.0875   0.5875   0.025
0.0875   0.6125   0.025
0.0875   0.6375   0.025
0.0875   0.6625   0.025
0.0875   0.6875   0.025
0.0875   0.7125   0.025
0.0875   0.7375   0.025
0.0875   0.7625   0.025
0.0875   0.7875   0.025
0.0875   0.8125   0.025
0.0875   0.8375   0.025
0.0875   0.8625   0.025
0.0875   0.8875   0.025
0.0875   0.9125   0.025
0.0875   0.9375   0.025
0.0875   0.9625   0.025
0.0875   0.9875   0.025
0.1125   0.0125   0.025
0.1125   0.0375   0.025
0.1125   0.0625   0.025
0.1125   0.0875   0.025
0.1125   0.1125   0.025
0.1125   0.1375   0.025
0.1125   0.1625   0.025
0.1125   0.1875   0.025
0.1125   0.2125   0.025
0.1125   0.2375   0.025
0.1125   0.2625   0.025
0.1125   0.2875   0.025
0.1125   0.3125   0.025
0.1125   0.3375   0.025
0.1125   0.3625   0.025
0.1125   0.3875   0.025
0.1125   0.4125   0.025
0.1125   0.4375   0.025
0.1125   0.4625   0.025
0.1125   0.4875   0.025
0.1125   0.5125   0.025
0.1125   0.5375   0.025
0.1125   0.5625   0.025
0.1125   0.5875   0.025
0.1125   0.6125   0.025
0.1125   0.6375   0.025
0.1125   0.6625   0.025
0.1125   0.6875   0.025
0.1125   0.7125   0.025
0.1125   0.7375   0.025
0.1125   0.7625   0.025
0.1125   0.7875   0.025
0.1125   0.8125   0.025
0.1125   0.8375   0.025
0.1125   0.8625   0.025
0.1125   0.8875   0.025
0.1125   0.9125   0.025
0.1125   0.9375   0.025
0.1125   0.9625   0.025
0.1125   0.9875   0.025
0.1375   0.0125   0.025
0.1375   0.0375   0.025
0.1375   0.0625   0.025
0.1375   0.0875   0.025
0.1375   0.1125   0.025
0.1375   0.1375   0.025
0.1375   0.1625   0.025
0.1375   0.1875   0.025
0.1375   0.2125   0.025
0.1375   0.2375   0.025
0.1375   0.2625   0.025
0.1375   0.2875   0.025
0.1375   0.3125   0.025
0.1375   0.3375   0.025
0.1375   0.3625   0.025
0.1375   0.3875   0.025
0.1375   0.4125   0.025
0.1375   0.4375   0.025
0.1375   0.4625   0.025
0.1375   0.4875   0.025
0.1375   0.5125   0.025
0.1375   0.5375   0.025
0.1375   0.5625   0.025
0.1375   0.5875   0.025
0.1375   0.6125   0.025
0.1375   0.6375   0.025
0.1375   0.6625   0.025
0.1375   0.6875   0.025
0.1375   0.7125   0.025
0.1375   0.7375   0.025
0.1375   0.7625   0.025
0.1375   0.7875   0.025
0.1375   0.8125   0.025
0.1375   0.8375   0.025
0.1375   0.8625   0.025
0.1375   0.8875   0.025
0.1375   0.9125   0.025
0.1375   0.9375   0.025
0.1375   0.9625   0.025
0.1375   0.9875   0.025
0.1625   0.0125   0.025
0.1625   0.0375   0.025
0.1625   0.0625   0.025
0.1625   0.0875   0.025
0.1625   0.1125   0.025
0.1625   0.1375   0.025
0.1625   0.1625   0.025
0.1625   0.1875   0.025
0.1625   0.2125   0.025
0.1625   0.2375   0.025
0.1625   0.2625   0.025
0.1625   0.2875   0.025
0.1625   0.3125   0.025
0.1625   0.3375   0.025
0.1625   0.3625   0.025
0.1625   0.3875   0.025
0.1625   0.4125   0.025
0.1625   0.4375   0.025
0.1625   0.4625   0.025
0.1625   0.4875   0.025
0.1625   0.5125   0.025
0.1625   0.5375   0.025
0.1625   0.5625   0.025
0.1625   0.5875   0.025
0.1625   0.6125   0.025
0.1625   0.6375   0.025
0.1625   0.6625   0.025
0.1625   0.6875   0.025
0.1625   0.7125   0.025
0.1625   0.7375   0.025
0.1625   0.7625   0.025
0.1625   0.7875   0.025
0.1625   0.8125   0.025
0.1625   0.8375   0.025
0.1625   0.8625   0.025
0.1625   0.8875   0.025
0.1625   0.9125   0.025
0.1625   0.9375   0.025
0.1625   0.9625   0.025
0.1625   0.9875   0.025
0.1875   0.0125   0.025
0.1875   0.0375   0.025
0.1875   0.0625   0.025
0.1875   0.0875   0.025
0.1875   0.1125   0.025
0.1875   0.1375   0.025
0.1875   0.1625   0.025
0.1875   0.1875   0.025
0.1875   0.2125   0.025
0.1875   0.2375   0.025
0.1875   0.2625   0.025
0.1875   0.2875   0.025
0.1875   0.3125   0.025
0.1875   0.3375   0.025
0.1875   0.3625   0.025
0.1875   0.3875   0.025
0.1875   0.4125   0.025
0.1875   0.4375   0.025
0.1875   0.4625   0.025
0.1875   0.4875   0.025
0.1875   0.5125   0.025
0.1875   0.5375   0.025
0.1875   0.5625   0.025
0.1875   0.5875   0.025
0.1875   0.6125   0.025
0.1875   0.6375   0.025
0.1875   0.6625   0.025
0.1875   0.6875   0.025
0.1875   0.7125   0.025
0.1875   0.7375   0.025
0.1875   0.7625   0.025
0.1875   0.7875   0.025
0.1875   0.8125   0.025
0.1875   0.8375   0.025
0.1875   0.8625   0.025
0.1875   0.8875   0.025
0.1875   0.9125   0.025
0.1875   0.9375   0.025
0.1875   0.9625   0.025
0.1875   0.9875   0.025
0.2125   0.0125   0.025
0.2125   0.0375   0.025
0.2125   0.0625   0.025
0.2125   0.0875   0.025
0.2125   0.1125   0.025
0.2125   0.1375   0.025
0.2125   0.1625   0.025
0.2125   0.1875   0.025
0.2125   0.2125   0.025
0.2125   0.2375   0.025
0.2125   0.2625   0.025
0.2125   0.2875   0.025
0.2125   0.3125   0.025
0.2125   0.3375   0.025
0.2125   0.3625   0.025
0.2125   0.3875   0.025
0.2125   0.4125   0.025
0.2125   0.4375   0.025
0.2125   0.4625   0.025
0.2125   0.4875   0.025
0.2125   0.5125   0.025
0.2125   0.5375   0.025
0.2125   0.5625   0.025
0.2125   0.5875   0.025
0.2125   0.6125   0.025
0.2125   0.6375   0.025
0.2125   0.6625   0.025
0.2125   0.6875   0.025
0.2125   0.7125   0.025
0.2125   0.7375   0.025
0.2125   0.7625   0.025
0.2125   0.7875   0.025
0.2125   0.8125   0.025
0.2125   0.8375   0.025
0.2125   0.8625   0.025
0.2125   0.8875   0.025
0.2125   0.9125   0.025
0.2125   0.9375   0.025
0.2125   0.9625   0.025
0.2125   0.9875   0.025
0.2375   0.0125   0.025
0.2375   0.0375   0.025
0.2375   0.0625   0.025
0.2375   0.0875   0.025
0.2375   0.1125   0.025
0.2375   0.1375   0.025
0.2375   0.1625   0.025
0.2375   0.1875   0.025
0.2375   0.2125   0.025
0.2375   0.2375   0.025
0.2375   0.2625   0.025
0.2375   0.2875   0.025
0.2375   0.3125   0.025
0.2375   0.3375   0.025
0.2375   0.3625   0.025
0.2375   0.3875   0.025
0.2375   0.4125   0.025
0.2375   0.4375   0.025
0.2375   0.4625   0.025
0.2375   0.4875   0.025
0.2375   0.5125   0.025
0.2375   0.5375   0.025
0.2375   0.5625   0.025
0.2375   0.5875   0.025
0.2375   0.6125   0.025
0.2375   0.6375   0.025
0.2375   0.6625   0.025
0.2375   0.6875   0.025
0.2375   0.7125   0.025
0.2375   0.7375   0.025
0.2375   0.7625   0.025
0.2375   0.7875   0.025
0.2375   0.8125   0.025
0.2375   0.8375   0.025
0.2375   0.8625   0.025
0.2375   0.8875   0.025
0.2375   0.9125   0.025
0.2375   0.9375   0.025
0.2375   0.9625   0.025
0.2375   0.9875   0.025
0.2625   0.0125   0.025
0.2625   0.0375   0.025
0.2625   0.0625   0.025
0.2625   0.0875   0.025
0.2625   0.1125   0.025
0.2625   0.1375   0.025
0.2625   0.1625   0.025
0.2625   0.1875   0.025
0.2625   0.2125   0.025
0.2625   0.2375   0.025
0.2625   0.2625   0.025
[...]
POINT_DATA   32000
VECTORS Velocidades double

1.79118e-05 0 0
5.41762e-05 0 0
9.18155e-05 0 0
0.000131766 0 0
0.000174956 0 0
0.000222302 0 0
0.0002747 0 0
0.00033302 0 0
0.00039811 0 0
0.000470786 0 0
0.000551848 0 0
0.000642076 0 0
0.000742254 0 0
0.000853187 0 0
0.000975735 0 0
0.00111086 0 0
0.00125968 0 0
0.00142357 0 0
0.0016042 0 0
0.00180377 0 0
0.00202507 0 0
0.00227175 0 0
0.0025486 0 0
0.00286191 0 0
0.00321997 0 0
0.00363386 0 0
0.00411851 0 0
0.0046944 0 0
0.00539016 0 0
0.00624676 0 0
0.0073246 0 0
0.00871599 0 0
0.0105682 0 0
0.0131298 0 0
0.0168498 0 0
0.0226151 0 0
0.0323921 0 0
0.0512439 0 0
0.0949521 0 0
0.225921 0 0
5.09991e-05 0 0
0.000154256 0 0
0.000261436 0 0
0.000375212 0 0
0.000498236 0 0
0.000633121 0 0
0.000782424 0 0
0.000948638 0 0
0.00113418 0 0
0.00134139 0 0
0.00157256 0 0
0.00182993 0 0
0.00211575 0 0
0.00243232 0 0
0.00278212 0 0
0.00316791 0 0
0.00359292 0 0
0.00406104 0 0
0.00457715 0 0
0.00514748 0 0
0.00578009 0 0
0.00648546 0 0
0.00727733 0 0
0.00817375 0 0
0.00919858 0 0
0.0103836 0 0
0.0117718 0 0
0.0134219 0 0
0.0154162 0 0
0.0178722 0 0
0.0209632 0 0
0.024953 0 0
0.0302614 0 0
0.0375912 0 0
0.0481974 0 0
0.0645058 0 0
0.0916963 0 0
0.142283 0 0
0.251406 0 0
0.53661 0 0
7.95707e-05 0 0
0.000240685 0 0
0.000407949 0 0
0.000585548 0 0
0.000777638 0 0
0.000988318 0 0
0.0012216 0 0
0.0014814 0 0
0.00177151 0 0
0.00209564 0 0
0.00245738 0 0
0.00286027 0 0
0.00330787 0 0
0.00380383 0 0
0.00435208 0 0
0.00495698 0 0
0.00562364 0 0
0.00635821 0 0
0.00716842 0 0
0.0080641 0 0
0.00905796 0 0
0.0101666 0 0
0.0114118 0 0
0.012822 0 0
0.014435 0 0
0.0163011 0 0
0.0184881 0 0
0.0210891 0 0
0.0242337 0 0
0.0281073 0 0
0.032982 0 0
0.0392706 0 0
0.0476245 0 0
0.0591214 0 0
0.0756472 0 0
0.100732 0 0
0.141519 0 0
0.21382 0 0
0.355916 0 0
0.665392 0 0
0.000105132 0 0
0.000318017 0 0
0.000539077 0 0
0.000773871 0 0
0.00102792 0 0
0.00130668 0 0
0.0016155 0 0
0.00195957 0 0
0.002344 0 0
0.0027737 0 0
0.0032535 0 0
0.00378815 0 0
0.00438242 0 0
0.00504125 0 0
0.00576989 0 0
0.00657422 0 0
0.00746108 0 0
0.00843874 0 0
0.00951754 0 0
0.0107106 0 0
0.0120351 0 0
0.013513 0 0
0.0151736 0 0
0.0170552 0 0
0.0192084 0 0
0.0217004 0 0
0.0246221 0 0
0.0280977 0 0
0.0323002 0 0
0.0374761 0 0
0.0439855 0 0
0.0523714 0 0
0.0634818 0 0
0.0786986 0 0
0.100387 0 0
0.132826 0 0
0.184247 0 0
0.271504 0 0
0.430679 0 0
0.735726 0 0
0.000128557 0 0
0.0003889 0 0
0.000659309 0 0
0.00094663 0 0
0.00125767 0 0
0.00159913 0 0
0.00197763 0 0
0.00239959 0 0
0.00287129 0 0
0.00339887 0 0
0.00398829 0 0
0.00464548 0 0
0.00537637 0 0
0.0061871 0 0
0.00708423 0 0
0.00807509 0 0
0.00916817 0 0
0.0103737 0 0
0.0117046 0 0
0.013177 0 0
0.0148121 0 0
0.0166372 0 0
0.0186886 0 0
0.0210136 0 0
0.0236749 0 0
0.0267559 0 0
0.0303685 0 0
0.0346659 0 0
0.0398607 0 0
0.0462546 0 0
0.0542863 0 0
0.0646114 0 0
0.0782428 0 0
0.0968048 0 0
0.123015 0 0
0.161635 0 0
0.221412 0 0
0.319071 0 0
0.486823 0 0
0.77924 0 0
0.000150373 0 0
0.000454928 0 0
0.000771351 0 0
0.00110771 0 0
0.00147204 0 0
0.00187225 0 0
0.00231615 0 0
0.00281135 0 0
0.00336529 0 0
0.00398524 0 0
0.00467831 0 0
0.00545154 0 0
0.00631203 0 0
0.00726708 0 0
0.00832454 0 0
0.00949312 0 0
0.0107829 0 0
0.0122061 0 0
0.0137779 0 0
0.0155174 0 0
0.0174496 0 0
0.0196068 0 0
0.0220317 0 0
0.0247805 0 0
0.0279272 0 0
0.0315701 0 0
0.0358411 0 0
0.0409198 0 0
0.0470552 0 0
0.0545987 0 0
0.0640584 0 0
0.0761868 0 0
0.0921333 0 0
0.113712 0 0
0.143892 0 0
0.187724 0 0
0.254099 0 0
0.359019 0 0
0.530519 0 0
0.80843 0 0
0.000170907 0 0
0.000517088 0 0
0.000876879 0 0
0.00125953 0 0
0.00167425 0 0
0.00213013 0 0
0.00263613 0 0
0.00320103 0 0
0.00383338 0 0
0.00454159 0 0
0.00533388 0 0
0.0062184 0 0
0.00720337 0 0
0.00829728 0 0
0.00950922 0 0
0.0108493 0 0
0.0123292 0 0
0.0139629 0 0
0.0157678 0 0
0.017766 0 0
0.0199859 0 0
0.0224645 0 0
0.0252506 0 0
0.0284086 0 0
0.0320235 0 0
0.0362075 0 0
0.0411108 0 0
0.0469375 0 0
0.0539695 0 0
0.062603 0 0
0.0734068 0 0
0.0872163 0 0
0.105293 0 0
0.129596 0 0
0.163268 0 0
0.211505 0 0
0.283113 0 0
0.39308 0 0
0.565492 0 0
0.829225 0 0
0.000190361 0 0
0.000575997 0 0
0.000976939 0 0
0.00140359 0 0
0.00186631 0 0
0.00237534 0 0
0.00294078 0 0
0.00357252 0 0
0.00428026 0 0
0.00507349 0 0
0.00596156 0 0
0.00695371 0 0
0.00805929 0 0
0.00928796 0 0
0.0106501 0 0
0.012157 0 0
0.0138222 0 0
0.0156613 0 0
0.017694 0 0
0.019945 0 0
0.0224462 0 0
0.0252387 0 0
0.0283771 0 0
0.0319334 0 0
0.0360031 0 0
0.0407113 0 0
0.0462251 0 0
0.052771 0 0
0.0606607 0 0
0.0703304 0 0
0.0824017 0 0
0.0977802 0 0
0.117817 0 0
0.144583 0 0
0.181331 0 0
0.233303 0 0
0.309071 0 0
0.422494 0 0
0.594129 0 0
0.84476 0 0
0.000208859 0 0
0.000632028 0 0
0.00107217 0 0
0.00154082 0 0
0.00204946 0 0
0.00260947 0 0
0.00323206 0 0
0.00392825 0 0
0.00470885 0 0
0.00558446 0 0
0.0065655 0 0
0.00766235 0 0
0.00888547 0 0
0.0102457 0 0
0.0117546 0 0
0.013425 0 0
0.0152717 0 0
0.0173124 0 0
0.019569 0 0
0.0220688 0 0
0.0248469 0 0
0.0279486 0 0
0.0314333 0 0
0.03538 0 0
0.0398944 0 0
0.0451133 0 0
0.0512191 0 0
0.058459 0 0
0.0671715 0 0
0.0778281 0 0
0.0910965 0 0
0.107941 0 0
0.129785 0 0
0.158778 0 0
0.198238 0 0
0.253381 0 0
0.332456 0 0
0.448178 0 0
0.618033 0 0
0.856823 0 0
0.000226487 0 0
0.000685442 0 0
0.00116301 0 0
0.00167184 0 0
0.00222454 0 0
0.00283359 0 0
0.00351133 0 0
0.00426988 0 0
0.00512116 0 0
0.00607687 0 0
0.00714853 0 0
0.00834762 0 0
0.00968573 0 0
0.0111748 0 0
0.0128278 0 0
0.0146588 0 0
0.0166841 0 0
0.0189235 0 0
0.0214009 0 0
0.0241465 0 0
0.027199 0 0
0.0306085 0 0
0.0344409 0 0
0.0387865 0 0
0.043741 0 0
0.0494606 0 0
0.0561439 0 0
0.0640572 0 0
0.0735636 0 0
0.0851656 0 0
0.0995702 0 0
0.11779 0 0
0.141305 0 0
0.172319 0 0
0.214177 0 0
0.272016 0 0
0.353711 0 0
0.470871 0 0
0.638349 0 0
0.866509 0 0
0.000243272 0 0
0.000736324 0 0
0.00124961 0 0
0.00179689 0 0
0.00239187 0 0
0.00304813 0 0
0.00377913 0 0
0.0045981 0 0
0.00551806 0 0
0.00655181 0 0
0.00771198 0 0
0.00901114 0 0
0.010462 0 0
0.0120777 0 0
0.0138724 0 0
0.0158615 0 0
0.0180629 0 0
0.0204982 0 0
0.0231935 0 0
0.0261819 0 0
0.0295059 0 0
0.0332203 0 0
0.0373974 0 0
0.0421339 0 0
0.0475231 0 0
0.053734 0 0
0.0609808 0 0
0.0695479 0 0
0.0798205 0 0
0.0923287 0 0
0.107813 0 0
0.127326 0 0
0.15239 0 0
0.185244 0 0
0.229229 0 0
0.289368 0 0
0.373136 0 0
0.491096 0 0
0.655865 0 0
0.874491 0 0
0.000259199 0 0
0.000784625 0 0
0.0013319 0 0
0.00191586 0 0
0.00255132 0 0
0.00325298 0 0
0.00403537 0 0
0.00491285 0 0
0.00589955 0 0
0.00700937 0 0
0.00825605 0 0
0.00965326 0 0
0.0112148 0 0
0.0129551 0 0
0.0148892 0 0
0.0170342 0 0
0.0194093 0 0
0.0220377 0 0
0.0249478 0 0
0.0281752 0 0
0.0317655 0 0
0.0357773 0 0
0.0402864 0 0
0.045389 0 0
0.0511998 0 0
0.0578894 0 0
0.0656835 0 0
0.0748826 0 0
0.0858919 0 0
0.0992656 0 0
0.115773 0 0
0.1365 0 0
0.163 0 0
0.19753 0 0
0.243407 0 0
0.305514 0 0
0.390919 0 0
0.509215 0 0
0.671119 0 0
0.88119 0 0
0.000274242 0 0
0.000830273 0 0
0.00140975 0 0
0.0020286 0 0
0.00270271 0 0
0.0034479 0 0
0.0042798 0 0
0.00521388 0 0
0.00626538 0 0
0.00744933 0 0
0.00878057 0 0
0.0102739 0 0
0.0119442 0 0
0.013807 0 0
0.0158786 0 0
0.0181772 0 0
0.0207235 0 0
0.0235424 0 0
0.026664 0 0
0.0301261 0 0
0.033977 0 0
0.0382783 0 0
0.0431087 0 0
0.048569 0 0
0.0547877 0 0
0.0619416 0 0
0.0702663 0 0
0.0800761 0 0
0.0917937 0 0
0.105995 0 0
0.123473 0 0
0.145341 0 0
0.173173 0 0
0.209232 0 0
0.256795 0 0
0.320588 0 0
0.407273 0 0
0.525558 0 0
0.684545 0 0
0.886914 0 0
0.000288357 0 0
0.000873132 0 0
0.00148294 0 0
0.00213478 0 0
0.00284563 0 0
0.0036324 0 0
0.00451184 0 0
0.00550054 0 0
0.00661487 0 0
0.00787096 0 0
0.00928479 0 0
0.0108723 0 0
0.0126494 0 0
0.0146327 0 0
0.0168398 0 0
0.01929 0 0
0.0220054 0 0
0.025012 0 0
0.0283418 0 0
0.0320347 0 0
0.036141 0 0
0.0407252 0 0
0.0458697 0 0
0.0516807 0 0
0.0582963 0 0
0.065901 0 0
0.07474 0 0
0.0851399 0 0
0.097539 0 0
0.112531 0 0
0.130931 0 0
0.153871 0 0
0.18294 0 0
0.220398 0 0
0.269464 0 0
0.3347 0 0
0.422376 0 0
0.540388 0 0
0.696471 0 0
0.891876 0 0
0.000301478 0 0
0.000913003 0 0
0.00155113 0 0
0.00223393 0 0
0.00297948 0 0
0.00380575 0 0
0.00473063 0 0
0.00577184 0 0
0.00694688 0 0
0.00827304 0 0
0.00976742 0 0
0.011447 0 0
0.013329 0 0
0.0154311 0 0
0.0177718 0 0
0.0203716 0 0
0.0232537 0 0
0.0264457 0 0
0.0299809 0 0
0.0339009 0 0
0.0382584 0 0
0.0431204 0 0
0.0485732 0 0
0.0547284 0 0
0.0617316 0 0
0.069775 0 0
0.0791129 0 0
0.0900834 0 0
0.103138 0 0
0.118887 0 0
0.138163 0 0
0.162111 0 0
0.192332 0 0
0.231068 0 0
0.281477 0 0
0.347949 0 0
0.436376 0 0
0.55392 0 0
0.707151 0 0
0.896232 0 0
0.000313519 0 0
0.000949632 0 0
0.0016139 0 0
0.00232546 0 0
0.00310346 0 0
0.00396697 0 0
0.00493501 0 0
0.00602643 0 0
0.00725991 0 0
0.00865389 0 0
0.0102266 0 0
0.0119963 0 0
0.0139812 0 0
0.0162 0 0
0.0186724 0 0
0.0214199 0 0
0.024467 0 0
0.0278423 0 0
0.0315805 0 0
0.0357248 0 0
0.04033 0 0
0.0454658 0 0
0.0512222 0 0
0.0577156 0 0
0.065098 0 0
0.073569 0 0
0.0833915 0 0
0.0949139 0 0
0.1086 0 0
0.125074 0 0
0.145181 0 0
0.17008 0 0
0.201372 0 0
0.241279 0 0
0.292888 0 0
0.360418 0 0
0.449398 0 0
0.566327 0 0
0.716783 0 0
0.900096 0 0
0.00032438 0 0
0.000982711 0 0
0.00167073 0 0
0.00240863 0 0
0.00321661 0 0
0.00411486 0 0
0.00512353 0 0
0.00626263 0 0
0.00755202 0 0
0.00901135 0 0
0.0106601 0 0
0.0125175 0 0
0.0146032 0 0
0.0169367 0 0
0.0195391 0 0
0.0224327 0 0
0.025643 0 0
0.0291999 0 0
0.0331392 0 0
0.0375057 0 0
0.042356 0 0
0.0477624 0 0
0.0538182 0 0
0.0606444 0 0
0.0683987 0 0
0.0772872 0 0
0.0875811 0 0
0.0996379 0 0
0.113933 0 0
0.131101 0 0
0.151999 0 0
0.177794 0 0
0.210084 0 0
0.251065 0 0
0.303748 0 0
0.37218 0 0
0.46155 0 0
0.577756 0 0
0.725526 0 0
0.903553 0 0
0.000333939 0 0
0.00101188 0 0
0.00172101 0 0
0.00248256 0 0
0.00331779 0 0
0.00424799 0 0
0.00529445 0 0
0.00647838 0 0
0.00782085 0 0
0.00934276 0 0
0.0110648 0 0
0.0130076 0 0
0.0151916 0 0
0.017638 0 0
0.0203684 0 0
0.0234065 0 0
0.0267787 0 0
0.0305157 0 0
0.0346548 0 0
0.039242 0 0
0.0443355 0 0
0.0500102 0 0
0.0563622 0 0
0.0635165 0 0
0.0716361 0 0
0.0809332 0 0
0.0916861 0 0
0.104261 0 0
0.119143 0 0
0.136976 0 0
0.158628 0 0
0.185268 0 0
0.218488 0 0
0.260455 0 0
0.314098 0 0
0.383299 0 0
0.472922 0 0
0.588324 0 0
0.733507 0 0
0.906672 0 0
0.000342063 0 0
0.00103672 0 0
0.00176405 0 0
0.00254626 0 0
0.00340567 0 0
0.00436469 0 0
0.00544573 0 0
0.00667124 0 0
0.00806356 0 0
0.00964488 0 0
0.0114372 0 0
0.0134624 0 0
0.0157424 0 0
0.0182992 0 0
0.0211559 0 0
0.0243369 0 0
0.0278697 0 0
0.0317861 0 0
0.0361241 0 0
0.0409311 0 0
0.0462669 0 0
0.0522082 0 0
0.058854 0 0
0.0663329 0 0
0.0748121 0 0
0.0845097 0 0
0.0957106 0 0
0.108789 0 0
0.124237 0 0
0.142708 0 0
0.165077 0 0
0.192515 0 0
0.226604 0 0
0.269475 0 0
0.323979 0 0
0.393831 0 0
0.483594 0 0
0.598135 0 0
0.740829 0 0
0.909503 0 0
0.000348622 0 0
0.00105686 0 0
0.00179917 0 0
0.00259876 0 0
0.00347897 0 0
0.00446328 0 0
0.00557532 0 0
0.00683874 0 0
0.00827721 0 0
0.00991431 0 0
0.0117734 0 0
0.0138779 0 0
0.0162508 0 0
0.0189156 0 0
0.0218964 0 0
0.0252188 0 0
0.0289112 0 0
0.0330062 0 0
0.0375429 0 0
0.0425695 0 0
0.0481474 0 0
0.0543549 0 0
0.0612936 0 0
0.0690955 0 0
0.0779306 0 0
0.0880223 0 0
0.0996617 0 0
0.113229 0 0
0.129226 0 0
0.148312 0 0
0.171365 0 0
0.199557 0 0
0.234456 0 0
0.278159 0 0
0.333433 0 0
0.403833 0 0
0.493639 0 0
0.607277 0 0
0.74758 0 0
0.912091 0 0
0.000353448 0 0
0.00107177 0 0
0.0018255 0 0
0.00263879 0 0
0.00353597 0 0
0.00454161 0 0
0.0056805 0 0
0.00697758 0 0
0.0084579 0 0
0.0101465 0 0
0.0120683 0 0
0.014248 0 0
0.0167104 0 0
0.0194802 0 0
0.0225828 0 0
0.0260449 0 0
0.0298959 0 0
0.0341692 0 0
0.0389046 0 0
0.0441514 0 0
0.0499718 0 0
0.0564459 0 0
0.0636771 0 0
0.0718004 0 0
0.0809881 0 0
0.0914684 0 0
0.103538 0 0
0.117583 0 0
0.134111 0 0
0.153787 0 0
0.177495 0 0
0.206401 0 0
0.242059 0 0
0.286526 0 0
0.342489 0 0
0.413348 0 0
0.503118 0 0
0.615824 0 0
0.753832 0 0
0.914468 0 0
0.000356342 0 0
0.00108085 0 0
0.00184201 0 0
0.00266485 0 0
0.00357465 0 0
0.00459704 0 0
0.00575797 0 0
0.00708373 0 0
0.00860078 0 0
0.0103357 0 0
0.0123151 0 0
0.0145654 0 0
0.0171129 0 0
0.019984 0 0
0.0232055 0 0
0.0268053 0 0
0.0308137 0 0
0.0352651 0 0
0.0401998 0 0
0.0456678 0 0
0.0517321 0 0
0.0584736 0 0
0.0659973 0 0
0.0744396 0 0
0.083977 0 0
0.0948407 0 0
0.107332 0 0
0.121843 0 0
0.138886 0 0
0.159132 0 0
0.183464 0 0
0.213046 0 0
0.249415 0 0
0.294587 0 0
0.351167 0 0
0.422408 0 0
0.512074 0 0
0.623831 0 0
0.759638 0 0
0.91666 0 0
0.000357122 0 0
0.00108354 0 0
0.00184774 0 0
0.00267551 0 0
0.00359306 0 0
0.00462701 0 0
0.00580449 0 0
0.00715311 0 0
0.00870088 0 0
0.010476 0 0
0.012507 0 0
0.014822 0 0
0.0174492 0 0
0.0204169 0 0
0.0237534 0 0
0.0274882 0 0
0.0316526 0 0
0.0362817 0 0
0.0414167 0 0
0.0471076 0 0
0.0534179 0 0
0.0604291 0 0
0.0682467 0 0
0.0770087 0 0
0.0868943 0 0
0.0981379 0 0
0.111044 0 0
0.126011 0 0
0.143554 0 0
0.164349 0 0
0.18928 0 0
0.219504 0 0
0.256539 0 0
0.30236 0 0
0.359493 0 0
0.431046 0 0
0.520555 0 0
0.631354 0 0
0.76505 0 0
0.91869 0 0
0.000355602 0 0
0.00107928 0 0
0.00184168 0 0
0.00266931 0 0
0.00358915 0 0
0.00462879 0 0
0.0058165 0 0
0.00718125 0 0
0.00875259 0 0
0.0105606 0 0
0.0126356 0 0
0.0150079 0 0
0.0177081 0 0
0.0207662 0 0
0.0242128 0 0
0.0280788 0 0
0.0323969 0 0
0.0372033 0 0
0.0425394 0 0
0.0484557 0 0
0.0550154 0 0
0.0622999 0 0
0.0704151 0 0
0.0794995 0 0
0.0897343 0 0
0.101356 0 0
0.114674 0 0
0.130087 0 0
0.148118 0 0
0.169444 0 0
0.194948 0 0
0.225781 0 0
0.263441 0 0
0.309862 0 0
0.367489 0 0
0.439296 0 0
0.5286 0 0
0.638438 0 0
0.77011 0 0
0.920576 0 0
0.000351599 0 0
0.00106751 0 0
0.00182286 0 0
0.00264475 0 0
0.00356083 0 0
0.00459955 0 0
0.00579027 0 0
0.00716328 0 0
0.00874979 0 0
0.0105817 0 0
0.0126916 0 0
0.0151122 0 0
0.0178764 0 0
0.0210169 0 0
0.0245665 0 0
0.0285584 0 0
0.0330268 0 0
0.038009 0 0
0.0435471 0 0
0.0496916 0 0
0.0565052 0 0
0.0640687 0 0
0.0724875 0 0
0.0818998 0 0
0.0924876 0 0
0.104489 0 0
0.118215 0 0
0.13407 0 0
0.152578 0 0
0.174419 0 0
0.200473 0 0
0.231886 0 0
0.270133 0 0
0.317107 0 0
0.375177 0 0
0.447184 0 0
0.536244 0 0
0.645125 0 0
0.774853 0 0
0.922336 0 0
0.000344942 0 0
0.00104768 0 0
0.00179034 0 0
0.00260039 0 0
0.00350602 0 0
0.00453643 0 0
0.00572195 0 0
0.00709416 0 0
0.0086859 0 0
0.0105311 0 0
0.0126646 0 0
0.015122 0 0
0.0179388 0 0
0.0211509 0 0
0.0247939 0 0
0.0289038 0 0
0.0335169 0 0
0.0386721 0 0
0.0444122 0 0
0.0507878 0 0
0.0578609 0 0
0.0657111 0 0
0.0744422 0 0
0.0841912 0 0
0.0951394 0 0
0.107526 0 0
0.121662 0 0
0.137955 0 0
0.156933 0 0
0.179274 0 0
0.20586 0 0
0.237825 0 0
0.276626 0 0
0.324111 0 0
0.382576 0 0
0.454737 0 0
0.543521 0 0
0.651449 0 0
0.779312 0 0
0.923982 0 0
0.000335483 0 0
0.00101935 0 0
0.00174327 0 0
0.00253492 0 0
0.00342282 0 0
0.00443671 0 0
0.00560777 0 0
0.00696876 0 0
0.00855413 0 0
0.0103999 0 0
0.0125433 0 0
0.0150229 0 0
0.0178777 0 0
0.021147 0 0
0.0248702 0 0
0.0290864 0 0
0.0338353 0 0
0.0391578 0 0
0.0450981 0 0
0.0517069 0 0
0.0590456 0 0
0.0671919 0 0
0.0762473 0 0
0.0863459 0 0
0.0976667 0 0
0.110447 0 0
0.125 0 0
0.141734 0 0
0.161177 0 0
0.18401 0 0
0.21111 0 0
0.243604 0 0
0.282927 0 0
0.330886 0 0
0.389703 0 0
0.461976 0 0
0.550457 0 0
0.657441 0 0
0.783512 0 0
0.925525 0 0
0.000323108 0 0
0.000982136 0 0
0.00168099 0 0
0.00244727 0 0
0.00330958 0 0
0.00429797 0 0
0.00544425 0 0
0.00678221 0 0
0.00834776 0 0
0.0101789 0 0
0.0123156 0 0
0.0147996 0 0
0.0176735 0 0
0.020981 0 0
0.0247659 0 0
0.0290718 0 0
0.0339424 0 0
0.0394219 0 0
0.0455568 0 0
0.0523986 0 0
0.0600082 0 0
0.0684611 0 0
0.0778555 0 0
0.0883214 0 0
0.100033 0 0
0.113224 0 0
0.128207 0 0
0.145389 0 0
0.165299 0 0
0.188619 0 0
0.216222 0 0
0.249225 0 0
0.289043 0 0
0.337442 0 0
0.396573 0 0
0.468924 0 0
0.557079 0 0
0.663131 0 0
0.78748 0 0
0.926978 0 0
0.000307753 0 0
0.000935844 0 0
0.00160309 0 0
0.0023367 0 0
0.00316508 0 0
0.00411829 0 0
0.00522847 0 0
0.00653016 0 0
0.00806053 0 0
0.00985948 0 0
0.0119696 0 0
0.0144357 0 0
0.017305 0 0
0.0206258 0 0
0.0244472 0 0
0.0288187 0 0
0.0337894 0 0
0.0394084 0 0
0.045726 0 0
0.0527956 0 0
0.0606779 0 0
0.0694469 0 0
0.079197 0 0
0.0900527 0 0
0.10218 0 0
0.115807 0 0
0.131242 0 0
0.14889 0 0
0.169279 0 0
0.193087 0 0
0.221188 0 0
0.254686 0 0
0.294977 0 0
0.343787 0 0
0.403201 0 0
0.475597 0 0
0.563408 0 0
0.668539 0 0
0.79123 0 0
0.928345 0 0
0.000289436 0 0
0.000880502 0 0
0.00150954 0 0
0.00220307 0 0
0.0029889 0 0
0.00389674 0 0
0.00495867 0 0
0.00620961 0 0
0.00768762 0 0
0.00943418 0 0
0.0114942 0 0
0.013916 0 0
0.016751 0 0
0.0200528 0 0
0.0238771 0 0
0.0282803 0 0
0.0333189 0 0
0.0390489 0 0
0.0455266 0 0
0.0528093 0 0
0.0609589 0 0
0.070047 0 0
0.0801615 0 0
0.0914127 0 0
0.103985 0 0
0.118084 0 0
0.134007 0 0
0.152151 0 0
0.173039 0 0
0.197348 0 0
0.225947 0 0
0.259932 0 0
0.300679 0 0
0.349879 0 0
0.40955 0 0
0.481969 0 0
0.569426 0 0
0.673655 0 0
0.794757 0 0
0.929617 0 0
0.000268234 0 0
0.000816332 0 0
0.00140069 0 0
0.0020467 0 0
0.00278123 0 0
0.00363318 0 0
0.00463411 0 0
0.00581876 0 0
0.00722559 0 0
0.00889711 0 0
0.0108802 0 0
0.0132261 0 0
0.0159905 0 0
0.0192329 0 0
0.0230157 0 0
0.027404 0 0
0.0324635 0 0
0.0382601 0 0
0.0448591 0 0
0.0523252 0 0
0.0607245 0 0
0.0701281 0 0
0.0806185 0 0
0.0922977 0 0
0.105354 0 0
0.119975 0 0
0.136439 0 0
0.155128 0 0
0.176555 0 0
0.201392 0 0
0.2305 0 0
0.264971 0 0
0.306162 0 0
0.35573 0 0
0.415635 0 0
0.488057 0 0
0.575154 0 0
0.678503 0 0
0.798082 0 0
0.930808 0 0
0.000244302 0 0
0.000743789 0 0
0.00127724 0 0
0.00186856 0 0
0.00254317 0 0
0.00332868 0 0
0.00425553 0 0
0.00535769 0 0
0.00667327 0 0
0.00824507 0 0
0.0101211 0 0
0.0123549 0 0
0.0150058 0 0
0.0181387 0 0
0.0218235 0 0
0.0261344 0 0
0.0311487 0 0
0.036945 0 0
0.0436021 0 0
0.0511974 0 0
0.0598073 0 0
0.0695095 0 0
0.0803887 0 0
0.0925496 0 0
0.106147 0 0
0.121361 0 0
0.138447 0 0
0.157763 0 0
0.179803 0 0
0.205224 0 0
0.234878 0 0
0.269848 0 0
0.31148 0 0
0.361401 0 0
0.421516 0 0
0.493919 0 0
0.580646 0 0
0.68313 0 0
0.801242 0 0
0.931941 0 0
0.000217922 0 0
0.000663717 0 0
0.00114061 0 0
0.00167059 0 0
0.00227717 0 0
0.0029861 0 0
0.0038261 0 0
0.00482958 0 0
0.00603338 0 0
0.00747959 0 0
0.00921618 0 0
0.0112978 0 0
0.0137861 0 0
0.0167505 0 0
0.0202674 0 0
0.0244207 0 0
0.0292999 0 0
0.0349994 0 0
0.0416158 0 0
0.0492461 0 0
0.057986 0 0
0.0679298 0 0
0.079174 0 0
0.0918258 0 0
0.106019 0 0
0.121915 0 0
0.139741 0 0
0.159818 0 0
0.182602 0 0
0.20872 0 0
0.239005 0 0
0.274526 0 0
0.316619 0 0
0.36689 0 0
0.427201 0 0
0.49957 0 0
0.58592 0 0
0.687561 0 0
0.804268 0 0
0.933032 0 0
0.000189484 0 0
0.000577302 0 0
0.000992809 0 0
0.00145566 0 0
0.00198699 0 0
0.00261017 0 0
0.00335145 0 0
0.00424085 0 0
0.00531293 0 0
0.00660774 0 0
0.00817174 0 0
0.0100588 0 0
0.0123312 0 0
0.0150604 0 0
0.0183277 0 0
0.0222247 0 0
0.026853 0 0
0.032323 0 0
0.0387529 0 0
0.0462656 0 0
0.0549859 0 0
0.0650381 0 0
0.0765453 0 0
0.0896315 0 0
0.104428 0 0
0.121085 0 0
0.139792 0 0
0.160822 0 0
0.18457 0 0
0.2116 0 0
0.242697 0 0
0.278902 0 0
0.321531 0 0
0.372183 0 0
0.43269 0 0
0.505013 0 0
0.590977 0 0
0.691772 0 0
0.807094 0 0
0.934018 0 0
0.000159499 0 0
0.000486089 0 0
0.000836478 0 0
0.00122762 0 0
0.00167785 0 0
0.00220757 0 0
0.00283995 0 0
0.00360169 0 0
0.00452397 0 0
0.00564336 0 0
0.00700299 0 0
0.00865376 0 0
0.0106557 0 0
0.0130792 0 0
0.0160068 0 0
0.0195342 0 0
0.023771 0 0
0.0288417 0 0
0.0348849 0 0
0.0420522 0 0
0.0505053 0 0
0.0604123 0 0
0.071943 0 0
0.0852656 0 0
0.100544 0 0
0.117941 0 0
0.137632 0 0
0.159839 0 0
0.184873 0 0
0.213194 0 0
0.24548 0 0
0.282682 0 0
0.326069 0 0
0.377222 0 0
0.437974 0 0
0.510266 0 0
0.595875 0 0
0.69592 0 0
0.810031 0 0
0.935174 0 0
0.000128589 0 0
0.000391986 0 0
0.000674908 0 0
0.000991314 0 0
0.00135638 0 0
0.00178707 0 0
0.00230283 0 0
0.00292627 0 0
0.00368404 0 0
0.00460781 0 0
0.00573543 0 0
0.00711228 0 0
0.00879283 0 0
0.0108425 0 0
0.0133395 0 0
0.0163775 0 0
0.0200672 0 0
0.0245392 0 0
0.0299455 0 0
0.0364609 0 0
0.0442824 0 0
0.0536278 0 0
0.0647312 0 0
0.077836 0 0
0.0931865 0 0
0.111019 0 0
0.131558 0 0
0.155029 0 0