# vtk DataFile Version 2.0
Velocidades
ASCII

DATASET STRUCTURED_GRID
DIMENSIONS   40   40   20

POINTS   32000   double
0.0125   0.0125   0.025
0.0125   0.0375   0.025
0.0125   0.0625   0.025
0.0125   0.0875   0.025
0.0125   0.1125   0.025
0.0125   0.1375   0.025
0.0125   0.1625   0.025
0.0125   0.1875   0.025
0.0125   0.2125   0.025
0.0125   0.2375   0.025
0.0125   0.2625   0.025
0.0125   0.2875   0.025
0.0125   0.3125   0.025
0.0125   0.3375   0.025
0.0125   0.3625   0.025
0.0125   0.3875   0.025
0.0125   0.4125   0.025
0.0125   0.4375   0.025
0.0125   0.4625   0.025
0.0125   0.4875   0.025
0.0125   0.5125   0.025
0.0125   0.5375   0.025
0.0125   0.5625   0.025
0.0125   0.5875   0.025
0.0125   0.6125   0.025
0.0125   0.6375   0.025
0.0125   0.6625   0.025
0.0125   0.6875   0.025
0.0125   0.7125   0.025
0.0125   0.7375   0.025
0.0125   0.7625   0.025
0.0125   0.7875   0.025
0.0125   0.8125   0.025
0.0125   0.8375   0.025
0.0125   0.8625   0.025
0.0125   0.8875   0.025
0.0125   0.9125   0.025
0.0125   0.9375   0.025
0.0125   0.9625   0.025
0.0125   0.9875   0.025
0.0375   0.0125   0.025
0.0375   0.0375   0.025
0.0375   0.0625   0.025
0.0375   0.0875   0.025
0.0375   0.1125   0.025
0.0375   0.1375   0.025
0.0375   0.1625   0.025
0.0375   0.1875   0.025
0.0375   0.2125   0.025
0.0375   0.2375   0.025
0.0375   0.2625   0.025
0.0375   0.2875   0.025
0.0375   0.3125   0.025
0.0375   0.3375   0.025
0.0375   0.3625   0.025
0.0375   0.3875   0.025
0.0375   0.4125   0.025
0.0375   0.4375   0.025
0.0375   0.4625   0.025
0.0375   0.4875   0.025
0.0375   0.5125   0.025
0.0375   0.5375   0.025
0.0375   0.5625   0.025
0.0375   0.5875   0.025
0.0375   0.6125   0.025
0.0375   0.6375   0.025
0.0375   0.6625   0.025
0.0375   0.6875   0.025
0.0375   0.7125   0.025
0.0375   0.7375   0.025
0.0375   0.7625   0.025
0.0375   0.7875   0.025
0.0375   0.8125   0.025
0.0375   0.8375   0.025
0.0375   0.8625   0.025
0.0375   0.8875   0.025
0.0375   0.9125   0.025
0.0375   0.9375   0.025
0.0375   0.9625   0.025
0.0375   0.9875   0.025
0.0625   0.0125   0.025
0.0625   0.0375   0.025
0.0625   0.0625   0.025
0.0625   0.0875   0.025
0.0625   0.1125   0.025
0.0625   0.1375   0.025
0.0625   0.1625   0.025
0.0625   0.1875   0.025
0.0625   0.2125   0.025
0.0625   0.2375   0.025
0.0625   0.2625   0.025
0.0625   0.2875   0.025
0.0625   0.3125   0.025
0.0625   0.3375   0.025
0.0625   0.3625   0.025
0.0625   0.3875   0.025
0.0625   0.4125   0.025
0.0625   0.4375   0.025
0.0625   0.4625   0.025
0.0625   0.4875   0.025
0.0625   0.5125   0.025
0.0625   0.5375   0.025
0.0625   0.5625   0.025
0.0625   0.5875   0.025
0.0625   0.6125   0.025
0.0625   0.6375   0.025
0.0625   0.6625   0.025
0.0625   0.6875   0.025
0.0625   0.7125   0.025
0.0625   0.7375   0.025
0.0625   0.7625   0.025
0.0625   0.7875   0.025
0.0625   0.8125   0.025
0.0625   0.8375   0.025
0.0625   0.8625   0.025
0.0625   0.8875   0.025
0.0625   0.9125   0.025
0.0625   0.9375   0.025
0.0625   0.9625   0.025
0.0625   0.9875   0.025
0.0875   0.0125   0.025
0.0875   0.0375   0.025
0.0875   0.0625   0.025
0.0875   0.0875   0.025
0.0875   0.1125   0.025
0.0875   0.1375   0.025
0.0875   0.1625   0.025
0.0875   0.1875   0.025
0.0875   0.2125   0.025
0.0875   0.2375   0.025
0.0875   0.2625   0.025
0.0875   0.2875   0.025
0.0875   0.3125   0.025
0.0875   0.3375   0.025
0.0875   0.3625   0.025
0.0875   0.3875   0.025
0.0875   0.4125   0.025
0.0875   0.4375   0.025
0.0875   0.4625   0.025
0.0875   0.4875   0.025
0.0875   0.5125   0.025
0.0875   0.5375   0.025
0.0875   0.5625   0.025
0.0875   0.5875   0.025
0.0875   0.6125   0.025
0.0875   0.6375   0.025
0.0875   0.6625   0.025
0.0875   0.6875   0.025
0.0875   0.7125   0.025
0.0875   0.7375   0.025
0.0875   0.7625   0.025
0.0875   0.7875   0.025
0.0875   0.8125   0.025
0.0875   0.8375   0.025
0.0875   0.8625   0.025
0.0875   0.8875   0.025
0.0875   0.9125   0.025
0.0875   0.9375   0.025
0.0875   0.9625   0.025
0.0875   0.9875   0.025
0.1125   0.0125   0.025
0.1125   0.0375   0.025
0.1125   0.0625   0.025
0.1125   0.0875   0.025
0.1125   0.1125   0.025
0.1125   0.1375   0.025
0.1125   0.1625   0.025
0.1125   0.1875   0.025
0.1125   0.2125   0.025
0.1125   0.2375   0.025
0.1125   0.2625   0.025
0.1125   0.2875   0.025
0.1125   0.3125   0.025
0.1125   0.3375   0.025
0.1125   0.3625   0.025
0.1125   0.3875   0.025
0.1125   0.4125   0.025
0.1125   0.4375   0.025
0.1125   0.4625   0.025
0.1125   0.4875   0.025
0.1125   0.5125   0.025
0.1125   0.5375   0.025
0.1125   0.5625   0.025
0.1125   0.5875   0.025
0.1125   0.6125   0.025
0.1125   0.6375   0.025
0.1125   0.6625   0.025
0.1125   0.6875   0.025
0.1125   0.7125   0.025
0.1125   0.7375   0.025
0.1125   0.7625   0.025
0.1125   0.7875   0.025
0.1125   0.8125   0.025
0.1125   0.8375   0.025
0.1125   0.8625   0.025
0.1125   0.8875   0.025
0.1125   0.9125   0.025
0.1125   0.9375   0.025
0.1125   0.9625   0.025
0.1125   0.9875   0.025
0.1375   0.0125   0.025
0.1375   0.0375   0.025
0.1375   0.0625   0.025
0.1375   0.0875   0.025
0.1375   0.1125   0.025
0.1375   0.1375   0.025
0.1375   0.1625   0.025
0.1375   0.1875   0.025
0.1375   0.2125   0.025
0.1375   0.2375   0.025
0.1375   0.2625   0.025
0.1375   0.2875   0.025
0.1375   0.3125   0.025
0.1375   0.3375   0.025
0.1375   0.3625   0.025
0.1375   0.3875   0.025
0.1375   0.4125   0.025
0.1375   0.4375   0.025
0.1375   0.4625   0.025
0.1375   0.4875   0.025
0.1375   0.5125   0.025
0.1375   0.5375   0.025
0.1375   0.5625   0.025
0.1375   0.5875   0.025
0.1375   0.6125   0.025
0.1375   0.6375   0.025
0.1375   0.6625   0.025
0.1375   0.6875   0.025
0.1375   0.7125   0.025
0.1375   0.7375   0.025
0.1375   0.7625   0.025
0.1375   0.7875   0.025
0.1375   0.8125   0.025
0.1375   0.8375   0.025
0.1375   0.8625   0.025
0.1375   0.8875   0.025
0.1375   0.9125   0.025
0.1375   0.9375   0.025
0.1375   0.9625   0.025
0.1375   0.9875   0.025
0.1625   0.0125   0.025
0.1625   0.0375   0.025
0.1625   0.0625   0.025
0.1625   0.0875   0.025
0.1625   0.1125   0.025
0.1625   0.1375   0.025
0.1625   0.1625   0.025
0.1625   0.1875   0.025
0.1625   0.2125   0.025
0.1625   0.2375   0.025
0.1625   0.2625   0.025
0.1625   0.2875   0.025
0.1625   0.3125   0.025
0.1625   0.3375   0.025
0.1625   0.3625   0.025
0.1625   0.3875   0.025
0.1625   0.4125   0.025
0.1625   0.4375   0.025
0.1625   0.4625   0.025
0.1625   0.4875   0.025
0.1625   0.5125   0.025
0.1625   0.5375   0.025
0.1625   0.5625   0.025
0.1625   0.5875   0.025
0.1625   0.6125   0.025
0.1625   0.6375   0.025
0.1625   0.6625   0.025
0.1625   0.6875   0.025
0.1625   0.7125   0.025
0.1625   0.7375   0.025
0.1625   0.7625   0.025
0.1625   0.7875   0.025
0.1625   0.8125   0.025
0.1625   0.8375   0.025
0.1625   0.8625   0.025
0.1625   0.8875   0.025
0.1625   0.9125   0.025
0.1625   0.9375   0.025
0.1625   0.9625   0.025
0.1625   0.9875   0.025
0.1875   0.0125   0.025
0.1875   0.0375   0.025
0.1875   0.0625   0.025
0.1875   0.0875   0.025
0.1875   0.1125   0.025
0.1875   0.1375   0.025
0.1875   0.1625   0.025
0.1875   0.1875   0.025
0.1875   0.2125   0.025
0.1875   0.2375   0.025
0.1875   0.2625   0.025
0.1875   0.2875   0.025
0.1875   0.3125   0.025
0.1875   0.3375   0.025
0.1875   0.3625   0.025
0.1875   0.3875   0.025
0.1875   0.4125   0.025
0.1875   0.4375   0.025
0.1875   0.4625   0.025
0.1875   0.4875   0.025
0.1875   0.5125   0.025
0.1875   0.5375   0.025
0.1875   0.5625   0.025
0.1875   0.5875   0.025
0.1875   0.6125   0.025
0.1875   0.6375   0.025
0.1875   0.6625   0.025
0.1875   0.6875   0.025
0.1875   0.7125   0.025
0.1875   0.7375   0.025
0.1875   0.7625   0.025
0.1875   0.7875   0.025
0.1875   0.8125   0.025
0.1875   0.8375   0.025
0.1875   0.8625   0.025
0.1875   0.8875   0.025
0.1875   0.9125   0.025
0.1875   0.9375   0.025
0.1875   0.9625   0.025
0.1875   0.9875   0.025
0.2125   0.0125   0.025
0.2125   0.0375   0.025
0.2125   0.0625   0.025
0.2125   0.0875   0.025
0.2125   0.1125   0.025
0.2125   0.1375   0.025
0.2125   0.1625   0.025
0.2125   0.1875   0.025
0.2125   0.2125   0.025
0.2125   0.2375   0.025
0.2125   0.2625   0.025
0.2125   0.2875   0.025
0.2125   0.3125   0.025
0.2125   0.3375   0.025
0.2125   0.3625   0.025
0.2125   0.3875   0.025
0.2125   0.4125   0.025
0.2125   0.4375   0.025
0.2125   0.4625   0.025
0.2125   0.4875   0.025
0.2125   0.5125   0.025
0.2125   0.5375   0.025
0.2125   0.5625   0.025
0.2125   0.5875   0.025
0.2125   0.6125   0.025
0.2125   0.6375   0.025
0.2125   0.6625   0.025
0.2125   0.6875   0.025
0.2125   0.7125   0.025
0.2125   0.7375   0.025
0.2125   0.7625   0.025
0.2125   0.7875   0.025
0.2125   0.8125   0.025
0.2125   0.8375   0.025
0.2125   0.8625   0.025
0.2125   0.8875   0.025
0.2125   0.9125   0.025
0.2125   0.9375   0.025
0.2125   0.9625   0.025
0.2125   0.9875   0.025
0.2375   0.0125   0.025
0.2375   0.0375   0.025
0.2375   0.0625   0.025
0.2375   0.0875   0.025
0.2375   0.1125   0.025
0.2375   0.1375   0.025
0.2375   0.1625   0.025
0.2375   0.1875   0.025
0.2375   0.2125   0.025
0.2375   0.2375   0.025
0.2375   0.2625   0.025
0.2375   0.2875   0.025
0.2375   0.3125   0.025
0.2375   0.3375   0.025
0.2375   0.3625   0.025
0.2375   0.3875   0.025
0.2375   0.4125   0.025
0.2375   0.4375   0.025
0.2375   0.4625   0.025
0.2375   0.4875   0.025
0.2375   0.5125   0.025
0.2375   0.5375   0.025
0.2375   0.5625   0.025
0.2375   0.5875   0.025
0.2375   0.6125   0.025
0.2375   0.6375   0.025
0.2375   0.6625   0.025
0.2375   0.6875   0.025
0.2375   0.7125   0.025
0.2375   0.7375   0.025
0.2375   0.7625   0.025
0.2375   0.7875   0.025
0.2375   0.8125   0.025
0.2375   0.8375   0.025
0.2375   0.8625   0.025
0.2375   0.8875   0.025
0.2375   0.9125   0.025
0.2375   0.9375   0.025
0.2375   0.9625   0.025
0.2375   0.9875   0.025
0.2625   0.0125   0.025
0.2625   0.0375   0.025
0.2625   0.0625   0.025
0.2625   0.0875   0.025
0.2625   0.1125   0.025
0.2625   0.1375   0.025
0.2625   0.1625   0.025
0.2625   0.1875   0.025
0.2625   0.2125   0.025
0.2625   0.2375   0.025
0.2625   0.2625   0.025
[...]
POINT_DATA   32000
VECTORS Velocidades double

7.6009e-05 0.00148137 0
0.00028186 0.00268079 0
0.000182729 0.00221464 0
4.37177e-05 0.00198254 0
-8.3958e-05 0.00201054 0
-0.000194794 0.00226853 0
-0.000291568 0.00272416 0
-0.000377606 0.00335159 0
-0.000455505 0.00413117 0
-0.000527114 0.00504794 0
-0.000593685 0.00609021 0
-0.000655993 0.00724848 0
-0.000714428 0.00851456 0
-0.000769071 0.0098809 0
-0.000819771 0.01134 0
-0.000866217 0.0128842 0
-0.000908039 0.0145052 0
-0.000944918 0.0161944 0
-0.000976716 0.0179428 0
-0.00100363 0.0197419 0
-0.0010264 0.0215842 0
-0.0010465 0.0234648 0
-0.00106645 0.0253829 0
-0.0010902 0.0273443 0
-0.0011236 0.0293648 0
-0.0011752 0.0314747 0
-0.00125729 0.0337248 0
-0.00138769 0.0361962 0
-0.00159248 0.0390137 0
-0.00191039 0.0423668 0
-0.00240023 0.0465426 0
-0.00315326 0.0519784 0
-0.00431445 0.0593489 0
-0.00611812 0.0697104 0
-0.00894142 0.0847352 0
-0.0133444 0.107041 0
-0.0198364 0.140327 0
-0.0267294 0.187132 0
-0.016179 0.230487 0
0.124172 0.123476 0
0.000172881 0.00309462 0
0.000663185 0.00608971 0
0.000389893 0.00596439 0
-6.98123e-05 0.00609221 0
-0.000543461 0.00661448 0
-0.000985232 0.00756786 0
-0.00138768 0.00894151 0
-0.00175415 0.0107086 0
-0.00209015 0.0128396 0
-0.00240079 0.0153068 0
-0.00269001 0.0180858 0
-0.00296041 0.0211546 0
-0.00321334 0.0244931 0
-0.00344904 0.028082 0
-0.00366692 0.0319018 0
-0.00386582 0.0359327 0
-0.0040444 0.0401536 0
-0.00420161 0.0445429 0
-0.00433726 0.0490787 0
-0.00445263 0.0537405 0
-0.00455125 0.0585108 0
-0.00463987 0.0633784 0
-0.00472957 0.0683422 0
-0.00483722 0.073416 0
-0.00498739 0.0786359 0
-0.00521507 0.0840689 0
-0.00556945 0.0898245 0
-0.00611945 0.0960702 0
-0.00696191 0.103052 0
-0.00823361 0.111118 0
-0.0101288 0.120756 0
-0.012924 0.132623 0
-0.0170088 0.147569 0
-0.0229119 0.166608 0
-0.0312614 0.190689 0
-0.0424233 0.219883 0
-0.0547514 0.250844 0
-0.0569251 0.269627 0
0.00451763 0.236618 0
0.348848 0.0999986 0
0.000143285 0.00430938 0
0.000619854 0.00876284 0
0.00013804 0.00918328 0
-0.000711925 0.00994265 0
-0.00165868 0.0111607 0
-0.00259202 0.0128989 0
-0.00347347 0.0151712 0
-0.00429432 0.017965 0
-0.00505709 0.0212558 0
-0.00576755 0.0250154 0
-0.00643128 0.0292152 0
-0.00705232 0.0338271 0
-0.0076327 0.0388241 0
-0.0081725 0.0441788 0
-0.00867018 0.0498633 0
-0.00912319 0.0558483 0
-0.00952871 0.0621032 0
-0.00988469 0.0685958 0
-0.010191 0.0752936 0
-0.0104507 0.0821655 0
-0.010672 0.0891841 0
-0.0108699 0.0963291 0
-0.0110685 0.103592 0
-0.011304 0.110982 0
-0.011628 0.118534 0
-0.0121125 0.126314 0
-0.0128555 0.134434 0
-0.0139894 0.143058 0
-0.015691 0.152419 0
-0.0181943 0.162821 0
-0.0218019 0.174637 0
-0.0268899 0.18828 0
-0.0338799 0.204098 0
-0.0431143 0.222128 0
-0.0544393 0.241503 0
-0.0659225 0.259158 0
-0.0699683 0.267201 0
-0.0417294 0.248896 0
0.0924168 0.179585 0
0.514156 0.0644014 0
-2.28775e-05 0.00535019 0
0.000123917 0.011057 0
-0.000713847 0.0119918 0
-0.00202425 0.0133983 0
-0.00350785 0.0153348 0
-0.00501117 0.0178466 0
-0.0064645 0.0209525 0
-0.00784151 0.0246489 0
-0.0091364 0.0289187 0
-0.0103518 0.0337376 0
-0.0114924 0.039078 0
-0.0125621 0.0449105 0
-0.0135622 0.0512048 0
-0.0144918 0.0579291 0
-0.0153476 0.0650499 0
-0.0161245 0.0725309 0
-0.0168177 0.0803335 0
-0.0174231 0.0884167 0
-0.0179401 0.0967378 0
-0.0183732 0.105254 0
-0.0187347 0.113926 0
-0.0190477 0.122719 0
-0.0193494 0.131608 0
-0.0196946 0.140583 0
-0.0201607 0.149655 0
-0.0208528 0.15886 0
-0.0219095 0.168264 0
-0.0235102 0.177968 0
-0.0258805 0.1881 0
-0.0292937 0.198808 0
-0.0340591 0.210212 0
-0.0404749 0.222325 0
-0.0486966 0.234876 0
-0.0584004 0.246978 0
-0.0679538 0.256498 0
-0.0723976 0.259002 0
-0.0586042 0.246334 0
0.00561695 0.206354 0
0.191205 0.130267 0
0.620669 0.0413671 0
-0.000307891 0.00626366 0
-0.000752813 0.0130572 0
-0.00212147 0.0144247 0
-0.00398557 0.0164005 0
-0.00606073 0.0189846 0
-0.00817934 0.0221907 0
-0.0102528 0.0260268 0
-0.0122401 0.0304891 0
-0.0141263 0.0355642 0
-0.0159088 0.0412318 0
-0.0175894 0.047467 0
-0.0191697 0.0542417 0
-0.0206494 0.0615249 0
-0.0220246 0.069283 0
-0.023289 0.0774788 0
-0.0244341 0.0860709 0
-0.0254511 0.095014 0
-0.0263329 0.104259 0
-0.0270763 0.113751 0
-0.0276856 0.123437 0
-0.028175 0.133259 0
-0.0285728 0.143165 0
-0.0289252 0.153106 0
-0.0293007 0.163041 0
-0.0297942 0.172942 0
-0.0305319 0.182795 0
-0.0316747 0.192597 0
-0.0334201 0.202352 0
-0.0359985 0.212059 0
-0.0396562 0.221678 0
-0.0446102 0.231074 0
-0.0509412 0.239907 0
-0.058355 0.247456 0
-0.0656656 0.252302 0
-0.0696918 0.251862 0
-0.0629477 0.241787 0
-0.0290377 0.215676 0
0.065353 0.166764 0
0.27944 0.0955942 0
0.690348 0.0276728 0
-0.000688407 0.00704998 0
-0.00193329 0.0147661 0
-0.00399071 0.0164785 0
-0.00650512 0.0189187 0
-0.00922577 0.022041 0
-0.0119922 0.025827 0
-0.0147112 0.0302671 0
-0.0173345 0.0353511 0
-0.0198406 0.041065 0
-0.0222219 0.0473907 0
-0.0244766 0.0543058 0
-0.0266029 0.0617844 0
-0.0285969 0.0697967 0
-0.0304507 0.0783085 0
-0.0321533 0.0872805 0
-0.0336907 0.0966674 0
-0.0350486 0.106418 0
-0.0362143 0.116474 0
-0.03718 0.126771 0
-0.0379461 0.137239 0
-0.0385254 0.147805 0
-0.0389467 0.158391 0
-0.0392598 0.168921 0
-0.0395385 0.179319 0
-0.0398852 0.18951 0
-0.0404325 0.19942 0
-0.0413437 0.208974 0
-0.0428071 0.218079 0
-0.0450202 0.226608 0
-0.0481536 0.234365 0
-0.0522718 0.241017 0
-0.0571732 0.246001 0
-0.0620695 0.24836 0
-0.0649545 0.246518 0
-0.0613905 0.237993 0
-0.0422662 0.219197 0
0.00997606 0.185833 0
0.126334 0.135156 0
0.353356 0.0721206 0
0.738028 0.019442 0
-0.0011422 0.00769888 0
-0.00334721 0.0161671 0
-0.00622078 0.0181419 0
-0.00947037 0.020939 0
-0.0128853 0.0244799 0
-0.0163249 0.0287188 0
-0.0197028 0.0336283 0
-0.0229714 0.039189 0
-0.026107 0.0453836 0
-0.0290992 0.0521946 0
-0.0319424 0.0596015 0
-0.0346313 0.067581 0
-0.0371571 0.0761049 0
-0.0395065 0.0851394 0
-0.0416618 0.0946441 0
-0.0436017 0.104571 0
-0.0453038 0.114862 0
-0.0467471 0.125452 0
-0.0479159 0.136264 0
-0.0488033 0.147213 0
-0.049416 0.158206 0
-0.0497784 0.169141 0
-0.0499369 0.179912 0
-0.0499633 0.190404 0
-0.049957 0.200498 0
-0.0500447 0.210063 0
-0.0503758 0.218955 0
-0.0511098 0.227 0
-0.0523889 0.233975 0
-0.054283 0.239571 0
-0.0566843 0.24334 0
-0.0591071 0.244609 0
-0.0603146 0.242365 0
-0.0576378 0.235107 0
-0.0457732 0.220717 0
-0.0148048 0.196524 0
0.0526005 0.160013 0
0.1838 0.111001 0
0.414474 0.0561189 0
0.772301 0.0143225 0
-0.00164964 0.00820016 0
-0.00493227 0.0172436 0
-0.00871709 0.0194064 0
-0.012768 0.02246 0
-0.0169159 0.0263026 0
-0.0210468 0.0308678 0
-0.0250895 0.0361131 0
-0.0290033 0.0420098 0
-0.032767 0.0485372 0
-0.03637 0.0556769 0
-0.0398043 0.0634107 0
-0.0430607 0.0717172 0
-0.0461249 0.0805705 0
-0.0489768 0.0899381 0
-0.0515901 0.0997789 0
-0.053934 0.110042 0
-0.0559752 0.120665 0
-0.0576814 0.131574 0
-0.0590253 0.14268 0
-0.0599889 0.153883 0
-0.0605683 0.16507 0
-0.060778 0.176115 0
-0.0606555 0.186881 0
-0.0602634 0.197218 0
-0.0596905 0.206965 0
-0.0590486 0.215943 0
-0.0584634 0.223953 0
-0.0580555 0.230759 0
-0.0579027 0.236074 0
-0.0579709 0.239524 0
-0.0579882 0.240609 0
-0.0572182 0.238639 0
-0.0540614 0.23265 0
-0.0453687 0.221329 0
-0.025325 0.202998 0
0.0161918 0.175821 0
0.0955345 0.138607 0
0.236213 0.0926678 0
0.465282 0.0449648 0
0.79809 0.0110061 0
-0.00219379 0.00854642 0
-0.00663396 0.0179844 0
-0.0113946 0.0202694 0
-0.0162919 0.0234885 0
-0.0211986 0.0275242 0
-0.0260308 0.0322956 0
-0.0307375 0.037749 0
-0.0352904 0.0438489 0
-0.0396748 0.0505713 0
-0.0438821 0.057898 0
-0.0479037 0.0658123 0
-0.0517264 0.0742958 0
-0.0553302 0.0833251 0
-0.0586865 0.0928692 0
-0.0617589 0.102887 0
-0.0645044 0.113327 0
-0.0668763 0.12412 0
-0.0688276 0.135184 0
-0.0703157 0.146422 0
-0.0713075 0.157715 0
-0.071784 0.168933 0
-0.0717456 0.179926 0
-0.0712156 0.190529 0
-0.0702428 0.20056 0
-0.0689001 0.209823 0
-0.0672796 0.218101 0
-0.0654795 0.225152 0
-0.0635792 0.230702 0
-0.0615943 0.234424 0
-0.0593958 0.23592 0
-0.056571 0.234685 0
-0.0521814 0.230061 0
-0.0443561 0.221192 0
-0.0296318 0.20699 0
-0.00195718 0.186194 0
0.0486078 0.157652 0
0.137094 0.121092 0
0.283435 0.0786356 0
0.508029 0.0369715 0
0.818283 0.00876652 0
-0.00276017 0.00873322 0
-0.00840501 0.018384 0
-0.0141784 0.020733 0
-0.0199464 0.024036 0
-0.0256233 0.0281655 0
-0.0311576 0.0330317 0
-0.0365218 0.0385739 0
-0.0417036 0.0447526 0
-0.0466977 0.0515425 0
-0.0515001 0.0589264 0
-0.0561025 0.0668904 0
-0.0604885 0.0754191 0
-0.0646314 0.0844926 0
-0.0684934 0.0940822 0
-0.0720258 0.104148 0
-0.0751711 0.114635 0
-0.077866 0.125473 0
-0.0800459 0.136572 0
-0.0816492 0.147822 0
-0.0826236 0.159093 0
-0.0829315 0.170235 0
-0.0825549 0.181076 0
-0.0814999 0.191427 0
-0.0797978 0.201079 0
-0.0775035 0.209807 0
-0.0746881 0.217364 0
-0.0714228 0.22348 0
-0.0677497 0.227858 0
-0.0636303 0.230155 0
-0.0588573 0.229973 0
-0.0529055 0.226831 0
-0.0446839 0.220132 0
-0.0321336 0.209146 0
-0.011611 0.193009 0
0.0229735 0.170819 0
0.0811466 0.141951 0
0.176513 0.106749 0
0.325862 0.0677308 0
0.544491 0.0310739 0
0.834626 0.00719158 0
-0.00333616 0.00875858 0
-0.0102036 0.0184407 0
-0.0170012 0.0208022 0
-0.0236439 0.0241155 0
-0.0300877 0.0282481 0
-0.0363149 0.0331061 0
-0.0423237 0.0386259 0
-0.0481201 0.0447673 0
-0.0537108 0.0515059 0
-0.059098 0.0588273 0
-0.0642747 0.0667213 0
-0.0692214 0.0751771 0
-0.0739046 0.0841787 0
-0.0782755 0.0937007 0
-0.0822717 0.103705 0
-0.0858188 0.114136 0
-0.088834 0.12492 0
-0.0912314 0.13596 0
-0.0929273 0.147139 0
-0.0938466 0.158311 0
-0.0939293 0.169311 0
-0.0931365 0.179948 0
-0.0914542 0.19001 0
-0.0888948 0.199267 0
-0.0854949 0.207469 0
-0.0813061 0.214348 0
-0.0763764 0.219617 0
-0.0707175 0.222967 0
-0.0642484 0.224056 0
-0.0567015 0.222501 0
-0.0474684 0.217857 0
-0.03535 0.209605 0
-0.0181686 0.197137 0
0.00779661 0.17979 0
0.0485384 0.156961 0
0.113044 0.128418 0
0.213515 0.0949069 0
0.364041 0.059098 0
0.576001 0.0265944 0
0.848209 0.00604066 0
-0.00391054 0.00862251 0
-0.0119926 0.0181567 0
-0.0198025 0.0204835 0
-0.0273048 0.0237397 0
-0.0344977 0.0277918 0
-0.0413982 0.0325457 0
-0.048032 0.0379391 0
-0.054425 0.0439338 0
-0.0605974 0.0505093 0
-0.0665589 0.0576556 0
-0.0723044 0.0653682 0
-0.0778116 0.0736416 0
-0.0830392 0.0824652 0
-0.0879267 0.0918179 0
-0.0923958 0.101664 0
-0.0963528 0.111949 0
-0.0996928 0.122597 0
-0.102305 0.133507 0
-0.104081 0.144551 0
-0.104919 0.155575 0
-0.104733 0.166396 0
-0.103462 0.176808 0
-0.10107 0.186581 0
-0.0975493 0.195464 0
-0.0929204 0.203189 0
-0.0872182 0.209474 0
-0.0804729 0.214022 0
-0.0726745 0.21652 0
-0.0637119 0.216636 0
-0.0532753 0.21401 0
-0.0406989 0.208242 0
-0.0247135 0.198886 0
-0.00307841 0.185451 0
0.0279283 0.167445 0
0.074113 0.144507 0
0.143865 0.116692 0
0.248064 0.0850039 0
0.39851 0.0521233 0
0.603553 0.0230942 0
0.859738 0.00516862 0
-0.00447316 0.0083263 0
-0.0137381 0.0175356 0
-0.0225275 0.0197837 0
-0.0308565 0.0229198 0
-0.0387668 0.026813 0
-0.0463113 0.0313726 0
-0.0535439 0.0365409 0
-0.0605117 0.042285 0
-0.0672494 0.0485904 0
-0.0737749 0.0554541 0
-0.0800854 0.0628783 0
-0.0861555 0.0708648 0
-0.0919358 0.0794094 0
-0.0973527 0.0884967 0
-0.10231 0.0980951 0
-0.106693 0.108152 0
-0.110371 0.118591 0
-0.113207 0.129308 0
-0.115061 0.140168 0
-0.115805 0.151006 0
-0.115325 0.16163 0
-0.113531 0.171817 0
-0.110368 0.18132 0
-0.105808 0.189875 0
-0.0998574 0.197198 0
-0.0925379 0.202997 0
-0.0838688 0.20697 0
-0.0738269 0.208806 0
-0.0622833 0.208187 0
-0.0489026 0.204778 0
-0.0329835 0.198225 0
-0.0132186 0.18815 0
0.0126528 0.174166 0
0.0482975 0.155925 0
0.0992785 0.133254 0
0.173369 0.106422 0
0.280237 0.076586 0
0.429741 0.0463627 0
0.627877 0.0202805 0
0.86968 0.00448451 0
-0.00501429 0.00787255 0
-0.015408 0.0165831 0
-0.0251238 0.0187104 0
-0.0342299 0.0216662 0
-0.0428126 0.0253254 0
-0.0509618 0.0296044 0
-0.0587603 0.0344528 0
-0.066277 0.0398461 0
-0.0735616 0.0457781 0
-0.0806404 0.0522541 0
-0.0875132 0.0592853 0
-0.0941514 0.0668818 0
-0.100496 0.0750475 0
-0.106461 0.0837739 0
-0.111929 0.093035 0
-0.116762 0.102782 0
-0.120802 0.11294 0
-0.12388 0.123403 0
-0.125827 0.134032 0
-0.12648 0.144656 0
-0.125696 0.15507 0
-0.123358 0.16504 0
-0.119386 0.174307 0
-0.113737 0.182592 0
-0.106402 0.189602 0
-0.0973962 0.195036 0
-0.0867336 0.198589 0
-0.0743864 0.199956 0
-0.060219 0.198833 0
-0.0438842 0.194912 0
-0.0246648 0.187879 0
-0.00124026 0.17742 0
0.0286361 0.163233 0
0.0685356 0.145091 0
0.123744 0.122968 0
0.201424 0.0972858 0
0.310144 0.0692891 0
0.458124 0.0414895 0
0.649511 0.0179522 0
0.878352 0.00392906 0
-0.00552429 0.00726517 0
-0.0169711 0.0153073 0
-0.0275412 0.0172721 0
-0.0373587 0.0199889 0
-0.0465563 0.0233416 0
-0.0552613 0.0272564 0
-0.0635858 0.0316935 0
-0.0716209 0.0366385 0
-0.0794311 0.0420954 0
-0.0870516 0.0480801 0
-0.0944844 0.0546136 0
-0.101697 0.0617159 0
-0.108622 0.0694002 0
-0.115156 0.0776667 0
-0.121164 0.086497 0
-0.126479 0.095848 0
-0.130915 0.105648 0
-0.134269 0.115792 0
-0.136337 0.12614 0
-0.136921 0.136515 0
-0.135845 0.146706 0
-0.132963 0.15647 0
-0.128172 0.165536 0
-0.12141 0.173615 0
-0.11266 0.180404 0
-0.101932 0.185598 0
-0.0892411 0.188889 0
-0.0745627 0.18998 0
-0.0577642 0.188577 0
-0.0384987 0.184398 0
-0.0160487 0.177166 0
0.0108988 0.166617 0
0.0445502 0.152524 0
0.088352 0.134756 0
0.147293 0.113403 0
0.227949 0.0889954 0
0.337894 0.0628181 0
0.483963 0.0372574 0
0.668849 0.0159663 0
0.885971 0.00346201 0
-0.00599335 0.00650969 0
-0.0183959 0.0137191 0
-0.0297299 0.0154801 0
-0.0401783 0.0179002 0
-0.0499214 0.0208756 0
-0.059124 0.0243452 0
-0.0679279 0.0282818 0
-0.0764456 0.0326832 0
-0.0847567 0.0375651 0
-0.0929046 0.0429548 0
-0.100894 0.0488845 0
-0.108688 0.0553853 0
-0.11621 0.0624811 0
-0.12334 0.0701822 0
-0.12992 0.0784795 0
-0.135758 0.0873384 0
-0.140634 0.0966931 0
-0.144311 0.106443 0
-0.146544 0.116449 0
-0.1471 0.126534 0
-0.145765 0.136481 0
-0.142365 0.146041 0
-0.13677 0.154937 0
-0.128904 0.16287 0
-0.118738 0.169531 0
-0.106285 0.174608 0
-0.0915641 0.177795 0
-0.074561 0.178797 0
-0.0551537 0.177332 0
-0.0330065 0.173137 0
-0.0074141 0.165965 0
0.0229121 0.155597 0
0.0601174 0.141864 0
0.107503 0.124714 0
0.169753 0.104322 0
0.252881 0.0812958 0
0.363571 0.05693 0
0.507485 0.0334755 0
0.686169 0.014217 0
0.892682 0.00305483 0
-0.00641132 0.00561374 0
-0.0196511 0.0118336 0
-0.0316412 0.0133495 0
-0.042626 0.0154165 0
-0.0528339 0.0179459 0
-0.0624674 0.020892 0
-0.0716967 0.0242419 0
-0.0806556 0.0280068 0
-0.089438 0.0322152 0
-0.0980954 0.0369063 0
-0.106635 0.0421244 0
-0.115015 0.0479122 0
-0.12315 0.0543057 0
-0.130903 0.061327 0
-0.138093 0.0689784 0
-0.1445 0.0772359 0
-0.14987 0.0860434 0
-0.153926 0.0953078 0
-0.156386 0.104896 0
-0.156974 0.114631 0
-0.155439 0.1243 0
-0.151573 0.133648 0
-0.145221 0.142394 0
-0.136288 0.150234 0
-0.124741 0.156852 0
-0.110592 0.161933 0
-0.0938721 0.165167 0
-0.0745807 0.166263 0
-0.052614 0.164947 0
-0.0276552 0.160969 0
0.000977626 0.154107 0
0.034535 0.144174 0
0.0750855 0.13105 0
0.125771 0.114743 0
0.190965 0.0954939 0
0.276155 0.0739583 0
0.387227 0.0514202 0
0.528847 0.029991 0
0.701666 0.0126234 0
0.898583 0.00268637 0
-0.00676779 0.0045875 0
-0.020705 0.0096713 0
-0.0332271 0.0109017 0
-0.044641 0.0125608 0
-0.0552231 0.0145786 0
-0.0652122 0.0169268 0
-0.0748061 0.0196078 0
-0.0841582 0.022647 0
-0.0933761 0.0260857 0
-0.102519 0.0299753 0
-0.111596 0.0343722 0
-0.120564 0.0393316 0
-0.129324 0.044902 0
-0.137725 0.0511188 0
-0.145564 0.0579981 0
-0.15259 0.0655294 0
-0.158514 0.0736698 0
-0.163021 0.082338 0
-0.165784 0.0914104 0
-0.166486 0.100719 0
-0.164833 0.110054 0
-0.160582 0.119163 0
-0.15355 0.127764 0
-0.143624 0.135549 0
-0.130764 0.142199 0
-0.114984 0.147393 0
-0.0963288 0.15082 0
-0.074816 0.152187 0
-0.0503647 0.151225 0
-0.0226843 0.147692 0
0.00887505 0.141381 0
0.0455148 0.132133 0
0.0892136 0.119861 0
0.142943 0.104619 0
0.210773 0.0866961 0
0.297689 0.0667753 0
0.408872 0.0461122 0
0.548143 0.0266779 0
0.715461 0.0111214 0
0.903734 0.00234038 0
-0.0070522 0.00344428 0
-0.0215266 0.00725927 0
-0.0344415 0.00816539 0
-0.0461661 0.00936547 0
-0.0570227 0.010811 0
-0.0672847 0.0124924 0
-0.0771746 0.0144283 0
-0.0868647 0.0166578 0
-0.0964749 0.0192347 0
-0.106072 0.0222223 0
-0.115668 0.0256883 0
-0.125214 0.0297002 0
-0.134606 0.03432 0
-0.143676 0.0395976 0
-0.152199 0.0455648 0
-0.159895 0.0522278 0
-0.16644 0.0595607 0
-0.171478 0.067499 0
-0.174637 0.0759345 0
-0.175554 0.084713 0
-0.173892 0.0936338 0
-0.169368 0.102453 0
-0.161767 0.110891 0
-0.150958 0.118641 0
-0.13689 0.125381 0
-0.119582 0.130786 0
-0.0990902 0.134541 0
-0.0754544 0.136349 0
-0.0486204 0.13594 0
-0.0183287 0.133075 0
0.0160309 0.127557 0
0.0556014 0.119241 0
0.102262 0.108066 0
0.158806 0.0941175 0
0.229005 0.0777161 0
0.317379 0.059556 0
0.428476 0.0408507 0
0.56541 0.0234296 0
0.727618 0.00965824 0
0.908162 0.00200388 0
-0.00725428 0.00220095 0
-0.0220873 0.00463242 0
-0.0352429 0.005179 0
-0.0471502 0.00587433 0
-0.0581744 0.00669397 0
-0.0686193 0.00764794 0
-0.07873 0.00877076 0
-0.0886947 0.0101147 0
-0.098645 0.0117445 0
-0.108655 0.0137339 0
-0.118738 0.0161613 0
-0.128846 0.0191057 0
-0.138866 0.0226424 0
-0.148616 0.0268369 0
-0.157852 0.0317385 0
-0.166266 0.0373733 0
-0.1735 0.0437368 0
-0.179155 0.0507863 0
-0.182816 0.0584356 0
-0.184069 0.0665504 0
-0.182532 0.0749474 0
-0.177878 0.0833965 0
-0.169857 0.0916269 0
-0.158313 0.0993362 0
-0.143184 0.106203 0
-0.12449 0.111899 0
-0.102299 0.116102 0
-0.0766737 0.118511 0
-0.0475879 0.118848 0
-0.014818 0.116872 0
0.0222008 0.112386 0
0.0645453 0.105253 0
0.113986 0.0954275 0
0.173137 0.083013 0
0.245475 0.0683479 0
0.33509 0.0521224 0
0.445966 0.0354959 0
0.580632 0.0201534 0
0.738152 0.00818958 0
0.911875 0.0016662 0
-0.00736428 0.000878297 0
-0.0223602 0.00183429 0
-0.0355937 0.00199139 0
-0.0475485 0.0021442 0
-0.0586268 0.00229419 0
-0.0691583 0.00247123 0
-0.0794068 0.00272473 0
-0.0895738 0.0031182 0
-0.0998009 0.00372569 0
-0.110169 0.00462905 0
-0.120696 0.00591543 0
-0.131333 0.00767428 0
-0.141961 0.00999347 0
-0.15239 0.0129543 0
-0.162358 0.0166255 0
-0.171531 0.0210558 0
-0.179518 0.0262661 0
-0.185882 0.0322419 0
-0.19016 0.0389251 0
-0.19189 0.0462096 0
-0.190637 0.0539375 0
-0.186029 0.0619003 0
-0.177774 0.0698432 0
-0.165688 0.0774743 0
-0.14969 0.0844755 0
-0.129797 0.0905171 0
-0.106088 0.0952712 0
-0.0786451 0.098425 0
-0.0474725 0.0996917 0
-0.0123845 0.0988206 0
0.0271334 0.0956079 0
0.0720851 0.0899156 0
0.124128 0.081703 0
0.185691 0.0710808 0
0.259968 0.058391 0
0.350649 0.0443061 0
0.461226 0.0299194 0
0.593743 0.0167664 0
0.747033 0.00667647 0
0.914857 0.00131805 0
-0.00737366 -0.000498545 0
-0.0223236 -0.00108198 0
-0.0354646 -0.00133678 0
-0.0473264 -0.0017536 0
-0.0583409 -0.00230395 0
-0.0688574 -0.00293887 0
-0.0791531 -0.00359588 0
-0.0894403 -0.00420266 0
-0.0998688 -0.00467886 0
-0.110526 -0.00493713 0
-0.121436 -0.00488416 0
-0.13255 -0.00442237 0
-0.14375 -0.00345255 0
-0.154839 -0.00187794 0
-0.165539 0.000390267 0
-0.175498 0.0034259 0
-0.184297 0.00727967 0
-0.191459 0.0119703 0
-0.196476 0.0174759 0
-0.198837 0.0237268 0
-0.198052 0.0306 0
-0.193698 0.037918 0
-0.185436 0.0454514 0
-0.173045 0.0529255 0
-0.156419 0.060032 0
-0.135566 0.0664417 0
-0.110569 0.0718208 0
-0.0815261 0.0758446 0
-0.0484714 0.0782111 0
-0.0112584 0.078654 0
0.0305734 0.0769557 0
0.0779502 0.0729683 0
0.13241 0.0666457 0
0.196198 0.0580948 0
0.272237 0.0476478 0
0.363847 0.0359452 0
0.474091 0.0240012 0
0.60463 0.0131937 0
0.75419 0.00508543 0
0.917077 0.000951933 0
-0.00727606 -0.00190072 0
-0.0219631 -0.00405481 0
-0.0348381 -0.00473406 0
-0.0464651 -0.00573405 0
-0.0572958 -0.00699924 0
-0.0676914 -0.00846316 0
-0.0779374 -0.0100529 0
-0.0882529 -0.0116907 0
-0.0987946 -0.0132931 0
-0.109657 -0.0147711 0
-0.120869 -0.0160285 0
-0.132389 -0.0169625 0
-0.1441 -0.017465 0
-0.155804 -0.0174252 0
-0.167216 -0.0167342 0
-0.17797 -0.0152917 0
-0.187621 -0.013014 0