# vtk DataFile Version 2.0
Velocidades
ASCII

DATASET STRUCTURED_GRID
DIMENSIONS   40   40   20

POINTS   32000   double
0.0125   0.0125   0.025
0.0125   0.0375   0.025
0.0125   0.0625   0.025
0.0125   0.0875   0.025
0.0125   0.1125   0.025
0.0125   0.1375   0.025
0.0125   0.1625   0.025
0.0125   0.1875   0.025
0.0125   0.2125   0.025
0.0125   0.2375   0.025
0.0125   0.2625   0.025
0.0125   0.2875   0.025
0.0125   0.3125   0.025
0.0125   0.3375   0.025
0.0125   0.3625   0.025
0.0125   0.3875   0.025
0.0125   0.4125   0.025
0.0125   0.4375   0.025
0.0125   0.4625   0.025
0.0125   0.4875   0.025
0.0125   0.5125   0.025
0.0125   0.5375   0.025
0.0125   0.5625   0.025
0.0125   0.5875   0.025
0.0125   0.6125   0.025
0.0125   0.6375   0.025
0.0125   0.6625   0.025
0.0125   0.6875   0.025
0.0125   0.7125   0.025
0.0125   0.7375   0.025
0.0125   0.7625   0.025
0.0125   0.7875   0.025
0.0125   0.8125   0.025
0.0125   0.8375   0.025
0.0125   0.8625   0.025
0.0125   0.8875   0.025
0.0125   0.9125   0.025
0.0125   0.9375   0.025
0.0125   0.9625   0.025
0.0125   0.9875   0.025
0.0375   0.0125   0.025
0.0375   0.0375   0.025
0.0375   0.0625   0.025
0.0375   0.0875   0.025
0.0375   0.1125   0.025
0.0375   0.1375   0.025
0.0375   0.1625   0.025
0.0375   0.1875   0.025
0.0375   0.2125   0.025
0.0375   0.2375   0.025
0.0375   0.2625   0.025
0.0375   0.2875   0.025
0.0375   0.3125   0.025
0.0375   0.3375   0.025
0.0375   0.3625   0.025
0.0375   0.3875   0.025
0.0375   0.4125   0.025
0.0375   0.4375   0.025
0.0375   0.4625   0.025
0.0375   0.4875   0.025
0.0375   0.5125   0.025
0.0375   0.5375   0.025
0.0375   0.5625   0.025
0.0375   0.5875   0.025
0.0375   0.6125   0.025
0.0375   0.6375   0.025
0.0375   0.6625   0.025
0.0375   0.6875   0.025
0.0375   0.7125   0.025
0.0375   0.7375   0.025
0.0375   0.7625   0.025
0.0375   0.7875   0.025
0.0375   0.8125   0.025
0.0375   0.8375   0.025
0.0375   0.8625   0.025
0.0375   0.8875   0.025
0.0375   0.9125   0.025
0.0375   0.9375   0.025
0.0375   0.9625   0.025
0.0375   0.9875   0.025
0.0625   0.0125   0.025
0.0625   0.0375   0.025
0.0625   0.0625   0.025
0.0625   0.0875   0.025
0.0625   0.1125   0.025
0.0625   0.1375   0.025
0.0625   0.1625   0.025
0.0625   0.1875   0.025
0.0625   0.2125   0.025
0.0625   0.2375   0.025
0.0625   0.2625   0.025
0.0625   0.2875   0.025
0.0625   0.3125   0.025
0.0625   0.3375   0.025
0.0625   0.3625   0.025
0.0625   0.3875   0.025
0.0625   0.4125   0.025
0.0625   0.4375   0.025
0.0625   0.4625   0.025
0.0625   0.4875   0.025
0.0625   0.5125   0.025
0.0625   0.5375   0.025
0.0625   0.5625   0.025
0.0625   0.5875   0.025
0.0625   0.6125   0.025
0.0625   0.6375   0.025
0.0625   0.6625   0.025
0.0625   0.6875   0.025
0.0625   0.7125   0.025
0.0625   0.7375   0.025
0.0625   0.7625   0.025
0.0625   0.7875   0.025
0.0625   0.8125   0.025
0.0625   0.8375   0.025
0.0625   0.8625   0.025
0.0625   0.8875   0.025
0.0625   0.9125   0.025
0.0625   0.9375   0.025
0.0625   0.9625   0.025
0.0625   0.9875   0.025
0.0875   0.0125   0.025
0.0875   0.0375   0.025
0.0875   0.0625   0.025
0.0875   0.0875   0.025
0.0875   0.1125   0.025
0.0875   0.1375   0.025
0.0875   0.1625   0.025
0.0875   0.1875   0.025
0.0875   0.2125   0.025
0.0875   0.2375   0.025
0.0875   0.2625   0.025
0.0875   0.2875   0.025
0.0875   0.3125   0.025
0.0875   0.3375   0.025
0.0875   0.3625   0.025
0.0875   0.3875   0.025
0.0875   0.4125   0.025
0.0875   0.4375   0.025
0.0875   0.4625   0.025
0.0875   0.4875   0.025
0.0875   0.5125   0.025
0.0875   0.5375   0.025
0.0875   0.5625   0.025
0.0875   0.5875   0.025
0.0875   0.6125   0.025
0.0875   0.6375   0.025
0.0875   0.6625   0.025
0.0875   0.6875   0.025
0.0875   0.7125   0.025
0.0875   0.7375   0.025
0.0875   0.7625   0.025
0.0875   0.7875   0.025
0.0875   0.8125   0.025
0.0875   0.8375   0.025
0.0875   0.8625   0.025
0.0875   0.8875   0.025
0.0875   0.9125   0.025
0.0875   0.9375   0.025
0.0875   0.9625   0.025
0.0875   0.9875   0.025
0.1125   0.0125   0.025
0.1125   0.0375   0.025
0.1125   0.0625   0.025
0.1125   0.0875   0.025
0.1125   0.1125   0.025
0.1125   0.1375   0.025
0.1125   0.1625   0.025
0.1125   0.1875   0.025
0.1125   0.2125   0.025
0.1125   0.2375   0.025
0.1125   0.2625   0.025
0.1125   0.2875   0.025
0.1125   0.3125   0.025
0.1125   0.3375   0.025
0.1125   0.3625   0.025
0.1125   0.3875   0.025
0.1125   0.4125   0.025
0.1125   0.4375   0.025
0.1125   0.4625   0.025
0.1125   0.4875   0.025
0.1125   0.5125   0.025
0.1125   0.5375   0.025
0.1125   0.5625   0.025
0.1125   0.5875   0.025
0.1125   0.6125   0.025
0.1125   0.6375   0.025
0.1125   0.6625   0.025
0.1125   0.6875   0.025
0.1125   0.7125   0.025
0.1125   0.7375   0.025
0.1125   0.7625   0.025
0.1125   0.7875   0.025
0.1125   0.8125   0.025
0.1125   0.8375   0.025
0.1125   0.8625   0.025
0.1125   0.8875   0.025
0.1125   0.9125   0.025
0.1125   0.9375   0.025
0.1125   0.9625   0.025
0.1125   0.9875   0.025
0.1375   0.0125   0.025
0.1375   0.0375   0.025
0.1375   0.0625   0.025
0.1375   0.0875   0.025
0.1375   0.1125   0.025
0.1375   0.1375   0.025
0.1375   0.1625   0.025
0.1375   0.1875   0.025
0.1375   0.2125   0.025
0.1375   0.2375   0.025
0.1375   0.2625   0.025
0.1375   0.2875   0.025
0.1375   0.3125   0.025
0.1375   0.3375   0.025
0.1375   0.3625   0.025
0.1375   0.3875   0.025
0.1375   0.4125   0.025
0.1375   0.4375   0.025
0.1375   0.4625   0.025
0.1375   0.4875   0.025
0.1375   0.5125   0.025
0.1375   0.5375   0.025
0.1375   0.5625   0.025
0.1375   0.5875   0.025
0.1375   0.6125   0.025
0.1375   0.6375   0.025
0.1375   0.6625   0.025
0.1375   0.6875   0.025
0.1375   0.7125   0.025
0.1375   0.7375   0.025
0.1375   0.7625   0.025
0.1375   0.7875   0.025
0.1375   0.8125   0.025
0.1375   0.8375   0.025
0.1375   0.8625   0.025
0.1375   0.8875   0.025
0.1375   0.9125   0.025
0.1375   0.9375   0.025
0.1375   0.9625   0.025
0.1375   0.9875   0.025
0.1625   0.0125   0.025
0.1625   0.0375   0.025
0.1625   0.0625   0.025
0.1625   0.0875   0.025
0.1625   0.1125   0.025
0.1625   0.1375   0.025
0.1625   0.1625   0.025
0.1625   0.1875   0.025
0.1625   0.2125   0.025
0.1625   0.2375   0.025
0.1625   0.2625   0.025
0.1625   0.2875   0.025
0.1625   0.3125   0.025
0.1625   0.3375   0.025
0.1625   0.3625   0.025
0.1625   0.3875   0.025
0.1625   0.4125   0.025
0.1625   0.4375   0.025
0.1625   0.4625   0.025
0.1625   0.4875   0.025
0.1625   0.5125   0.025
0.1625   0.5375   0.025
0.1625   0.5625   0.025
0.1625   0.5875   0.025
0.1625   0.6125   0.025
0.1625   0.6375   0.025
0.1625   0.6625   0.025
0.1625   0.6875   0.025
0.1625   0.7125   0.025
0.1625   0.7375   0.025
0.1625   0.7625   0.025
0.1625   0.7875   0.025
0.1625   0.8125   0.025
0.1625   0.8375   0.025
0.1625   0.8625   0.025
0.1625   0.8875   0.025
0.1625   0.9125   0.025
0.1625   0.9375   0.025
0.1625   0.9625   0.025
0.1625   0.9875   0.025
0.1875   0.0125   0.025
0.1875   0.0375   0.025
0.1875   0.0625   0.025
0.1875   0.0875   0.025
0.1875   0.1125   0.025
0.1875   0.1375   0.025
0.1875   0.1625   0.025
0.1875   0.1875   0.025
0.1875   0.2125   0.025
0.1875   0.2375   0.025
0.1875   0.2625   0.025
0.1875   0.2875   0.025
0.1875   0.3125   0.025
0.1875   0.3375   0.025
0.1875   0.3625   0.025
0.1875   0.3875   0.025
0.1875   0.4125   0.025
0.1875   0.4375   0.025
0.1875   0.4625   0.025
0.1875   0.4875   0.025
0.1875   0.5125   0.025
0.1875   0.5375   0.025
0.1875   0.5625   0.025
0.1875   0.5875   0.025
0.1875   0.6125   0.025
0.1875   0.6375   0.025
0.1875   0.6625   0.025
0.1875   0.6875   0.025
0.1875   0.7125   0.025
0.1875   0.7375   0.025
0.1875   0.7625   0.025
0.1875   0.7875   0.025
0.1875   0.8125   0.025
0.1875   0.8375   0.025
0.1875   0.8625   0.025
0.1875   0.8875   0.025
0.1875   0.9125   0.025
0.1875   0.9375   0.025
0.1875   0.9625   0.025
0.1875   0.9875   0.025
0.2125   0.0125   0.025
0.2125   0.0375   0.025
0.2125   0.0625   0.025
0.2125   0.0875   0.025
0.2125   0.1125   0.025
0.2125   0.1375   0.025
0.2125   0.1625   0.025
0.2125   0.1875   0.025
0.2125   0.2125   0.025
0.2125   0.2375   0.025
0.2125   0.2625   0.025
0.2125   0.2875   0.025
0.2125   0.3125   0.025
0.2125   0.3375   0.025
0.2125   0.3625   0.025
0.2125   0.3875   0.025
0.2125   0.4125   0.025
0.2125   0.4375   0.025
0.2125   0.4625   0.025
0.2125   0.4875   0.025
0.2125   0.5125   0.025
0.2125   0.5375   0.025
0.2125   0.5625   0.025
0.2125   0.5875   0.025
0.2125   0.6125   0.025
0.2125   0.6375   0.025
0.2125   0.6625   0.025
0.2125   0.6875   0.025
0.2125   0.7125   0.025
0.2125   0.7375   0.025
0.2125   0.7625   0.025
0.2125   0.7875   0.025
0.2125   0.8125   0.025
0.2125   0.8375   0.025
0.2125   0.8625   0.025
0.2125   0.8875   0.025
0.2125   0.9125   0.025
0.2125   0.9375   0.025
0.2125   0.9625   0.025
0.2125   0.9875   0.025
0.2375   0.0125   0.025
0.2375   0.0375   0.025
0.2375   0.0625   0.025
0.2375   0.0875   0.025
0.2375   0.1125   0.025
0.2375   0.1375   0.025
0.2375   0.1625   0.025
0.2375   0.1875   0.025
0.2375   0.2125   0.025
0.2375   0.2375   0.025
0.2375   0.2625   0.025
0.2375   0.2875   0.025
0.2375   0.3125   0.025
0.2375   0.3375   0.025
0.2375   0.3625   0.025
0.2375   0.3875   0.025
0.2375   0.4125   0.025
0.2375   0.4375   0.025
0.2375   0.4625   0.025
0.2375   0.4875   0.025
0.2375   0.5125   0.025
0.2375   0.5375   0.025
0.2375   0.5625   0.025
0.2375   0.5875   0.025
0.2375   0.6125   0.025
0.2375   0.6375   0.025
0.2375   0.6625   0.025
0.2375   0.6875   0.025
0.2375   0.7125   0.025
0.2375   0.7375   0.025
0.2375   0.7625   0.025
0.2375   0.7875   0.025
0.2375   0.8125   0.025
0.2375   0.8375   0.025
0.2375   0.8625   0.025
0.2375   0.8875   0.025
0.2375   0.9125   0.025
0.2375   0.9375   0.025
0.2375   0.9625   0.025
0.2375   0.9875   0.025
0.2625   0.0125   0.025
0.2625   0.0375   0.025
0.2625   0.0625   0.025
0.2625   0.0875   0.025
0.2625   0.1125   0.025
0.2625   0.1375   0.025
0.2625   0.1625   0.025
0.2625   0.1875   0.025
0.2625   0.2125   0.025
0.2625   0.2375   0.025
0.2625   0.2625   0.025
[...]
POINT_DATA   32000
VECTORS Velocidades double

0 0.327327 0
0 0.744729 0
0 0.865844 0
0 0.910385 0
0 0.930967 0
0 0.942265 0
0 0.949205 0
0 0.953782 0
0 0.956941 0
0 0.959186 0
0 0.96081 0
0 0.961995 0
0 0.962859 0
0 0.963481 0
0 0.963913 0
0 0.964192 0
0 0.964342 0
0 0.964377 0
0 0.964308 0
0 0.964134 0
0 0.963853 0
0 0.963457 0
0 0.96293 0
0 0.962254 0
0 0.961401 0
0 0.960332 0
0 0.959001 0
0 0.95734 0
0 0.955261 0
0 0.95264 0
0 0.949303 0
0 0.944988 0
0 0.939291 0
0 0.93154 0
0 0.920518 0
0 0.903747 0
0 0.875413 0
0 0.819551 0
0 0.685613 0
0 0.294723 0
0 0.198724 0
0 0.503829 0
0 0.665762 0
0 0.751979 0
0 0.80083 0
0 0.83052 0
0 0.849689 0
0 0.862655 0
0 0.87173 0
0 0.878235 0
0 0.882969 0
0 0.886437 0
0 0.888972 0
0 0.890799 0
0 0.892071 0
0 0.892892 0
0 0.893333 0
0 0.893438 0
0 0.89323 0
0 0.892716 0
0 0.891886 0
0 0.890715 0
0 0.889162 0
0 0.887168 0
0 0.884653 0
0 0.88151 0
0 0.8776 0
0 0.872735 0
0 0.866664 0
0 0.859043 0
0 0.849392 0
0 0.837013 0
0 0.820863 0
0 0.799312 0
0 0.76968 0
0 0.727348 0
0 0.663999 0
0 0.564452 0
0 0.40295 0
0 0.151361 0
0 0.139573 0
0 0.373044 0
0 0.526555 0
0 0.624016 0
0 0.686486 0
0 0.727634 0
0 0.755589 0
0 0.775123 0
0 0.789086 0
0 0.799238 0
0 0.806698 0
0 0.812203 0
0 0.816247 0
0 0.819171 0
0 0.821211 0
0 0.822531 0
0 0.823239 0
0 0.823406 0
0 0.823067 0
0 0.822233 0
0 0.820889 0
0 0.818995 0
0 0.816488 0
0 0.813275 0
0 0.809231 0
0 0.804193 0
0 0.797947 0
0 0.79021 0
0 0.780611 0
0 0.768652 0
0 0.753656 0
0 0.734682 0
0 0.710396 0
0 0.678867 0
0 0.637253 0
0 0.581364 0
0 0.50519 0
0 0.400958 0
0 0.261695 0
0 0.0913138 0
0 0.106724 0
0 0.292584 0
0 0.42774 0
0 0.522796 0
0 0.589109 0
0 0.635682 0
0 0.668828 0
0 0.692771 0
0 0.710296 0
0 0.723256 0
0 0.732899 0
0 0.740079 0
0 0.745389 0
0 0.749248 0
0 0.75195 0
0 0.7537 0
0 0.754638 0
0 0.754854 0
0 0.754396 0
0 0.753275 0
0 0.751472 0
0 0.748938 0
0 0.745589 0
0 0.741309 0
0 0.735941 0
0 0.72928 0
0 0.721061 0
0 0.710944 0
0 0.69849 0
0 0.683128 0
0 0.66411 0
0 0.640447 0
0 0.61083 0
0 0.573518 0
0 0.526242 0
0 0.46617 0
0 0.390152 0
0 0.295674 0
0 0.183351 0
0 0.0615548 0
0 0.0856561 0
0 0.237869 0
0 0.354657 0
0 0.442154 0
0 0.506909 0
0 0.554707 0
0 0.590099 0
0 0.616459 0
0 0.636211 0
0 0.65108 0
0 0.662294 0
0 0.67073 0
0 0.677018 0
0 0.681614 0
0 0.684844 0
0 0.686941 0
0 0.688063 0
0 0.688314 0
0 0.68775 0
0 0.686383 0
0 0.684194 0
0 0.681123 0
0 0.677076 0
0 0.671921 0
0 0.665482 0
0 0.65753 0
0 0.647777 0
0 0.63586 0
0 0.621324 0
0 0.603597 0
0 0.581961 0
0 0.555524 0
0 0.523183 0
0 0.483613 0
0 0.435304 0
0 0.376723 0
0 0.306735 0
0 0.225455 0
0 0.13569 0
0 0.0446295 0
0 0.0707116 0
0 0.197763 0
0 0.298327 0
0 0.376801 0
0 0.437356 0
0 0.483788 0
0 0.51931 0
0 0.546486 0
0 0.567295 0
0 0.583232 0
0 0.595417 0
0 0.604681 0
0 0.611645 0
0 0.616766 0
0 0.62038 0
0 0.622731 0
0 0.623987 0
0 0.624259 0
0 0.623605 0
0 0.622041 0
0 0.619546 0
0 0.616056 0
0 0.611472 0
0 0.605655 0
0 0.598421 0
0 0.589537 0
0 0.578715 0
0 0.565598 0
0 0.549755 0
0 0.530664 0
0 0.507703 0
0 0.480144 0
0 0.44716 0
0 0.407865 0
0 0.361412 0
0 0.307194 0
0 0.245206 0
0 0.1766 0
0 0.104381 0
0 0.0339414 0
0 0.0593634 0
0 0.166727 0
0 0.253369 0
0 0.322848 0
0 0.378093 0
0 0.421707 0
0 0.455965 0
0 0.482781 0
0 0.503715 0
0 0.520007 0
0 0.532626 0
0 0.542322 0
0 0.549671 0
0 0.555109 0
0 0.558964 0
0 0.561476 0
0 0.562816 0
0 0.563093 0
0 0.562368 0
0 0.560659 0
0 0.557943 0
0 0.554157 0
0 0.549203 0
0 0.542941 0
0 0.535192 0
0 0.525732 0
0 0.514288 0
0 0.500536 0
0 0.484091 0
0 0.46451 0
0 0.441294 0
0 0.413897 0
0 0.381757 0
0 0.344357 0
0 0.301329 0
0 0.252628 0
0 0.198781 0
0 0.141206 0
0 0.0825147 0
0 0.0266498 0
0 0.0503399 0
0 0.141765 0
0 0.216493 0
0 0.277561 0
0 0.327194 0
0 0.367265 0
0 0.399416 0
0 0.425072 0
0 0.44544 0
0 0.461521 0
0 0.474129 0
0 0.483913 0
0 0.491388 0
0 0.496954 0
0 0.500916 0
0 0.503503 0
0 0.504878 0
0 0.505148 0
0 0.504373 0
0 0.50257 0
0 0.499718 0
0 0.495757 0
0 0.490592 0
0 0.484093 0
0 0.476092 0
0 0.466383 0
0 0.454722 0
0 0.440826 0
0 0.424374 0
0 0.405009 0
0 0.382354 0
0 0.356033 0
0 0.325701 0
0 0.291114 0
0 0.252209 0
0 0.209241 0
0 0.162933 0
0 0.114642 0
0 0.0664917 0
0 0.0213833 0
0 0.0429363 0
0 0.121137 0
0 0.185621 0
0 0.239035 0
0 0.283162 0
0 0.319412 0
0 0.348999 0
0 0.372989 0
0 0.392313 0
0 0.407766 0
0 0.420014 0
0 0.429607 0
0 0.436992 0
0 0.442522 0
0 0.446475 0
0 0.44906 0
0 0.450428 0
0 0.450681 0
0 0.449875 0
0 0.448027 0
0 0.445118 0
0 0.441094 0
0 0.435866 0
0 0.429318 0
0 0.421297 0
0 0.411623 0
0 0.400087 0
0 0.386451 0
0 0.370458 0
0 0.351838 0
0 0.330323 0
0 0.305671 0
0 0.277706 0
0 0.24636 0
0 0.211754 0
0 0.174273 0
0 0.134661 0
0 0.094111 0
0 0.0543045 0
0 0.0174146 0
0 0.0367307 0
0 0.103763 0
0 0.159388 0
0 0.205926 0
0 0.244851 0
0 0.277266 0
0 0.30409 0
0 0.326132 0
0 0.344107 0
0 0.358642 0
0 0.370276 0
0 0.379464 0
0 0.386587 0
0 0.391949 0
0 0.395796 0
0 0.398315 0
0 0.399642 0
0 0.39987 0
0 0.399052 0
0 0.397204 0
0 0.39431 0
0 0.39032 0
0 0.385159 0
0 0.378721 0
0 0.370876 0
0 0.361471 0
0 0.35033 0
0 0.337265 0
0 0.322077 0
0 0.304569 0
0 0.284565 0
0 0.261927 0
0 0.236591 0
0 0.208605 0
0 0.178177 0
0 0.145731 0
0 0.111958 0
0 0.0778598 0
0 0.0447643 0
0 0.0143271 0
0 0.0314535 0
0 0.088939 0
0 0.136867 0
0 0.177267 0
0 0.211384 0
0 0.240102 0
0 0.264135 0
0 0.284103 0
0 0.300558 0
0 0.313993 0
0 0.324839 0
0 0.333471 0
0 0.340203 0
0 0.345297 0
0 0.348963 0
0 0.351365 0
0 0.352624 0
0 0.352824 0
0 0.352011 0
0 0.350201 0
0 0.347381 0
0 0.34351 0
0 0.33852 0
0 0.332323 0
0 0.324809 0
0 0.315851 0
0 0.30531 0
0 0.293037 0
0 0.278887 0
0 0.262724 0
0 0.24444 0
0 0.223973 0
0 0.201333 0
0 0.17663 0
0 0.150108 0
0 0.122179 0
0 0.0934521 0
0 0.064752 0
0 0.0371297 0
0 0.0118668 0
0 0.0269229 0
0 0.0761827 0
0 0.117399 0
0 0.152344 0
0 0.182077 0
0 0.207321 0
0 0.228641 0
0 0.246519 0
0 0.261384 0
0 0.273622 0
0 0.283577 0
0 0.291551 0
0 0.297806 0
0 0.30256 0
0 0.30599 0
0 0.308239 0
0 0.309411 0
0 0.30958 0
0 0.308788 0
0 0.307049 0
0 0.304352 0
0 0.300664 0
0 0.295928 0
0 0.290071 0
0 0.283003 0
0 0.274623 0
0 0.26482 0
0 0.253485 0
0 0.240513 0
0 0.225817 0
0 0.20934 0
0 0.191072 0
0 0.171064 0
0 0.149459 0
0 0.126503 0
0 0.102572 0
0 0.0781878 0
0 0.0540245 0
0 0.0309171 0
0 0.00987089 0
0 0.0230105 0
0 0.0651478 0
0 0.100503 0
0 0.130615 0
0 0.15639 0
0 0.178427 0
0 0.197179 0
0 0.213024 0
0 0.226299 0
0 0.237307 0
0 0.24632 0
0 0.253583 0
0 0.259308 0
0 0.263675 0
0 0.266835 0
0 0.268906 0
0 0.26998 0
0 0.270118 0
0 0.269358 0
0 0.267714 0
0 0.265178 0
0 0.261722 0
0 0.2573 0
0 0.251854 0
0 0.245311 0
0 0.237591 0
0 0.228613 0
0 0.218295 0
0 0.206567 0
0 0.193378 0
0 0.178708 0
0 0.162575 0
0 0.14506 0
0 0.126309 0
0 0.106557 0
0 0.0861353 0
0 0.0654825 0
0 0.0451479 0
0 0.0257979 0
0 0.00822997 0
0 0.019621 0
0 0.0555759 0
0 0.0858097 0
0 0.111654 0
0 0.133883 0
0 0.152997 0
0 0.169363 0
0 0.183282 0
0 0.195018 0
0 0.20481 0
0 0.212874 0
0 0.219405 0
0 0.224576 0
0 0.228533 0
0 0.231403 0
0 0.233283 0
0 0.234251 0
0 0.23436 0
0 0.233643 0
0 0.232112 0
0 0.229762 0
0 0.226572 0
0 0.222504 0
0 0.217512 0
0 0.211539 0
0 0.204527 0
0 0.196412 0
0 0.18714 0
0 0.176666 0
0 0.164964 0
0 0.152036 0
0 0.137924 0
0 0.122713 0
0 0.10655 0
0 0.0896458 0
0 0.0722865 0
0 0.0548368 0
0 0.0377436 0
0 0.0215415 0
0 0.00686785 0
0 0.0166814 0
0 0.047266 0
0 0.0730295 0
0 0.0951179 0
0 0.114191 0
0 0.130669 0
0 0.144851 0
0 0.156978 0
0 0.16726 0
0 0.175884 0
0 0.183021 0
0 0.188828 0
0 0.193442 0
0 0.196984 0
0 0.199557 0
0 0.201242 0
0 0.202103 0
0 0.202186 0
0 0.201519 0
0 0.200113 0
0 0.197966 0
0 0.195059 0
0 0.191366 0
0 0.18685 0
0 0.181468 0
0 0.175176 0
0 0.16793 0
0 0.159692 0
0 0.150438 0
0 0.14016 0
0 0.128875 0
0 0.116632 0
0 0.103519 0
0 0.0896728 0
0 0.0752783 0
0 0.0605788 0
0 0.0458759 0
0 0.0315328 0
0 0.0179798 0
0 0.00572953 0
0 0.0141329 0
0 0.0400565 0
0 0.0619252 0
0 0.0807196 0
0 0.0970014 0
0 0.111122 0
0 0.123329 0
0 0.133816 0
0 0.142748 0
0 0.150274 0
0 0.15653 0
0 0.161639 0
0 0.165713 0
0 0.168848 0
0 0.171127 0
0 0.172619 0
0 0.173376 0
0 0.173437 0
0 0.172825 0
0 0.17155 0
0 0.169611 0
0 0.166996 0
0 0.163684 0
0 0.159647 0
0 0.154854 0
0 0.149272 0
0 0.142871 0
0 0.135629 0
0 0.127533 0
0 0.118588 0
0 0.108819 0
0 0.0982783 0
0 0.0870511 0
0 0.0752581 0
0 0.0630606 0
0 0.0506625 0
0 0.0383121 0
0 0.0263047 0
0 0.0149874 0
0 0.00477408 0
0 0.0119273 0
0 0.0338129 0
0 0.0522973 0
0 0.068215 0
0 0.0820421 0
0 0.0940734 0
0 0.104512 0
0 0.113515 0
0 0.121214 0
0 0.127727 0
0 0.13316 0
0 0.137613 0
0 0.141173 0
0 0.143919 0
0 0.145917 0
0 0.147224 0
0 0.147883 0
0 0.147924 0
0 0.147369 0
0 0.146227 0
0 0.144497 0
0 0.142171 0
0 0.139234 0
0 0.135665 0
0 0.131441 0
0 0.126541 0
0 0.120944 0
0 0.114637 0
0 0.107618 0
0 0.0998988 0
0 0.0915081 0
0 0.082498 0
0 0.072946 0
0 0.0629584 0
0 0.0526724 0
0 0.0422581 0
0 0.0319193 0
0 0.0218955 0
0 0.0124675 0
0 0.00397011 0
0 0.0100232 0
0 0.0284207 0
0 0.0439744 0
0 0.0573907 0
0 0.0690715 0
0 0.0792633 0
0 0.0881339 0
0 0.0958098 0
0 0.102397 0
0 0.107987 0
0 0.112667 0
0 0.116512 0
0 0.119595 0
0 0.121977 0
0 0.123712 0
0 0.124845 0
0 0.125411 0
0 0.125437 0
0 0.12494 0
0 0.123928 0
0 0.122401 0
0 0.120355 0
0 0.117777 0
0 0.114654 0
0 0.11097 0
0 0.106709 0
0 0.10186 0
0 0.0964168 0
0 0.0903831 0
0 0.0837741 0
0 0.0766203 0
0 0.0689704 0
0 0.0608935 0
0 0.0524812 0
0 0.0438493 0
0 0.0351387 0
0 0.0265158 0
0 0.0181752 0
0 0.0103438 0
0 0.00329298 0
0 0.00838508 0
0 0.0237796 0
0 0.0368055 0
0 0.0480572 0
0 0.0578722 0
0 0.0664562 0
0 0.0739473 0
0 0.0804481 0
0 0.086043 0
0 0.0908058 0
0 0.0948033 0
0 0.0980971 0
0 0.100743 0
0 0.10279 0
0 0.104282 0
0 0.105256 0
0 0.105738 0
0 0.105752 0
0 0.105312 0
0 0.104424 0
0 0.10309 0
0 0.101308 0
0 0.0990678 0
0 0.0963614 0
0 0.0931775 0
0 0.0895066 0
0 0.0853424 0
0 0.0806841 0
0 0.0755384 0
0 0.0699227 0
0 0.0638663 0
0 0.0574134 0
0 0.0506245 0
0 0.0435777 0
0 0.0363696 0
0 0.0291161 0
0 0.0219532 0
0 0.0150382 0
0 0.00855479 0
0 0.00272286 0
0 0.00698128 0
0 0.0198013 0
0 0.0306564 0
0 0.0400442 0
0 0.0482468 0
0 0.055435 0
0 0.0617223 0
0 0.067192 0
0 0.0719114 0
0 0.0759392 0
0 0.079328 0
0 0.0821264 0
0 0.0843782 0
0 0.086123 0
0 0.0873952 0
0 0.0882236 0
0 0.0886316 0
0 0.0886365 0
0 0.0882502 0
0 0.0874792 0
0 0.0863255 0
0 0.0847871 0
0 0.0828592 0
0 0.0805351 0
0 0.0778081 0
0 0.0746727 0
0 0.0711263 0
0 0.0671713 0
0 0.0628163 0
0 0.0580788 0
0 0.0529862 0
0 0.0475776 0
0 0.0419049 0
0 0.0360339 0
0 0.0300449 0
0 0.0240327 0
0 0.0181077 0
0 0.0123974 0
0 0.00704994 0
0 0.00224347 0
0 0.00578364 0
0 0.0164063 0
0 0.0254063 0
0 0.0331977 0
0 0.040015 0
0 0.0459996 0
0 0.0512443 0
0 0.0558168 0
0 0.0597709 0
0 0.0631528 0
0 0.0660043 0
0 0.0683635 0
0 0.0702648 0
0 0.0717396 0
0 0.0728151 0
0 0.0735144 0
0 0.0738561 0
0 0.0738544 0
0 0.0735192 0
0 0.072856 0
0 0.0718672 0
0 0.0705517 0
0 0.0689069 0
0 0.0669285 0
0 0.0646126 0
0 0.0619566 0
0 0.0589604 0
0 0.0556282 0
0 0.0519694 0
0 0.0480007 0
0 0.0437467 0
0 0.0392415 0
0 0.0345292 0
0 0.0296646 0
0 0.0247137 0
0 0.0197541 0
0 0.0148751 0
0 0.0101796 0
0 0.00578697 0
0 0.00184128 0
0 0.00476683 0
0 0.0135233 0
0 0.020946 0
0 0.0273776 0
0 0.0330119 0
0 0.0379654 0
0 0.0423139 0
0 0.046112 0
0 0.0494027 0
0 0.0522228 0
0 0.0546048 0
0 0.0565788 0
0 0.0581719 0
0 0.0594087 0
0 0.0603107 0
0 0.0608962 0
0 0.0611801 0
0 0.061174 0
0 0.0608858 0
0 0.0603205 0
0 0.0594804 0
0 0.0583654 0
0 0.056974 0
0 0.055304 0
0 0.0533533 0
0 0.0511212 0
0 0.0486092 0
0 0.0458224 0
0 0.0427704 0
0 0.0394683 0
0 0.0359379 0
0 0.0322083 0
0 0.0283165 0
0 0.0243079 0
0 0.0202366 0
0 0.0161654 0
0 0.0121666 0
0 0.00832274 0
0 0.00473013 0
0 0.00150481 0
0 0.00390797 0
0 0.0110878 0
0 0.0171766 0
0 0.0224565 0
0 0.0270867 0
0 0.0311627 0
0 0.0347462 0
0 0.0378811 0
0 0.0406019 0
0 0.0429373 0
0 0.0449132 0
0 0.046553 0
0 0.0478778 0
0 0.0489071 0
0 0.0496577 0
0 0.0501441 0
0 0.0503783 0
0 0.0503693 0
0 0.0501239 0
0 0.0496463 0
0 0.0489386 0
0 0.0480014 0
0 0.0468341 0
0 0.0454357 0
0 0.0438055 0
0 0.041944 0
0 0.0398537 0
0 0.0375399 0
0 0.0350116 0
0 0.0322825 0
0 0.0293713 0
0 0.0263025 0
0 0.0231071 0
0 0.0198223 0
0 0.016492 0
0 0.0131671 0
0 0.00990551 0
0 0.00677374 0
0 0.0038489 0
0 0.00122432 0
0 0.00318647 0
0 0.00904138 0
0 0.0140086 0
0 0.0183188 0
0 0.022102 0
0 0.0254361 0
0 0.0283711 0
0 0.0309424 0
0 0.0331772 0
0 0.0350984 0
0 0.0367261 0
0 0.0380785 0
0 0.0391723 0
0 0.0400225 0
0 0.0406425 0
0 0.0410435 0
0 0.0412352 0
0 0.0412247 0
0 0.0410176 0
0 0.0406174 0
0 0.0400263 0
0 0.0392449 0
0 0.0382734 0
0 0.0371116 0
0 0.0357597 0
0 0.0342189 0
0 0.032492 0
0 0.0305844 0
0 0.0285043 0
0 0.0262635 0
0 0.0238781 0
0 0.0213685 0
0 0.0187602 0
0 0.0160835 0
0 0.0133741 0
0 0.0106727 0
0 0.00802593 0
0 0.0054868 0
0 0.00311703 0
0 0.000991419 0
0 0.00258375 0
0 0.00733169 0
0 0.0113611 0
0 0.0148596 0
0 0.0179328 0
0 0.0206438 0
0 0.0230331 0
0 0.0251288 0
0 0.0269527 0
0 0.0285225 0
0 0.0298542 0
0 0.0309618 0
0 0.0318584 0
0 0.0325557 0
0 0.033064 0
0 0.0333923 0
0 0.033548 0
0 0.033537 0
0 0.0333637 0
0 0.0330312 0
0 0.0325413 0
0 0.031895 0
0 0.0310927 0
0 0.0301348 0
0 0.029022 0
0 0.027756 0
0 0.0263396 0
0 0.0247777 0
0 0.0230778 0
0 0.02125 0
0 0.0193077 0
0 0.0172679 0
0 0.0151513 0
0 0.0129826 0
0 0.0107903 0
0 0.00860729 0
0 0.00647053 0
0 0.00442234 0
0 0.00251188 0
0 0.000798872 0
0 0.00208317 0
0 0.00591157 0
0 0.00916162 0
0 0.0119848 0
0 0.0144665 0
0 0.0166577 0
0 0.0185907 0
0 0.0202881 0
0 0.0217669 0
0 0.0230413 0
0 0.0241234 0
0 0.0250243 0
0 0.0257541 0
0 0.0263219 0
0 0.0267356 0
0 0.0270024 0
0 0.0271281 0
0 0.0271172 0
0 0.0269735 0
0 0.0266994 0
0 0.0262966 0
0 0.0257661 0
0 0.0251086 0
0 0.0243247 0
0 0.0234155 0
0 0.0223826 0
0 0.021229 0
0 0.019959 0
0 0.0185791 0
0 0.0170977 0
0 0.0155262 0
0 0.0138783 0
0 0.0121709 0
0 0.0104238 0
0 0.00866001 0
0 0.00690544 0
0 0.00518962 0
0 0.00354608 0
0 0.00201387 0
0 0.000640435 0
0 0.00166987 0
0 0.00473897 0
0 0.00734509 0
0 0.00960993 0
0 0.0116021 0
0 0.0133623 0
0 0.0149166 0
0 0.0162826 0
0 0.017474 0
0 0.0185016 0
0 0.0193751 0
0 0.0201029 0
0 0.0206928 0
0 0.0211518 0
0 0.0214863 0
0 0.0217015 0
0 0.0218022 0
0 0.021792 0
0 0.0216738 0
0 0.0214496 0
0 0.021121 0
0 0.0206888 0
0 0.020154 0
0 0.0195173 0
0 0.0187797 0
0 0.0179431 0
0 0.01701 0
0 0.0159843 0
0 0.0148715 0
0 0.0136787 0
0 0.0124151 0
0 0.011092 0
0 0.00972295 0
0 0.00832377 0
0 0.00691269 0
0 0.00551036 0
0 0.00414009 0
0 0.00282837 0
0 0.00160606 0
0 0.000510712 0
0 0.00133067 0
0 0.00377652 0
0 0.0058539 0
0 0.00765994 0
0 0.00924941 0
0 0.0106548 0
0 0.0118966 0
0 0.0129891 0
0 0.0139426 0
0 0.0147659 0
0 0.0154662 0
0 0.0160501 0
0 0.0165236 0
0 0.0168922 0
0 0.0171606 0
0 0.0173331 0
0 0.0174133 0
0 0.0174039 0
0 0.0173075 0
0 0.0171256 0
0 0.0168594 0
0 0.0165101 0
0 0.0160783 0
0 0.0155648 0
0 0.0149708 0
0 0.0142978 0
0 0.0135483 0
0 0.0127256 0
0 0.0118341 0
0 0.0108799 0
0 0.00987038 0
0 0.00881463 0
0 0.00772349 0
0 0.00660955 0
0 0.00548724 0
0 0.00437283 0
0 0.00328466 0
0 0.00224358 0
0 0.00127384 0
0 0.000405044 0
0 0.00105396 0
0 0.00299132 0
0 0.00463715 0
0 0.00606851 0
0 0.00732884 0
0 0.00844386 0
0 0.00942982 0
0 0.0102978 0
0 0.011056 0
0 0.0117111 0
0 0.0122688 0
0 0.0127341 0
0 0.0131116 0
0 0.0134054 0
0 0.0136194 0
0 0.0137566 0
0 0.01382 0
0 0.0138117 0
0 0.0137336 0
0 0.0135871 0
0 0.0133733 0
0 0.013093 0
0 0.0127469 0
0 0.0123358 0
0 0.0118608 0
0 0.0113234 0
0 0.0107255 0
0 0.01007 0
0 0.00936066 0
0 0.0086023 0
0 0.00780091 0
0 0.00696378 0
0 0.00609951 0
0 0.00521804 0
0 0.00433071 0
0 0.0034503 0
0 0.00259116 0
0 0.0017696 0
0 0.00100462 0
0 0.000319425 0
0 0.000829564 0
0 0.00235453 0
0 0.00365025 0
0 0.00477748 0
0 0.00577044 0
0 0.00664938 0
0 0.00742706 0
0 0.00811214 0
0 0.008711 0
0 0.00922878 0
0 0.00966981 0
0 0.010038 0
0 0.0103368 0
0 0.0105695 0
0 0.0107388 0
0 0.0108472 0
0 0.010897 0
0 0.0108898 0
0 0.0108271 0
0 0.01071 0
0 0.0105395 0
0 0.0103163 0
0 0.0100409 0
0 0.00971426 0
0 0.0093372 0
0 0.00891102 0
0 0.00843745 0
0 0.00791883 0
0 0.00735823 0
0 0.00675954 0
0 0.00612757 0
0 0.00546808 0
0 0.00478786 0
0 0.00409471 0
0 0.0033975 0
0 0.00270618 0
0 0.00203196 0
0 0.00138751 0
0 0.000787628 0
0 0.000250418 0
0 0.000648632 0
0 0.00184105 0
0 0.00285438 0
0 0.00373619 0
0 0.00451325 0
0 0.00520141 0
0 0.00581062 0
0 0.00634761 0
0 0.0068173 0
0 0.00722364 0
0 0.00756995 0
0 0.00785919 0
0 0.00809402 0
0 0.00827685 0
0 0.00840984 0
0 0.00849491 0
0 0.0085337 0
0 0.00852758 0
0 0.00847768 0
0 0.0083849 0
0 0.00824998 0
0 0.00807354 0
0 0.00785618 0
0 0.00759855 0
0 0.00730147 0
0 0.00696601 0
0 0.00659363 0
0 0.00618625 0
0 0.00574633 0
0 0.005277 0
0 0.00478205 0
0 0.00426602 0
0 0.00373423 0
0 0.00319275 0
0 0.00264848 0
0 0.00210914 0
0 0.0015834 0
0 0.00108108 0
0 0.00061363 0
0 0.000195089 0
0 0.000503523 0
0 0.00142922 0
0 0.002216 0
0 0.00290083 0
0 0.00350452 0
0 0.00403936 0
0 0.00451307 0
0 0.00493084 0
0 0.00529646 0
0 0.00561292 0
0 0.00588277 0
0 0.00610824 0
0 0.00629135 0
0 0.00643391 0
0 0.00653757 0
0 0.00660379 0
0 0.0066338 0
0 0.00662868 0
0 0.0065893 0
0 0.00651638 0
0 0.00641052 0
0 0.00627223 0
0 0.00610203 0
0 0.00590048 0
0 0.00566827 0
0 0.00540631 0
0 0.00511578 0
0 0.00479823 0
0 0.00445564 0
0 0.00409047 0
0 0.0037057 0
0 0.00330488 0
0 0.00289212 0
0 0.00247216 0
0 0.00205029 0
0 0.00163247 0
0 0.00122536 0
0 0.00083653 0
0 0.000474787 0
0 0.000150942 0
0 0.000387673 0
0 0.00110041 0
0 0.00170627 0
0 0.00223374 0
0 0.00269885 0
0 0.00311107 0
0 0.00347633 0
0 0.00379861 0
0 0.00408079 0
0 0.00432515 0
0 0.0045336 0
0 0.00470784 0
0 0.00484937 0
0 0.00495956 0
0 0.00503965 0
0 0.00509074 0
0 0.00511377 0
0 0.00510956 0
0 0.00507879 0
0 0.00502201 0
0 0.00493971 0
0 0.00483232 0
0 0.00470026 0
0 0.004544 0
0 0.00436412 0
0 0.00416135 0
0 0.00393667 0
0 0.00369129 0
0 0.00342678 0
0 0.00314506 0
0 0.00284845 0
0 0.00253971 0
0 0.00222199 0
0 0.00189892 0
0 0.00157457 0
0 0.00125349 0
0 0.000940768 0
0 0.000642179 0
0 0.000364456 0
0 0.000115862 0
0 0.000295472 0
0 0.00083872 0
0 0.00130055 0
0 0.00170271 0
0 0.00205741 0
0 0.00237189 0
0 0.00265064 0
0 0.00289669 0
0 0.00311222 0
0 0.00329894 0
0 0.00345828 0
0 0.00359151 0
0 0.00369974 0
0 0.00378401 0
0 0.00384524 0
0 0.00388424 0
0 0.00390174 0
0 0.00389834 0
0 0.00387457 0
0 0.00383086 0
0 0.00376759 0
0 0.00368511 0
0 0.00358376 0
0 0.00346393 0
0 0.00332608 0
0 0.00317081 0
0 0.00299888 0
0 0.00281126 0
0 0.00260916 0
0 0.00239407 0
0 0.00216777 0
0 0.00193236 0
0 0.00169027 0
0 0.00144423 0
0 0.00119734 0
0 0.000953043 0
0 0.000715194 0
0 0.000488156 0
0 0.000277027 0
0 8.80652e-05 0
0 0.000222141 0
0 0.000630576 0
0 0.000977835 0
0 0.00128027 0
0 0.00154708 0
0 0.0017837 0
0 0.00199351 0
0 0.00217877 0
0 0.00234111 0
0 0.0024818 0
0 0.0026019 0
0 0.00270234 0
0 0.00278396 0
0 0.0028475 0
0 0.00289365 0
0 0.00292301 0
0 0.00293612 0
0 0.00293344 0
0 0.00291535 0
0 0.0028822 0
0 0.00283427 0
0 0.00277183 0
0 0.00269517 0
0 0.00260459 0
0 0.00250046 0
0 0.00238324 0
0 0.00225354 0
0 0.00211209 0
0 0.00195982 0
0 0.00179787 0
0 0.00162759 0
0 0.00145055 0
0 0.00126858 0
0 0.00108374 0
0 0.00089834 0
0 0.000714959 0
0 0.000536472 0
0 0.000366141 0
0 0.000207773 0
0 6.60481e-05 0
0 0.00016361 0
0 0.000464435 0
0 0.000720223 0
0 0.000943026 0
0 0.00113963 0
0 0.00131402 0
0 0.0014687 0
0 0.00160532 0
0 0.00172507 0
0 0.00182888 0
0 0.00191753 0
0 0.00199168 0
0 0.00205194 0
0 0.00209886 0
0 0.00213292 0
0 0.00215457 0
0 0.00216419 0
0 0.00216213 0
0 0.00214867 0
0 0.00212407 0
0 0.00208853 0
0 0.00204228 0
0 0.00198552 0
0 0.0019185 0
0 0.00184149 0
0 0.00175486 0
0 0.00165905 0
0 0.00155462 0
0 0.00144227 0
0 0.00132284 0
0 0.00119733 0
0 0.00106691 0
0 0.000932917 0
0 0.00079687 0
0 0.000660462 0
0 0.000525582 0
0 0.000394338 0
0 0.000269117 0
0 0.000152708 0
0 4.85427e-05 0
0 0.0001164 0
0 0.000330426 0
0 0.000512422 0
0 0.000670967 0
0 0.000810889 0
0 0.000935031 0
0 0.00104516 0
0 0.00114246 0
0 0.00122777 0
0 0.00130174 0
0 0.00136492 0