# vtk DataFile Version 2.0
Velocidades
ASCII

DATASET STRUCTURED_GRID
DIMENSIONS   40   40   20

POINTS   32000   double
0.0125   0.0125   0.025
0.0125   0.0375   0.025
0.0125   0.0625   0.025
0.0125   0.0875   0.025
0.0125   0.1125   0.025
0.0125   0.1375   0.025
0.0125   0.1625   0.025
0.0125   0.1875   0.025
0.0125   0.2125   0.025
0.0125   0.2375   0.025
0.0125   0.2625   0.025
0.0125   0.2875   0.025
0.0125   0.3125   0.025
0.0125   0.3375   0.025
0.0125   0.3625   0.025
0.0125   0.3875   0.025
0.0125   0.4125   0.025
0.0125   0.4375   0.025
0.0125   0.4625   0.025
0.0125   0.4875   0.025
0.0125   0.5125   0.025
0.0125   0.5375   0.025
0.0125   0.5625   0.025
0.0125   0.5875   0.025
0.0125   0.6125   0.025
0.0125   0.6375   0.025
0.0125   0.6625   0.025
0.0125   0.6875   0.025
0.0125   0.7125   0.025
0.0125   0.7375   0.025
0.0125   0.7625   0.025
0.0125   0.7875   0.025
0.0125   0.8125   0.025
0.0125   0.8375   0.025
0.0125   0.8625   0.025
0.0125   0.8875   0.025
0.0125   0.9125   0.025
0.0125   0.9375   0.025
0.0125   0.9625   0.025
0.0125   0.9875   0.025
0.0375   0.0125   0.025
0.0375   0.0375   0.025
0.0375   0.0625   0.025
0.0375   0.0875   0.025
0.0375   0.1125   0.025
0.0375   0.1375   0.025
0.0375   0.1625   0.025
0.0375   0.1875   0.025
0.0375   0.2125   0.025
0.0375   0.2375   0.025
0.0375   0.2625   0.025
0.0375   0.2875   0.025
0.0375   0.3125   0.025
0.0375   0.3375   0.025
0.0375   0.3625   0.025
0.0375   0.3875   0.025
0.0375   0.4125   0.025
0.0375   0.4375   0.025
0.0375   0.4625   0.025
0.0375   0.4875   0.025
0.0375   0.5125   0.025
0.0375   0.5375   0.025
0.0375   0.5625   0.025
0.0375   0.5875   0.025
0.0375   0.6125   0.025
0.0375   0.6375   0.025
0.0375   0.6625   0.025
0.0375   0.6875   0.025
0.0375   0.7125   0.025
0.0375   0.7375   0.025
0.0375   0.7625   0.025
0.0375   0.7875   0.025
0.0375   0.8125   0.025
0.0375   0.8375   0.025
0.0375   0.8625   0.025
0.0375   0.8875   0.025
0.0375   0.9125   0.025
0.0375   0.9375   0.025
0.0375   0.9625   0.025
0.0375   0.9875   0.025
0.0625   0.0125   0.025
0.0625   0.0375   0.025
0.0625   0.0625   0.025
0.0625   0.0875   0.025
0.0625   0.1125   0.025
0.0625   0.1375   0.025
0.0625   0.1625   0.025
0.0625   0.1875   0.025
0.0625   0.2125   0.025
0.0625   0.2375   0.025
0.0625   0.2625   0.025
0.0625   0.2875   0.025
0.0625   0.3125   0.025
0.0625   0.3375   0.025
0.0625   0.3625   0.025
0.0625   0.3875   0.025
0.0625   0.4125   0.025
0.0625   0.4375   0.025
0.0625   0.4625   0.025
0.0625   0.4875   0.025
0.0625   0.5125   0.025
0.0625   0.5375   0.025
0.0625   0.5625   0.025
0.0625   0.5875   0.025
0.0625   0.6125   0.025
0.0625   0.6375   0.025
0.0625   0.6625   0.025
0.0625   0.6875   0.025
0.0625   0.7125   0.025
0.0625   0.7375   0.025
0.0625   0.7625   0.025
0.0625   0.7875   0.025
0.0625   0.8125   0.025
0.0625   0.8375   0.025
0.0625   0.8625   0.025
0.0625   0.8875   0.025
0.0625   0.9125   0.025
0.0625   0.9375   0.025
0.0625   0.9625   0.025
0.0625   0.9875   0.025
0.0875   0.0125   0.025
0.0875   0.0375   0.025
0.0875   0.0625   0.025
0.0875   0.0875   0.025
0.0875   0.1125   0.025
0.0875   0.1375   0.025
0.0875   0.1625   0.025
0.0875   0.1875   0.025
0.0875   0.2125   0.025
0.0875   0.2375   0.025
0.0875   0.2625   0.025
0.0875   0.2875   0.025
0.0875   0.3125   0.025
0.0875   0.3375   0.025
0.0875   0.3625   0.025
0.0875   0.3875   0.025
0.0875   0.4125   0.025
0.0875   0.4375   0.025
0.0875   0.4625   0.025
0.0875   0.4875   0.025
0.0875   0.5125   0.025
0.0875   0.5375   0.025
0.0875   0.5625   0.025
0.0875   0.5875   0.025
0.0875   0.6125   0.025
0.0875   0.6375   0.025
0.0875   0.6625   0.025
0.0875   0.6875   0.025
0.0875   0.7125   0.025
0.0875   0.7375   0.025
0.0875   0.7625   0.025
0.0875   0.7875   0.025
0.0875   0.8125   0.025
0.0875   0.8375   0.025
0.0875   0.8625   0.025
0.0875   0.8875   0.025
0.0875   0.9125   0.025
0.0875   0.9375   0.025
0.0875   0.9625   0.025
0.0875   0.9875   0.025
0.1125   0.0125   0.025
0.1125   0.0375   0.025
0.1125   0.0625   0.025
0.1125   0.0875   0.025
0.1125   0.1125   0.025
0.1125   0.1375   0.025
0.1125   0.1625   0.025
0.1125   0.1875   0.025
0.1125   0.2125   0.025
0.1125   0.2375   0.025
0.1125   0.2625   0.025
0.1125   0.2875   0.025
0.1125   0.3125   0.025
0.1125   0.3375   0.025
0.1125   0.3625   0.025
0.1125   0.3875   0.025
0.1125   0.4125   0.025
0.1125   0.4375   0.025
0.1125   0.4625   0.025
0.1125   0.4875   0.025
0.1125   0.5125   0.025
0.1125   0.5375   0.025
0.1125   0.5625   0.025
0.1125   0.5875   0.025
0.1125   0.6125   0.025
0.1125   0.6375   0.025
0.1125   0.6625   0.025
0.1125   0.6875   0.025
0.1125   0.7125   0.025
0.1125   0.7375   0.025
0.1125   0.7625   0.025
0.1125   0.7875   0.025
0.1125   0.8125   0.025
0.1125   0.8375   0.025
0.1125   0.8625   0.025
0.1125   0.8875   0.025
0.1125   0.9125   0.025
0.1125   0.9375   0.025
0.1125   0.9625   0.025
0.1125   0.9875   0.025
0.1375   0.0125   0.025
0.1375   0.0375   0.025
0.1375   0.0625   0.025
0.1375   0.0875   0.025
0.1375   0.1125   0.025
0.1375   0.1375   0.025
0.1375   0.1625   0.025
0.1375   0.1875   0.025
0.1375   0.2125   0.025
0.1375   0.2375   0.025
0.1375   0.2625   0.025
0.1375   0.2875   0.025
0.1375   0.3125   0.025
0.1375   0.3375   0.025
0.1375   0.3625   0.025
0.1375   0.3875   0.025
0.1375   0.4125   0.025
0.1375   0.4375   0.025
0.1375   0.4625   0.025
0.1375   0.4875   0.025
0.1375   0.5125   0.025
0.1375   0.5375   0.025
0.1375   0.5625   0.025
0.1375   0.5875   0.025
0.1375   0.6125   0.025
0.1375   0.6375   0.025
0.1375   0.6625   0.025
0.1375   0.6875   0.025
0.1375   0.7125   0.025
0.1375   0.7375   0.025
0.1375   0.7625   0.025
0.1375   0.7875   0.025
0.1375   0.8125   0.025
0.1375   0.8375   0.025
0.1375   0.8625   0.025
0.1375   0.8875   0.025
0.1375   0.9125   0.025
0.1375   0.9375   0.025
0.1375   0.9625   0.025
0.1375   0.9875   0.025
0.1625   0.0125   0.025
0.1625   0.0375   0.025
0.1625   0.0625   0.025
0.1625   0.0875   0.025
0.1625   0.1125   0.025
0.1625   0.1375   0.025
0.1625   0.1625   0.025
0.1625   0.1875   0.025
0.1625   0.2125   0.025
0.1625   0.2375   0.025
0.1625   0.2625   0.025
0.1625   0.2875   0.025
0.1625   0.3125   0.025
0.1625   0.3375   0.025
0.1625   0.3625   0.025
0.1625   0.3875   0.025
0.1625   0.4125   0.025
0.1625   0.4375   0.025
0.1625   0.4625   0.025
0.1625   0.4875   0.025
0.1625   0.5125   0.025
0.1625   0.5375   0.025
0.1625   0.5625   0.025
0.1625   0.5875   0.025
0.1625   0.6125   0.025
0.1625   0.6375   0.025
0.1625   0.6625   0.025
0.1625   0.6875   0.025
0.1625   0.7125   0.025
0.1625   0.7375   0.025
0.1625   0.7625   0.025
0.1625   0.7875   0.025
0.1625   0.8125   0.025
0.1625   0.8375   0.025
0.1625   0.8625   0.025
0.1625   0.8875   0.025
0.1625   0.9125   0.025
0.1625   0.9375   0.025
0.1625   0.9625   0.025
0.1625   0.9875   0.025
0.1875   0.0125   0.025
0.1875   0.0375   0.025
0.1875   0.0625   0.025
0.1875   0.0875   0.025
0.1875   0.1125   0.025
0.1875   0.1375   0.025
0.1875   0.1625   0.025
0.1875   0.1875   0.025
0.1875   0.2125   0.025
0.1875   0.2375   0.025
0.1875   0.2625   0.025
0.1875   0.2875   0.025
0.1875   0.3125   0.025
0.1875   0.3375   0.025
0.1875   0.3625   0.025
0.1875   0.3875   0.025
0.1875   0.4125   0.025
0.1875   0.4375   0.025
0.1875   0.4625   0.025
0.1875   0.4875   0.025
0.1875   0.5125   0.025
0.1875   0.5375   0.025
0.1875   0.5625   0.025
0.1875   0.5875   0.025
0.1875   0.6125   0.025
0.1875   0.6375   0.025
0.1875   0.6625   0.025
0.1875   0.6875   0.025
0.1875   0.7125   0.025
0.1875   0.7375   0.025
0.1875   0.7625   0.025
0.1875   0.7875   0.025
0.1875   0.8125   0.025
0.1875   0.8375   0.025
0.1875   0.8625   0.025
0.1875   0.8875   0.025
0.1875   0.9125   0.025
0.1875   0.9375   0.025
0.1875   0.9625   0.025
0.1875   0.9875   0.025
0.2125   0.0125   0.025
0.2125   0.0375   0.025
0.2125   0.0625   0.025
0.2125   0.0875   0.025
0.2125   0.1125   0.025
0.2125   0.1375   0.025
0.2125   0.1625   0.025
0.2125   0.1875   0.025
0.2125   0.2125   0.025
0.2125   0.2375   0.025
0.2125   0.2625   0.025
0.2125   0.2875   0.025
0.2125   0.3125   0.025
0.2125   0.3375   0.025
0.2125   0.3625   0.025
0.2125   0.3875   0.025
0.2125   0.4125   0.025
0.2125   0.4375   0.025
0.2125   0.4625   0.025
0.2125   0.4875   0.025
0.2125   0.5125   0.025
0.2125   0.5375   0.025
0.2125   0.5625   0.025
0.2125   0.5875   0.025
0.2125   0.6125   0.025
0.2125   0.6375   0.025
0.2125   0.6625   0.025
0.2125   0.6875   0.025
0.2125   0.7125   0.025
0.2125   0.7375   0.025
0.2125   0.7625   0.025
0.2125   0.7875   0.025
0.2125   0.8125   0.025
0.2125   0.8375   0.025
0.2125   0.8625   0.025
0.2125   0.8875   0.025
0.2125   0.9125   0.025
0.2125   0.9375   0.025
0.2125   0.9625   0.025
0.2125   0.9875   0.025
0.2375   0.0125   0.025
0.2375   0.0375   0.025
0.2375   0.0625   0.025
0.2375   0.0875   0.025
0.2375   0.1125   0.025
0.2375   0.1375   0.025
0.2375   0.1625   0.025
0.2375   0.1875   0.025
0.2375   0.2125   0.025
0.2375   0.2375   0.025
0.2375   0.2625   0.025
0.2375   0.2875   0.025
0.2375   0.3125   0.025
0.2375   0.3375   0.025
0.2375   0.3625   0.025
0.2375   0.3875   0.025
0.2375   0.4125   0.025
0.2375   0.4375   0.025
0.2375   0.4625   0.025
0.2375   0.4875   0.025
0.2375   0.5125   0.025
0.2375   0.5375   0.025
0.2375   0.5625   0.025
0.2375   0.5875   0.025
0.2375   0.6125   0.025
0.2375   0.6375   0.025
0.2375   0.6625   0.025
0.2375   0.6875   0.025
0.2375   0.7125   0.025
0.2375   0.7375   0.025
0.2375   0.7625   0.025
0.2375   0.7875   0.025
0.2375   0.8125   0.025
0.2375   0.8375   0.025
0.2375   0.8625   0.025
0.2375   0.8875   0.025
0.2375   0.9125   0.025
0.2375   0.9375   0.025
0.2375   0.9625   0.025
0.2375   0.9875   0.025
0.2625   0.0125   0.025
0.2625   0.0375   0.025
0.2625   0.0625   0.025
0.2625   0.0875   0.025
0.2625   0.1125   0.025
0.2625   0.1375   0.025
0.2625   0.1625   0.025
0.2625   0.1875   0.025
0.2625   0.2125   0.025
0.2625   0.2375   0.025
0.2625   0.2625   0.025
[...]
POINT_DATA   32000
VECTORS Velocidades double

8.39066e-05 0.00250748 0
0.000326079 0.00468933 0
0.000197953 0.00416624 0
6.8545e-05 0.00390039 0
-1.80883e-05 0.0038497 0
-7.32855e-05 0.00393964 0
-0.000110794 0.00412092 0
-0.000139494 0.00436691 0
-0.000164355 0.00466484 0
-0.000188059 0.00500958 0
-0.000212079 0.00540012 0
-0.000237302 0.00583778 0
-0.000264346 0.00632538 0
-0.000293726 0.00686681 0
-0.000325949 0.00746699 0
-0.00036156 0.00813184 0
-0.000401194 0.00886841 0
-0.000445613 0.00968514 0
-0.000495761 0.0105921 0
-0.000552832 0.0116015 0
-0.000618368 0.0127281 0
-0.000694394 0.0139904 0
-0.00078363 0.0154112 0
-0.000889802 0.01702 0
-0.00101814 0.018855 0
-0.00117616 0.0209668 0
-0.00137498 0.0234248 0
-0.00163144 0.026326 0
-0.00197146 0.0298099 0
-0.00243535 0.0340822 0
-0.00308529 0.039451 0
-0.00401556 0.0463814 0
-0.00536553 0.0555738 0
-0.00733752 0.0680741 0
-0.0102255 0.0854313 0
-0.0144459 0.109918 0
-0.0203698 0.144613 0
-0.0263861 0.191376 0
-0.0151873 0.233175 0
0.124872 0.124272 0
0.000184625 0.00491725 0
0.00071839 0.00976861 0
0.000448511 0.00965049 0
0.000105968 0.00962967 0
-0.000162139 0.00978706 0
-0.000356181 0.0101223 0
-0.000501827 0.0106108 0
-0.000620993 0.0112307 0
-0.00072809 0.0119685 0
-0.000831863 0.0128185 0
-0.000937622 0.0137811 0
-0.00104882 0.0148604 0
-0.00116801 0.0160635 0
-0.00129739 0.0174002 0
-0.00143916 0.0188825 0
-0.0015957 0.0205246 0
-0.00176976 0.0223439 0
-0.00196466 0.0243608 0
-0.00218451 0.0265997 0
-0.00243447 0.0290899 0
-0.00272122 0.0318671 0
-0.00305345 0.0349753 0
-0.00344278 0.0384691 0
-0.00390499 0.0424176 0
-0.00446194 0.0469097 0
-0.00514456 0.0520613 0
-0.00599747 0.0580268 0
-0.00708616 0.0650145 0
-0.00850753 0.0733099 0
-0.0104044 0.0833056 0
-0.0129825 0.0955384 0
-0.0165257 0.110722 0
-0.0213958 0.129751 0
-0.0279976 0.153604 0
-0.0366587 0.183006 0
-0.0472462 0.217461 0
-0.0576358 0.252648 0
-0.0567127 0.2735 0
0.00733224 0.239917 0
0.351331 0.10118 0
0.000158638 0.00626701 0
0.000635089 0.0126844 0
0.000339712 0.012997 0
-0.000124301 0.0133591 0
-0.000550744 0.0138224 0
-0.000902034 0.0144226 0
-0.00119339 0.0151709 0
-0.00144861 0.016068 0
-0.00168728 0.0171127 0
-0.00192314 0.0183063 0
-0.00216554 0.0196535 0
-0.00242116 0.0211619 0
-0.00269532 0.0228424 0
-0.0029928 0.0247085 0
-0.00331847 0.0267769 0
-0.00367765 0.0290671 0
-0.00407653 0.0316023 0
-0.00452252 0.0344101 0
-0.00502477 0.0375229 0
-0.00559476 0.0409796 0
-0.00624716 0.0448272 0
-0.00700102 0.0491225 0
-0.0078815 0.0539355 0
-0.00892233 0.0593531 0
-0.0101695 0.0654847 0
-0.0116868 0.0724692 0
-0.0135635 0.080485 0
-0.0159264 0.0897621 0
-0.018954 0.100597 0
-0.0228937 0.113364 0
-0.0280708 0.12852 0
-0.0348719 0.146566 0
-0.0436568 0.167928 0
-0.0545198 0.192635 0
-0.0667297 0.219611 0
-0.077413 0.245207 0
-0.0780558 0.260487 0
-0.0440388 0.247401 0
0.0956019 0.180384 0
0.518199 0.0649778 0
4.11816e-05 0.00703302 0
0.000231891 0.0143213 0
-0.000124138 0.0148805 0
-0.000656174 0.0155188 0
-0.00119007 0.0162314 0
-0.00167389 0.017047 0
-0.00210925 0.0179902 0
-0.00251398 0.0190774 0
-0.00290676 0.0203193 0
-0.00330282 0.0217251 0
-0.00371385 0.0233043 0
-0.00414908 0.0250684 0
-0.00461646 0.0270308 0
-0.00512353 0.0292075 0
-0.00567815 0.0316175 0
-0.00628902 0.0342827 0
-0.00696625 0.037229 0
-0.00772193 0.0404865 0
-0.00857088 0.0440904 0
-0.00953158 0.0480826 0
-0.0106274 0.0525123 0
-0.0118885 0.0574386 0
-0.013354 0.0629326 0
-0.0150755 0.0690803 0
-0.0171223 0.0759863 0
-0.0195877 0.0837788 0
-0.022599 0.0926138 0
-0.0263293 0.10268 0
-0.0310106 0.1142 0
-0.0369408 0.127421 0
-0.0444675 0.142584 0
-0.0539065 0.159833 0
-0.0653194 0.179021 0
-0.0780075 0.199308 0
-0.089473 0.218403 0
-0.0933468 0.231329 0
-0.0750837 0.228894 0
-0.00259142 0.197565 0
0.19175 0.127289 0
0.624625 0.0409119 0
-0.000118483 0.00742381 0
-0.000306148 0.0151343 0
-0.000791743 0.0157884 0
-0.00139584 0.0165654 0
-0.00201435 0.0174251 0
-0.00260832 0.0183769 0
-0.00317521 0.0194426 0
-0.00372712 0.0206431 0
-0.00427942 0.0219952 0
-0.00484636 0.0235131 0
-0.00544019 0.0252102 0
-0.00607166 0.0271003 0
-0.00675077 0.0291987 0
-0.00748748 0.0315223 0
-0.00829247 0.0340907 0
-0.00917769 0.0369262 0
-0.010157 0.0400545 0
-0.011247 0.043505 0
-0.0124678 0.0473119 0
-0.0138442 0.0515145 0
-0.0154073 0.0561586 0
-0.0171968 0.0612973 0
-0.019263 0.0669928 0
-0.0216717 0.0733175 0
-0.0245086 0.0803556 0
-0.0278865 0.0882041 0
-0.031954 0.0969726 0
-0.0369051 0.10678 0
-0.0429847 0.117745 0
-0.0504796 0.129964 0
-0.0596659 0.143456 0
-0.0706545 0.158058 0
-0.0830293 0.173217 0
-0.0951031 0.187606 0
-0.102536 0.198524 0
-0.0959533 0.201113 0
-0.0570192 0.187967 0
0.0477384 0.150898 0
0.273946 0.0889145 0
0.692156 0.0262037 0
-0.000287064 0.00755923 0
-0.000867953 0.0153987 0
-0.00153304 0.0160583 0
-0.00223501 0.0168732 0
-0.0029399 0.0177903 0
-0.0036352 0.0188038 0
-0.00432379 0.019927 0
-0.00501609 0.021178 0
-0.00572482 0.0225746 0
-0.00646263 0.0241327 0
-0.00724147 0.0258673 0
-0.00807274 0.0277934 0
-0.00896785 0.0299265 0
-0.0099387 0.0322837 0
-0.0109983 0.0348838 0
-0.0121613 0.037748 0
-0.0134449 0.0408999 0
-0.0148691 0.0443662 0
-0.0164586 0.0481772 0
-0.0182429 0.0523666 0
-0.0202589 0.0569728 0
-0.0225526 0.0620385 0
-0.0251818 0.0676114 0
-0.0282201 0.0737441 0
-0.0317613 0.0804933 0
-0.0359252 0.0879178 0
-0.0408645 0.0960748 0
-0.0467689 0.105012 0
-0.0538626 0.11475 0
-0.0623756 0.125258 0
-0.0724556 0.136392 0
-0.0839457 0.147793 0
-0.0959058 0.158704 0
-0.105695 0.167658 0
-0.107419 0.172068 0
-0.0896077 0.167856 0
-0.0322426 0.149752 0
0.0961906 0.113581 0
0.338763 0.0625203 0
0.73588 0.0171992 0
-0.000447863 0.00751599 0
-0.00140068 0.0152906 0
-0.00226946 0.0159132 0
-0.00309394 0.0167081 0
-0.00389698 0.0176225 0
-0.00469449 0.0186423 0
-0.00550006 0.0197726 0
-0.00632628 0.021027 0
-0.00718515 0.0224208 0
-0.00808828 0.0239692 0
-0.00904718 0.0256871 0
-0.0100735 0.0275891 0
-0.0111796 0.0296904 0
-0.0123788 0.0320068 0
-0.0136858 0.0345559 0
-0.0151173 0.0373565 0
-0.0166929 0.0404292 0
-0.0184353 0.0437968 0
-0.0203719 0.047484 0
-0.0225355 0.0515177 0
-0.0249661 0.0559268 0
-0.0277128 0.0607419 0
-0.0308364 0.0659946 0
-0.0344121 0.0717162 0
-0.0385337 0.0779355 0
-0.0433175 0.0846753 0
-0.0489058 0.0919458 0
-0.055467 0.099735 0
-0.0631824 0.107991 0
-0.0722022 0.116594 0
-0.0825246 0.125304 0
-0.0937186 0.133671 0
-0.104357 0.140885 0
-0.110994 0.145549 0
-0.106569 0.145431 0
-0.0783596 0.137379 0
-0.00606654 0.117927 0
0.138645 0.0854481 0
0.388418 0.0445799 0
0.764925 0.0115991 0
-0.000594782 0.0073434 0
-0.00188565 0.0149201 0
-0.0029633 0.0154912 0
-0.00392579 0.0162389 0
-0.00483852 0.0171165 0
-0.00574251 0.0181067 0
-0.00666338 0.0192095 0
-0.00761822 0.0204337 0
-0.00862006 0.0217916 0
-0.0096804 0.0232962 0
-0.0108106 0.024961 0
-0.0120225 0.0267996 0
-0.013329 0.0288258 0
-0.0147444 0.031054 0
-0.0162845 0.0334995 0
-0.0179676 0.0361784 0
-0.0198144 0.0391079 0
-0.0218494 0.0423061 0
-0.0241012 0.0457919 0
-0.026604 0.0495848 0
-0.0293986 0.0537042 0
-0.0325341 0.0581685 0
-0.0360701 0.0629941 0
-0.0400787 0.068193 0
-0.0446472 0.0737698 0
-0.0498806 0.0797174 0
-0.0559021 0.0860102 0
-0.0628484 0.0925935 0
-0.0708491 0.0993682 0
-0.0799681 0.106165 0
-0.0900573 0.112701 0
-0.100436 0.118507 0
-0.109265 0.122812 0
-0.112466 0.124388 0
-0.102175 0.121419 0
-0.0650386 0.111587 0
0.0187599 0.0927579 0
0.174264 0.0647608 0
0.426183 0.0323809 0
0.784768 0.00805713 0
-0.000727 0.00707237 0
-0.0023208 0.014354 0
-0.00360113 0.0148721 0
-0.00470752 0.0155628 0
-0.00573689 0.0163865 0
-0.00675063 0.017326 0
-0.00778562 0.0183787 0
-0.00886424 0.0195499 0
-0.0100016 0.0208485 0
-0.0112099 0.0222856 0
-0.0125007 0.0238727 0
-0.0138861 0.0256215 0
-0.0153794 0.0275443 0
-0.0169953 0.0296535 0
-0.0187504 0.031962 0
-0.0206636 0.034483 0
-0.0227564 0.0372301 0
-0.0250536 0.0402168 0
-0.027584 0.0434564 0
-0.0303813 0.0469613 0
-0.033485 0.0507421 0
-0.036942 0.0548068 0
-0.0408074 0.0591584 0
-0.0451467 0.0637932 0
-0.0500366 0.0686972 0
-0.0555663 0.0738414 0
-0.0618352 0.0791755 0
-0.0689451 0.0846189 0
-0.0769729 0.0900473 0
-0.0859007 0.0952713 0
-0.0954495 0.100002 0
-0.104727 0.103793 0
-0.11156 0.105958 0
-0.111401 0.105466 0
-0.0958662 0.100893 0
-0.0513788 0.0905866 0
0.0410619 0.0733211 0
0.20356 0.0496786 0
0.455012 0.0240295 0
0.798742 0.00577697 0
-0.000846033 0.00672194 0
-0.00271129 0.0136317 0
-0.00418284 0.0140999 0
-0.00543214 0.0147317 0
-0.00658016 0.0154938 0
-0.00770442 0.0163709 0
-0.00885146 0.0173591 0
-0.0100489 0.0184613 0
-0.0113143 0.0196845 0
-0.012661 0.021037 0
-0.0141011 0.0225286 0
-0.0156469 0.0241693 0
-0.0173121 0.0259692 0
-0.0191117 0.0279389 0
-0.0210624 0.0300887 0
-0.0231832 0.0324291 0
-0.0254956 0.03497 0
-0.0280238 0.037721 0
-0.0307958 0.0406901 0
-0.0338435 0.0438837 0
-0.0372037 0.0473052 0
-0.040919 0.0509535 0
-0.0450383 0.0548218 0
-0.0496181 0.0588945 0
-0.0547224 0.0631444 0
-0.0604225 0.0675284 0
-0.0667936 0.0719821 0
-0.073903 0.076412 0
-0.0817787 0.080685 0
-0.0903301 0.0846115 0
-0.0991669 0.0879184 0
-0.107222 0.0902054 0
-0.112062 0.0908836 0
-0.108796 0.0891124 0
-0.0887284 0.0837982 0
-0.0382991 0.0737885 0
0.0605807 0.0584398 0
0.22755 0.0386674 0
0.477296 0.018243 0
0.808924 0.0042792 0
-0.000953145 0.00630411 0
-0.00306098 0.0127768 0
-0.0047088 0.0131989 0
-0.00609452 0.0137725 0
-0.0073582 0.0144699 0
-0.00859021 0.0152777 0
-0.00984506 0.0161921 0
-0.011155 0.0172146 0
-0.01254 0.0183502 0
-0.0140147 0.0196056 0
-0.0155919 0.0209887 0
-0.0172842 0.0225077 0
-0.0191054 0.0241709 0
-0.0210705 0.0259867 0
-0.0231962 0.0279634 0
-0.0255011 0.0301086 0
-0.028006 0.0324295 0
-0.030734 0.0349317 0
-0.0337113 0.0376193 0
-0.0369673 0.0404935 0
-0.0405348 0.043552 0
-0.0444512 0.0467874 0
-0.0487581 0.0501855 0
-0.0535017 0.0537229 0
-0.058733 0.0573645 0
-0.0645057 0.0610595 0
-0.0708714 0.0647375 0
-0.0778664 0.0683017 0
-0.085476 0.0716217 0
-0.0935486 0.0745197 0
-0.101602 0.0767499 0
-0.108431 0.0779656 0
-0.1114 0.0776749 0
-0.105379 0.0752039 0
-0.0814935 0.069722 0
-0.0263284 0.0604322 0
0.0773338 0.0470444 0
0.247136 0.030564 0
0.494716 0.0141549 0
0.816562 0.00326171 0
-0.00104912 0.00582797 0
-0.00337259 0.0118068 0
-0.00517987 0.0121853 0
-0.00669184 0.0127016 0
-0.0080644 0.0133327 0
-0.00939829 0.0140671 0
-0.0107545 0.0149012 0
-0.012169 0.0158359 0
-0.0136642 0.0168751 0
-0.0152558 0.0180239 0
-0.0169571 0.0192885 0
-0.0187812 0.0206756 0
-0.0207418 0.0221919 0
-0.0228539 0.0238439 0
-0.0251337 0.0256377 0
-0.0275992 0.027579 0
-0.0302701 0.0296722 0
-0.0331679 0.0319201 0
-0.0363165 0.0343233 0
-0.039742 0.0368796 0
-0.0434731 0.0395826 0
-0.047541 0.0424205 0
-0.0519797 0.0453746 0
-0.0568256 0.0484173 0
-0.0621165 0.0515095 0
-0.0678897 0.0545981 0
-0.0741761 0.0576121 0
-0.0809849 0.0604587 0
-0.088266 0.0630162 0
-0.095818 0.0651247 0
-0.103086 0.0665701 0
-0.108755 0.0670583 0
-0.110041 0.0661848 0
-0.101647 0.0634134 0
-0.0746084 0.0581148 0
-0.0157053 0.0497397 0
0.091509 0.0382049 0
0.263096 0.0244865 0
0.508466 0.0111998 0
0.822429 0.00255444 0
-0.00113494 0.00529998 0
-0.00364969 0.010734 0
-0.0055997 0.0110702 0
-0.00722638 0.0115299 0
-0.00869916 0.0120934 0
-0.0101273 0.0127514 0
-0.0115771 0.0135006 0
-0.0130876 0.0143417 0
-0.014683 0.0152776 0
-0.0163801 0.0163124 0
-0.0181928 0.0174509 0
-0.0201344 0.0186984 0
-0.0222187 0.0200602 0
-0.0244601 0.0215412 0
-0.0268745 0.0231459 0
-0.0294789 0.0248781 0
-0.0322917 0.0267403 0
-0.0353327 0.028733 0
-0.038623 0.0308548 0
-0.0421854 0.0331007 0
-0.0460439 0.0354621 0
-0.0502241 0.0379246 0
-0.0547523 0.0404675 0
-0.0596554 0.0430617 0
-0.0649593 0.0456677 0
-0.0706869 0.0482336 0
-0.0768508 0.0506923 0
-0.083438 0.0529583 0
-0.0903691 0.0549226 0
-0.0974026 0.0564458 0
-0.103925 0.0573448 0
-0.108538 0.0573741 0
-0.108342 0.0562028 0
-0.0979242 0.0534049 0
-0.0682849 0.0485006 0
-0.00641146 0.0411088 0
0.103479 0.0312588 0
0.276193 0.0198405 0
0.519488 0.00900225 0
0.827059 0.00204243 0
-0.00121099 0.00472586 0
-0.0038936 0.00956924 0
-0.00596931 0.0098639 0
-0.00769801 0.0102669 0
-0.0092608 0.0107618 0
-0.0107741 0.0113409 0
-0.0123083 0.0120017 0
-0.0139052 0.0127446 0
-0.0155903 0.0135719 0
-0.0173814 0.0144869 0
-0.0192927 0.0154933 0
-0.0213376 0.0165954 0
-0.0235299 0.017797 0
-0.0258838 0.0191021 0
-0.0284144 0.0205138 0
-0.0311377 0.0220345 0
-0.0340707 0.0236652 0
-0.0372311 0.0254052 0
-0.0406378 0.0272516 0
-0.0443098 0.0291982 0
-0.048267 0.0312351 0
-0.0525292 0.0333475 0
-0.0571159 0.0355144 0
-0.0620452 0.0377075 0
-0.0673328 0.0398894 0
-0.0729889 0.042012 0
-0.0790111 0.0440146 0
-0.0853679 0.0458215 0
-0.0919565 0.0473379 0
-0.0985031 0.0484446 0
-0.104348 0.0489879 0
-0.108024 0.0487637 0
-0.106548 0.0475017 0
-0.0944223 0.0448608 0
-0.0626424 0.0404701 0
0.00160469 0.0340596 0
0.113542 0.025713 0
0.286976 0.0162125 0
0.528414 0.0073209 0
0.830777 0.00165753 0
-0.00127741 0.00411102 0
-0.00410481 0.00832311 0
-0.00628899 0.00857619 0
-0.00810629 0.00892208 0
-0.00974788 0.00934725 0
-0.0113361 0.00984553 0
-0.0129448 0.010415 0
-0.0146177 0.0110561 0
-0.0163815 0.0117707 0
-0.0182546 0.0125613 0
-0.0202516 0.0134311 0
-0.0223861 0.0143832 0
-0.0246715 0.0154208 0
-0.0271217 0.0165466 0
-0.0297512 0.017763 0
-0.0325751 0.0190714 0
-0.0356089 0.0204721 0
-0.0388685 0.0219636 0
-0.0423702 0.0235425 0
-0.04613 0.0252023 0
-0.0501637 0.0269332 0
-0.054486 0.0287212 0
-0.0591103 0.0305467 0
-0.0640473 0.0323839 0
-0.0693037 0.0341991 0
-0.0748792 0.0359502 0
-0.0807591 0.0375842 0
-0.0868969 0.0390362 0
-0.0931707 0.0402261 0
-0.099281 0.0410538 0
-0.10453 0.0413911 0
-0.107398 0.041069 0
-0.104831 0.039865 0
-0.0912731 0.0375021 0
-0.0577298 0.0336871 0
0.00843035 0.0282213 0
0.121961 0.0212072 0
0.295869 0.0133169 0
0.535695 0.00599887 0
0.833798 0.00135821 0
-0.00133415 0.00346079 0
-0.00428338 0.00700606 0
-0.00655857 0.00721722 0
-0.00845057 0.00750534 0
-0.0101591 0.00785961 0
-0.0118113 0.0082753 0
-0.0134838 0.0087511 0
-0.0152218 0.00928751 0
-0.0170529 0.00988608 0
-0.0189959 0.0105489 0
-0.0210658 0.0112785 0
-0.0232762 0.0120773 0
-0.0256403 0.0129477 0
-0.0281717 0.0138921 0
-0.0308843 0.0149121 0
-0.0337921 0.0160086 0
-0.0369097 0.0171817 0
-0.0402511 0.0184297 0
-0.0438305 0.0197494 0
-0.0476611 0.021135 0
-0.0517551 0.0225779 0
-0.0561231 0.0240657 0
-0.0607731 0.0255816 0
-0.0657095 0.0271036 0
-0.0709319 0.0286033 0
-0.0764311 0.0300452 0
-0.0821824 0.0313853 0
-0.0881274 0.0325698 0
-0.0941286 0.0335327 0
-0.0998651 0.0341914 0
-0.104608 0.0344397 0
-0.106792 0.0341369 0
-0.103309 0.0330977 0
-0.0885573 0.0310923 0
-0.0535571 0.0278812 0
0.0141617 0.02331 0
0.12896 0.0174786 0
0.303199 0.0109555 0
0.541659 0.0049325 0
0.836271 0.00111837 0
-0.00138105 0.00278046 0
-0.00442904 0.00562865 0
-0.00677763 0.00579737 0
-0.00873007 0.00602695 0
-0.0104931 0.00630919 0
-0.0121979 0.00664077 0
-0.0139231 0.00702096 0
-0.0157149 0.00745035 0
-0.0176017 0.00793029 0
-0.0196025 0.00846253 0
-0.0217325 0.00904905 0
-0.0240054 0.00969191 0
-0.0264344 0.0103931 0
-0.0290326 0.0111545 0
-0.0318135 0.0119775 0
-0.0347904 0.0128629 0
-0.0379768 0.0138109 0
-0.0413854 0.0148203 0
-0.0450285 0.0158887 0
-0.0489172 0.0170116 0
-0.0530608 0.0181824 0
-0.0574662 0.0193913 0
-0.0621374 0.0206254 0
-0.0670738 0.0218672 0
-0.0722687 0.0230946 0
-0.0777064 0.0242796 0
-0.0833541 0.0253877 0
-0.0891433 0.0263762 0
-0.094924 0.0271924 0
-0.100357 0.0277694 0
-0.104687 0.0280196 0
-0.106309 0.0278251 0
-0.102067 0.0270283 0
-0.0863234 0.0254332 0
-0.0501147 0.0228363 0
0.0188901 0.0191081 0
0.134723 0.0143341 0
0.309216 0.00898819 0
0.546543 0.00405171 0
0.838298 0.000921099 0
-0.00141794 0.00207541 0
-0.00454143 0.00420154 0
-0.00694562 0.00432724 0
-0.00894402 0.0044975 0
-0.010749 0.00470669 0
-0.0124946 0.00495283 0
-0.0142609 0.00523577 0
-0.016095 0.00555623 0
-0.0180255 0.00591541 0
-0.0200719 0.00631481 0
-0.0222494 0.00675606 0
-0.0245718 0.0072409 0
-0.0270522 0.00777107 0
-0.0297036 0.00834821 0
-0.032539 0.00897375 0
-0.0355715 0.00964878 0
-0.0388136 0.0103738 0
-0.0422771 0.0111487 0
-0.045973 0.0119722 0
-0.0499106 0.0128418 0
-0.0540972 0.0137535 0
-0.0585371 0.014701 0
-0.063231 0.0156756 0
-0.0681745 0.0166655 0
-0.0733566 0.0176554 0
-0.0787558 0.0186256 0
-0.0843332 0.019551 0
-0.0900122 0.0204002 0
-0.0956318 0.0211333 0
-0.100837 0.0216975 0
-0.104847 0.0220208 0
-0.106022 0.0220031 0
-0.101165 0.0215071 0
-0.0846016 0.0203598 0
-0.0473855 0.0183798 0
0.0226952 0.0154487 0
0.139396 0.0116308 0
0.314112 0.00731502 0
0.550522 0.00330814 0
0.839953 0.000755164 0
-0.00144457 0.00135104 0
-0.00462012 0.00273552 0
-0.00706196 0.00281764 0
-0.00909168 0.00292784 0
-0.0109258 0.00306306 0
-0.0127001 0.00322263 0
-0.0144958 0.00340697 0
-0.0163603 0.00361692 0
-0.0183226 0.00385361 0
-0.0204022 0.0041183 0
-0.0226147 0.00441239 0
-0.0249737 0.0047374 0
-0.0274924 0.00509493 0
-0.0301839 0.00548662 0
-0.033061 0.00591407 0
-0.0361365 0.00637879 0
-0.0394225 0.00688209 0
-0.0429304 0.00742497 0
-0.0466703 0.00800793 0
-0.0506505 0.00863083 0
-0.054877 0.00929265 0
-0.0593524 0.00999119 0
-0.0640753 0.0107227 0
-0.0690386 0.0114817 0
-0.0742281 0.01226 0
-0.0796185 0.0130468 0
-0.0851657 0.013827 0
-0.0907865 0.0145805 0
-0.0963101 0.0152795 0
-0.101366 0.0158845 0
-0.105151 0.016337 0
-0.105992 0.0165508 0
-0.100647 0.0164026 0
-0.0834136 0.0157334 0
-0.0453536 0.0143727 0
0.0256419 0.0122027 0
0.143093 0.0092619 0
0.318029 0.00586374 0
0.553727 0.00266849 0
0.841293 0.000613371 0
-0.0014613 0.000612742 0
-0.0046666 0.00124143 0
-0.00712906 0.00127946 0
-0.00917612 0.00132899 0
-0.0110269 0.00138948 0
-0.0128183 0.00146157 0
-0.014632 0.00154619 0
-0.0165154 0.00164435 0
-0.0184978 0.00175707 0
-0.0205989 0.00188546 0
-0.0228342 0.00203072 0
-0.0252176 0.00219421 0
-0.0277626 0.00237747 0
-0.0304821 0.00258223 0
-0.0333893 0.00281038 0
-0.0364969 0.00306401 0
-0.039817 0.00334539 0
-0.043361 0.00365691 0
-0.0471388 0.00400106 0
-0.0511584 0.00438034 0
-0.0554253 0.00479721 0
-0.0599415 0.00525386 0
-0.0647045 0.00575208 0
-0.0697059 0.00629293 0
-0.0749294 0.00687636 0
-0.0803473 0.00750062 0
-0.0859115 0.00816133 0
-0.0915332 0.00884998 0
-0.0970322 0.00955118 0
-0.102023 0.010238 0
-0.105677 0.0108645 0
-0.106285 0.0113553 0
-0.100562 0.0115966 0
-0.0827663 0.0114356 0
-0.0439671 0.0107028 0
0.0278528 0.00927109 0
0.146001 0.00714895 0
0.321183 0.00458278 0
0.556336 0.00211069 0
0.842394 0.000492021 0
-0.00146756 -0.000134252 0
-0.00467875 -0.000270118 0
-0.00714369 -0.000276421 0
-0.00919323 -0.00028794 0
-0.0110475 -0.000302701 0
-0.0128437 -0.000318808 0
-0.0146632 -0.000334776 0
-0.0165535 -0.000349468 0
-0.0185437 -0.00036193 0
-0.0206537 -0.000371237 0
-0.0228992 -0.000376362 0
-0.0252942 -0.000376082 0
-0.0278525 -0.000368904 0
-0.0305874 -0.000352989 0
-0.0335124 -0.000326089 0
-0.0366404 -0.000285473 0
-0.0399842 -0.000227859 0
-0.0435555 -0.000149337 0
-0.0473647 -4.53046e-05 0
-0.0514204 8.95933e-05 0
-0.0557284 0.000261496 0
-0.0602909 0.000477327 0
-0.0651058 0.000744727 0
-0.0701646 0.0010719 0
-0.0754504 0.0014673 0
-0.0809343 0.0019391 0
-0.0865656 0.0024942 0
-0.0922509 0.0031365 0
-0.0978014 0.00386376 0
-0.102816 0.00466222 0
-0.10644 0.005498 0
-0.106925 0.00630569 0
-0.10094 0.00697735 0
-0.0826999 0.00736049 0
-0.0432719 0.00727807 0
0.0292841 0.00658244 0
0.148088 0.00524164 0
0.323563 0.00343348 0
0.558352 0.00159714 0
0.843249 0.000371818 0
-0.00146253 -0.000883251 0
-0.00465437 -0.00178595 0
-0.00710258 -0.00183712 0
-0.00913886 -0.00191024 0
-0.0109828 -0.00200084 0
-0.0127708 -0.00210577 0
-0.0145834 -0.00222303 0
-0.0164678 -0.0023514 0
-0.0184529 -0.00249001 0
-0.0205586 -0.00263817 0
-0.0228008 -0.00279506 0
-0.0251938 -0.00295964 0
-0.0277516 -0.00313049 0
-0.0304882 -0.00330572 0
-0.0334175 -0.00348275 0
-0.0365534 -0.00365826 0
-0.0399093 -0.00382797 0
-0.0434979 -0.00398645 0
-0.047331 -0.00412699 0
-0.0514181 -0.00424135 0
-0.0557666 -0.00431957 0
-0.0603803 -0.00434984 0