# vtk DataFile Version 2.0
Velocidades
ASCII

DATASET STRUCTURED_GRID
DIMENSIONS   40   40   10

POINTS   16000   double
0.0125   0.0125   0.05
0.0125   0.0375   0.05
0.0125   0.0625   0.05
0.0125   0.0875   0.05
0.0125   0.1125   0.05
0.0125   0.1375   0.05
0.0125   0.1625   0.05
0.0125   0.1875   0.05
0.0125   0.2125   0.05
0.0125   0.2375   0.05
0.0125   0.2625   0.05
0.0125   0.2875   0.05
0.0125   0.3125   0.05
0.0125   0.3375   0.05
0.0125   0.3625   0.05
0.0125   0.3875   0.05
0.0125   0.4125   0.05
0.0125   0.4375   0.05
0.0125   0.4625   0.05
0.0125   0.4875   0.05
0.0125   0.5125   0.05
0.0125   0.5375   0.05
0.0125   0.5625   0.05
0.0125   0.5875   0.05
0.0125   0.6125   0.05
0.0125   0.6375   0.05
0.0125   0.6625   0.05
0.0125   0.6875   0.05
0.0125   0.7125   0.05
0.0125   0.7375   0.05
0.0125   0.7625   0.05
0.0125   0.7875   0.05
0.0125   0.8125   0.05
0.0125   0.8375   0.05
0.0125   0.8625   0.05
0.0125   0.8875   0.05
0.0125   0.9125   0.05
0.0125   0.9375   0.05
0.0125   0.9625   0.05
0.0125   0.9875   0.05
0.0375   0.0125   0.05
0.0375   0.0375   0.05
0.0375   0.0625   0.05
0.0375   0.0875   0.05
0.0375   0.1125   0.05
0.0375   0.1375   0.05
0.0375   0.1625   0.05
0.0375   0.1875   0.05
0.0375   0.2125   0.05
0.0375   0.2375   0.05
0.0375   0.2625   0.05
0.0375   0.2875   0.05
0.0375   0.3125   0.05
0.0375   0.3375   0.05
0.0375   0.3625   0.05
0.0375   0.3875   0.05
0.0375   0.4125   0.05
0.0375   0.4375   0.05
0.0375   0.4625   0.05
0.0375   0.4875   0.05
0.0375   0.5125   0.05
0.0375   0.5375   0.05
0.0375   0.5625   0.05
0.0375   0.5875   0.05
0.0375   0.6125   0.05
0.0375   0.6375   0.05
0.0375   0.6625   0.05
0.0375   0.6875   0.05
0.0375   0.7125   0.05
0.0375   0.7375   0.05
0.0375   0.7625   0.05
0.0375   0.7875   0.05
0.0375   0.8125   0.05
0.0375   0.8375   0.05
0.0375   0.8625   0.05
0.0375   0.8875   0.05
0.0375   0.9125   0.05
0.0375   0.9375   0.05
0.0375   0.9625   0.05
0.0375   0.9875   0.05
0.0625   0.0125   0.05
0.0625   0.0375   0.05
0.0625   0.0625   0.05
0.0625   0.0875   0.05
0.0625   0.1125   0.05
0.0625   0.1375   0.05
0.0625   0.1625   0.05
0.0625   0.1875   0.05
0.0625   0.2125   0.05
0.0625   0.2375   0.05
0.0625   0.2625   0.05
0.0625   0.2875   0.05
0.0625   0.3125   0.05
0.0625   0.3375   0.05
0.0625   0.3625   0.05
0.0625   0.3875   0.05
0.0625   0.4125   0.05
0.0625   0.4375   0.05
0.0625   0.4625   0.05
0.0625   0.4875   0.05
0.0625   0.5125   0.05
0.0625   0.5375   0.05
0.0625   0.5625   0.05
0.0625   0.5875   0.05
0.0625   0.6125   0.05
0.0625   0.6375   0.05
0.0625   0.6625   0.05
0.0625   0.6875   0.05
0.0625   0.7125   0.05
0.0625   0.7375   0.05
0.0625   0.7625   0.05
0.0625   0.7875   0.05
0.0625   0.8125   0.05
0.0625   0.8375   0.05
0.0625   0.8625   0.05
0.0625   0.8875   0.05
0.0625   0.9125   0.05
0.0625   0.9375   0.05
0.0625   0.9625   0.05
0.0625   0.9875   0.05
0.0875   0.0125   0.05
0.0875   0.0375   0.05
0.0875   0.0625   0.05
0.0875   0.0875   0.05
0.0875   0.1125   0.05
0.0875   0.1375   0.05
0.0875   0.1625   0.05
0.0875   0.1875   0.05
0.0875   0.2125   0.05
0.0875   0.2375   0.05
0.0875   0.2625   0.05
0.0875   0.2875   0.05
0.0875   0.3125   0.05
0.0875   0.3375   0.05
0.0875   0.3625   0.05
0.0875   0.3875   0.05
0.0875   0.4125   0.05
0.0875   0.4375   0.05
0.0875   0.4625   0.05
0.0875   0.4875   0.05
0.0875   0.5125   0.05
0.0875   0.5375   0.05
0.0875   0.5625   0.05
0.0875   0.5875   0.05
0.0875   0.6125   0.05
0.0875   0.6375   0.05
0.0875   0.6625   0.05
0.0875   0.6875   0.05
0.0875   0.7125   0.05
0.0875   0.7375   0.05
0.0875   0.7625   0.05
0.0875   0.7875   0.05
0.0875   0.8125   0.05
0.0875   0.8375   0.05
0.0875   0.8625   0.05
0.0875   0.8875   0.05
0.0875   0.9125   0.05
0.0875   0.9375   0.05
0.0875   0.9625   0.05
0.0875   0.9875   0.05
0.1125   0.0125   0.05
0.1125   0.0375   0.05
0.1125   0.0625   0.05
0.1125   0.0875   0.05
0.1125   0.1125   0.05
0.1125   0.1375   0.05
0.1125   0.1625   0.05
0.1125   0.1875   0.05
0.1125   0.2125   0.05
0.1125   0.2375   0.05
0.1125   0.2625   0.05
0.1125   0.2875   0.05
0.1125   0.3125   0.05
0.1125   0.3375   0.05
0.1125   0.3625   0.05
0.1125   0.3875   0.05
0.1125   0.4125   0.05
0.1125   0.4375   0.05
0.1125   0.4625   0.05
0.1125   0.4875   0.05
0.1125   0.5125   0.05
0.1125   0.5375   0.05
0.1125   0.5625   0.05
0.1125   0.5875   0.05
0.1125   0.6125   0.05
0.1125   0.6375   0.05
0.1125   0.6625   0.05
0.1125   0.6875   0.05
0.1125   0.7125   0.05
0.1125   0.7375   0.05
0.1125   0.7625   0.05
0.1125   0.7875   0.05
0.1125   0.8125   0.05
0.1125   0.8375   0.05
0.1125   0.8625   0.05
0.1125   0.8875   0.05
0.1125   0.9125   0.05
0.1125   0.9375   0.05
0.1125   0.9625   0.05
0.1125   0.9875   0.05
0.1375   0.0125   0.05
0.1375   0.0375   0.05
0.1375   0.0625   0.05
0.1375   0.0875   0.05
0.1375   0.1125   0.05
0.1375   0.1375   0.05
0.1375   0.1625   0.05
0.1375   0.1875   0.05
0.1375   0.2125   0.05
0.1375   0.2375   0.05
0.1375   0.2625   0.05
0.1375   0.2875   0.05
0.1375   0.3125   0.05
0.1375   0.3375   0.05
0.1375   0.3625   0.05
0.1375   0.3875   0.05
0.1375   0.4125   0.05
0.1375   0.4375   0.05
0.1375   0.4625   0.05
0.1375   0.4875   0.05
0.1375   0.5125   0.05
0.1375   0.5375   0.05
0.1375   0.5625   0.05
0.1375   0.5875   0.05
0.1375   0.6125   0.05
0.1375   0.6375   0.05
0.1375   0.6625   0.05
0.1375   0.6875   0.05
0.1375   0.7125   0.05
0.1375   0.7375   0.05
0.1375   0.7625   0.05
0.1375   0.7875   0.05
0.1375   0.8125   0.05
0.1375   0.8375   0.05
0.1375   0.8625   0.05
0.1375   0.8875   0.05
0.1375   0.9125   0.05
0.1375   0.9375   0.05
0.1375   0.9625   0.05
0.1375   0.9875   0.05
0.1625   0.0125   0.05
0.1625   0.0375   0.05
0.1625   0.0625   0.05
0.1625   0.0875   0.05
0.1625   0.1125   0.05
0.1625   0.1375   0.05
0.1625   0.1625   0.05
0.1625   0.1875   0.05
0.1625   0.2125   0.05
0.1625   0.2375   0.05
0.1625   0.2625   0.05
0.1625   0.2875   0.05
0.1625   0.3125   0.05
0.1625   0.3375   0.05
0.1625   0.3625   0.05
0.1625   0.3875   0.05
0.1625   0.4125   0.05
0.1625   0.4375   0.05
0.1625   0.4625   0.05
0.1625   0.4875   0.05
0.1625   0.5125   0.05
0.1625   0.5375   0.05
0.1625   0.5625   0.05
0.1625   0.5875   0.05
0.1625   0.6125   0.05
0.1625   0.6375   0.05
0.1625   0.6625   0.05
0.1625   0.6875   0.05
0.1625   0.7125   0.05
0.1625   0.7375   0.05
0.1625   0.7625   0.05
0.1625   0.7875   0.05
0.1625   0.8125   0.05
0.1625   0.8375   0.05
0.1625   0.8625   0.05
0.1625   0.8875   0.05
0.1625   0.9125   0.05
0.1625   0.9375   0.05
0.1625   0.9625   0.05
0.1625   0.9875   0.05
0.1875   0.0125   0.05
0.1875   0.0375   0.05
0.1875   0.0625   0.05
0.1875   0.0875   0.05
0.1875   0.1125   0.05
0.1875   0.1375   0.05
0.1875   0.1625   0.05
0.1875   0.1875   0.05
0.1875   0.2125   0.05
0.1875   0.2375   0.05
0.1875   0.2625   0.05
0.1875   0.2875   0.05
0.1875   0.3125   0.05
0.1875   0.3375   0.05
0.1875   0.3625   0.05
0.1875   0.3875   0.05
0.1875   0.4125   0.05
0.1875   0.4375   0.05
0.1875   0.4625   0.05
0.1875   0.4875   0.05
0.1875   0.5125   0.05
0.1875   0.5375   0.05
0.1875   0.5625   0.05
0.1875   0.5875   0.05
0.1875   0.6125   0.05
0.1875   0.6375   0.05
0.1875   0.6625   0.05
0.1875   0.6875   0.05
0.1875   0.7125   0.05
0.1875   0.7375   0.05
0.1875   0.7625   0.05
0.1875   0.7875   0.05
0.1875   0.8125   0.05
0.1875   0.8375   0.05
0.1875   0.8625   0.05
0.1875   0.8875   0.05
0.1875   0.9125   0.05
0.1875   0.9375   0.05
0.1875   0.9625   0.05
0.1875   0.9875   0.05
0.2125   0.0125   0.05
0.2125   0.0375   0.05
0.2125   0.0625   0.05
0.2125   0.0875   0.05
0.2125   0.1125   0.05
0.2125   0.1375   0.05
0.2125   0.1625   0.05
0.2125   0.1875   0.05
0.2125   0.2125   0.05
0.2125   0.2375   0.05
0.2125   0.2625   0.05
0.2125   0.2875   0.05
0.2125   0.3125   0.05
0.2125   0.3375   0.05
0.2125   0.3625   0.05
0.2125   0.3875   0.05
0.2125   0.4125   0.05
0.2125   0.4375   0.05
0.2125   0.4625   0.05
0.2125   0.4875   0.05
0.2125   0.5125   0.05
0.2125   0.5375   0.05
0.2125   0.5625   0.05
0.2125   0.5875   0.05
0.2125   0.6125   0.05
0.2125   0.6375   0.05
0.2125   0.6625   0.05
0.2125   0.6875   0.05
0.2125   0.7125   0.05
0.2125   0.7375   0.05
0.2125   0.7625   0.05
0.2125   0.7875   0.05
0.2125   0.8125   0.05
0.2125   0.8375   0.05
0.2125   0.8625   0.05
0.2125   0.8875   0.05
0.2125   0.9125   0.05
0.2125   0.9375   0.05
0.2125   0.9625   0.05
0.2125   0.9875   0.05
0.2375   0.0125   0.05
0.2375   0.0375   0.05
0.2375   0.0625   0.05
0.2375   0.0875   0.05
0.2375   0.1125   0.05
0.2375   0.1375   0.05
0.2375   0.1625   0.05
0.2375   0.1875   0.05
0.2375   0.2125   0.05
0.2375   0.2375   0.05
0.2375   0.2625   0.05
0.2375   0.2875   0.05
0.2375   0.3125   0.05
0.2375   0.3375   0.05
0.2375   0.3625   0.05
0.2375   0.3875   0.05
0.2375   0.4125   0.05
0.2375   0.4375   0.05
0.2375   0.4625   0.05
0.2375   0.4875   0.05
0.2375   0.5125   0.05
0.2375   0.5375   0.05
0.2375   0.5625   0.05
0.2375   0.5875   0.05
0.2375   0.6125   0.05
0.2375   0.6375   0.05
0.2375   0.6625   0.05
0.2375   0.6875   0.05
0.2375   0.7125   0.05
0.2375   0.7375   0.05
0.2375   0.7625   0.05
0.2375   0.7875   0.05
0.2375   0.8125   0.05
0.2375   0.8375   0.05
0.2375   0.8625   0.05
0.2375   0.8875   0.05
0.2375   0.9125   0.05
0.2375   0.9375   0.05
0.2375   0.9625   0.05
0.2375   0.9875   0.05
0.2625   0.0125   0.05
0.2625   0.0375   0.05
0.2625   0.0625   0.05
0.2625   0.0875   0.05
0.2625   0.1125   0.05
0.2625   0.1375   0.05
0.2625   0.1625   0.05
0.2625   0.1875   0.05
0.2625   0.2125   0.05
0.2625   0.2375   0.05
0.2625   0.2625   0.05
0.2625   0.2875   0.05
0.2625   0.3125   0.05
0.2625   0.3375   0.05
0.2625   0.3625   0.05
0.2625   0.3875   0.05
0.2625   0.4125   0.05
0.2625   0.4375   0.05
0.2625   0.4625   0.05
0.2625   0.4875   0.05
0.2625   0.5125   0.05
0.2625   0.5375   0.05
0.2625   0.5625   0.05
0.2625   0.5875   0.05
0.2625   0.6125   0.05
0.2625   0.6375   0.05
0.2625   0.6625   0.05
0.2625   0.6875   0.05
0.2625   0.7125   0.05
[...]
POINT_DATA   16000
VECTORS Velocidades double

0 0.321018 0
0 0.733467 0
0 0.857754 0
0 0.90561 0
0 0.928886 0
0 0.942346 0
0 0.951051 0
0 0.957093 0
0 0.961482 0
0 0.964769 0
0 0.96728 0
0 0.969222 0
0 0.970728 0
0 0.971891 0
0 0.972775 0
0 0.973425 0
0 0.973873 0
0 0.974141 0
0 0.974243 0
0 0.974187 0
0 0.973977 0
0 0.97361 0
0 0.973079 0
0 0.972371 0
0 0.971467 0
0 0.970339 0
0 0.968949 0
0 0.967245 0
0 0.965154 0
0 0.962575 0
0 0.959358 0
0 0.955283 0
0 0.950001 0
0 0.942929 0
0 0.933005 0
0 0.918047 0
0 0.892817 0
0 0.84229 0
0 0.715261 0
0 0.311319 0
0 0.187094 0
0 0.481118 0
0 0.646994 0
0 0.740201 0
0 0.795834 0
0 0.831418 0
0 0.855581 0
0 0.872773 0
0 0.885439 0
0 0.895006 0
0 0.902357 0
0 0.908061 0
0 0.912499 0
0 0.915933 0
0 0.918547 0
0 0.920471 0
0 0.921797 0
0 0.92259 0
0 0.922891 0
0 0.922726 0
0 0.922101 0
0 0.921011 0
0 0.919435 0
0 0.917336 0
0 0.914657 0
0 0.911318 0
0 0.90721 0
0 0.902184 0
0 0.896032 0
0 0.888467 0
0 0.879075 0
0 0.867251 0
0 0.852071 0
0 0.832062 0
0 0.804743 0
0 0.765686 0
0 0.706513 0
0 0.61078 0
0 0.44723 0
0 0.17171 0
0 0.126979 0
0 0.347264 0
0 0.503816 0
0 0.609555 0
0 0.68118 0
0 0.730885 0
0 0.766415 0
0 0.792531 0
0 0.812182 0
0 0.82724 0
0 0.838924 0
0 0.848055 0
0 0.855195 0
0 0.86074 0
0 0.864972 0
0 0.868093 0
0 0.870247 0
0 0.871535 0
0 0.872023 0
0 0.871749 0
0 0.870727 0
0 0.868947 0
0 0.866377 0
0 0.862957 0
0 0.8586 0
0 0.853183 0
0 0.846537 0
0 0.838433 0
0 0.82856 0
0 0.816491 0
0 0.80163 0
0 0.78313 0
0 0.759753 0
0 0.729652 0
0 0.689986 0
0 0.636327 0
0 0.561779 0
0 0.456181 0
0 0.307264 0
0 0.110201 0
0 0.0950909 0
0 0.268249 0
0 0.405853 0
0 0.509507 0
0 0.586201 0
0 0.643053 0
0 0.685667 0
0 0.718065 0
0 0.743035 0
0 0.7625 0
0 0.777796 0
0 0.789859 0
0 0.799357 0
0 0.806771 0
0 0.812451 0
0 0.816651 0
0 0.819553 0
0 0.821288 0
0 0.821941 0
0 0.821563 0
0 0.820171 0
0 0.817753 0
0 0.814267 0
0 0.809639 0
0 0.803758 0
0 0.796468 0
0 0.787557 0
0 0.776746 0
0 0.763657 0
0 0.747787 0
0 0.728453 0
0 0.704724 0
0 0.675313 0
0 0.638428 0
0 0.591577 0
0 0.531358 0
0 0.453392 0
0 0.35284 0
0 0.226566 0
0 0.0784083 0
0 0.0757442 0
0 0.217141 0
0 0.336505 0
0 0.432766 0
0 0.508566 0
0 0.567734 0
0 0.613931 0
0 0.650171 0
0 0.678778 0
0 0.701485 0
0 0.719574 0
0 0.733991 0
0 0.745434 0
0 0.75442 0
0 0.761335 0
0 0.766463 0
0 0.770013 0
0 0.772135 0
0 0.772927 0
0 0.772449 0
0 0.770722 0
0 0.767733 0
0 0.763435 0
0 0.757743 0
0 0.750531 0
0 0.741624 0
0 0.73079 0
0 0.717722 0
0 0.70202 0
0 0.683161 0
0 0.660463 0
0 0.633037 0
0 0.599724 0
0 0.559031 0
0 0.509083 0
0 0.447658 0
0 0.372432 0
0 0.281698 0
0 0.175865 0
0 0.0597092 0
0 0.0627703 0
0 0.181557 0
0 0.285429 0
0 0.372981 0
0 0.44504 0
0 0.50357 0
0 0.550836 0
0 0.588954 0
0 0.619717 0
0 0.644569 0
0 0.664644 0
0 0.680819 0
0 0.693766 0
0 0.704 0
0 0.711913 0
0 0.717802 0
0 0.721887 0
0 0.724326 0
0 0.725228 0
0 0.724657 0
0 0.722637 0
0 0.719156 0
0 0.714164 0
0 0.707572 0
0 0.699249 0
0 0.689014 0
0 0.676631 0
0 0.661793 0
0 0.644108 0
0 0.623083 0
0 0.598098 0
0 0.568381 0
0 0.532991 0
0 0.490808 0
0 0.440576 0
0 0.381028 0
0 0.311183 0
0 0.230896 0
0 0.141687 0
0 0.0475883 0
0 0.0534134 0
0 0.15531 0
0 0.246382 0
0 0.325445 0
0 0.392615 0
0 0.448862 0
0 0.495543 0
0 0.534087 0
0 0.565815 0
0 0.591869 0
0 0.613196 0
0 0.630564 0
0 0.644586 0
0 0.655743 0
0 0.664415 0
0 0.670891 0
0 0.675391 0
0 0.678076 0
0 0.679057 0
0 0.6784 0
0 0.676133 0
0 0.672244 0
0 0.666685 0
0 0.659368 0
0 0.650164 0
0 0.6389 0
0 0.625347 0
0 0.60922 0
0 0.590161 0
0 0.567735 0
0 0.541416 0
0 0.510585 0
0 0.474536 0
0 0.432502 0
0 0.383731 0
0 0.32762 0
0 0.263963 0
0 0.193297 0
0 0.117317 0
0 0.0391476 0
0 0.0462961 0
0 0.135065 0
0 0.215545 0
0 0.286848 0
0 0.348842 0
0 0.40198 0
0 0.44706 0
0 0.485025 0
0 0.516818 0
0 0.543311 0
0 0.565266 0
0 0.583327 0
0 0.598029 0
0 0.609806 0
0 0.619003 0
0 0.625896 0
0 0.630694 0
0 0.633554 0
0 0.634584 0
0 0.633852 0
0 0.631385 0
0 0.627175 0
0 0.621177 0
0 0.613311 0
0 0.603455 0
0 0.591451 0
0 0.577091 0
0 0.560122 0
0 0.540237 0
0 0.517072 0
0 0.49021 0
0 0.459184 0
0 0.423504 0
0 0.382693 0
0 0.336364 0
0 0.284337 0
0 0.22681 0
0 0.164564 0
0 0.0991485 0
0 0.0329476 0
0 0.0406629 0
0 0.118895 0
0 0.190517 0
0 0.254894 0
0 0.311831 0
0 0.361519 0
0 0.40442 0
0 0.441146 0
0 0.472358 0
0 0.498704 0
0 0.520782 0
0 0.539114 0
0 0.554153 0
0 0.566274 0
0 0.575786 0
0 0.582938 0
0 0.587925 0
0 0.590892 0
0 0.591944 0
0 0.591146 0
0 0.588526 0
0 0.58408 0
0 0.577769 0
0 0.56952 0
0 0.559229 0
0 0.546753 0
0 0.531915 0
0 0.514501 0
0 0.494259 0
0 0.470902 0
0 0.444116 0
0 0.413575 0
0 0.378963 0
0 0.340024 0
0 0.296617 0
0 0.248812 0
0 0.196996 0
0 0.141987 0
0 0.0851133 0
0 0.0282048 0
0 0.0360667 0
0 0.10562 0
0 0.169737 0
0 0.227977 0
0 0.280152 0
0 0.326324 0
0 0.366754 0
0 0.401834 0
0 0.432023 0
0 0.457792 0
0 0.479599 0
0 0.497861 0
0 0.512948 0
0 0.525178 0
0 0.534819 0
0 0.54209 0
0 0.547166 0
0 0.55018 0
0 0.55123 0
0 0.550377 0
0 0.54765 0
0 0.543049 0
0 0.53654 0
0 0.528064 0
0 0.517532 0
0 0.504824 0
0 0.489796 0
0 0.472272 0
0 0.452059 0
0 0.42894 0
0 0.402695 0
0 0.373112 0
0 0.340014 0
0 0.303299 0
0 0.262986 0
0 0.219278 0
0 0.172634 0
0 0.123823 0
0 0.0739563 0
0 0.0244597 0
0 0.0322268 0
0 0.0944815 0
0 0.15216 0
0 0.204962 0
0 0.252731 0
0 0.295468 0
0 0.333316 0
0 0.366522 0
0 0.395399 0
0 0.420288 0
0 0.441532 0
0 0.459456 0
0 0.474359 0
0 0.486503 0
0 0.496115 0
0 0.503384 0
0 0.508464 0
0 0.511474 0
0 0.512501 0
0 0.511605 0
0 0.508813 0
0 0.504129 0
0 0.497528 0
0 0.488963 0
0 0.478361 0
0 0.465628 0
0 0.450648 0
0 0.433291 0
0 0.413409 0
0 0.390854 0
0 0.365481 0
0 0.337171 0
0 0.305847 0
0 0.271512 0
0 0.23428 0
0 0.194422 0
0 0.152402 0
0 0.108913 0
0 0.0648774 0
0 0.0214266 0
0 0.0289581 0
0 0.0849692 0
0 0.137059 0
0 0.185029 0
0 0.228756 0
0 0.268216 0
0 0.303481 0
0 0.334705 0
0 0.362098 0
0 0.385903 0
0 0.406373 0
0 0.423759 0
0 0.438297 0
0 0.450199 0
0 0.459654 0
0 0.466821 0
0 0.471833 0
0 0.474794 0
0 0.475784 0
0 0.474855 0
0 0.472037 0
0 0.467335 0
0 0.460734 0
0 0.452197 0
0 0.441671 0
0 0.429084 0
0 0.414351 0
0 0.397375 0
0 0.378056 0
0 0.3563 0
0 0.332024 0
0 0.305177 0
0 0.275756 0
0 0.24383 0
0 0.209568 0
0 0.173262 0
0 0.135358 0
0 0.0964622 0
0 0.0573456 0
0 0.0189191 0
0 0.0261333 0
0 0.0767293 0
0 0.123918 0
0 0.167576 0
0 0.207608 0
0 0.243982 0
0 0.276729 0
0 0.305943 0
0 0.331763 0
0 0.354356 0
0 0.373911 0
0 0.390615 0
0 0.404651 0
0 0.416191 0
0 0.425387 0
0 0.432372 0
0 0.437259 0
0 0.440138 0
0 0.441078 0
0 0.440128 0
0 0.437316 0
0 0.432652 0
0 0.426129 0
0 0.417721 0
0 0.40739 0
0 0.395087 0
0 0.380753 0
0 0.364323 0
0 0.345736 0
0 0.32494 0
0 0.301902 0
0 0.276621 0
0 0.249142 0
0 0.219577 0
0 0.188119 0
0 0.155063 0
0 0.120818 0
0 0.0859137 0
0 0.0509959 0
0 0.0168107 0
0 0.0236622 0
0 0.0695078 0
0 0.112362 0
0 0.152152 0
0 0.188809 0
0 0.2223 0
0 0.252634 0
0 0.279863 0
0 0.304076 0
0 0.325389 0
0 0.343937 0
0 0.35986 0
0 0.373299 0
0 0.384386 0
0 0.393246 0
0 0.399988 0
0 0.404705 0
0 0.407474 0
0 0.408357 0
0 0.407396 0
0 0.40462 0
0 0.400042 0
0 0.39366 0
0 0.385461 0
0 0.375422 0
0 0.36351 0
0 0.349691 0
0 0.333927 0
0 0.316188 0
0 0.296456 0
0 0.274734 0
0 0.251056 0
0 0.225501 0
0 0.198202 0
0 0.169362 0
0 0.139264 0
0 0.108278 0
0 0.0768651 0
0 0.04557 0
0 0.0150126 0
0 0.0214786 0
0 0.0631177 0
0 0.102108 0
0 0.138414 0
0 0.171987 0
0 0.202798 0
0 0.23084 0
0 0.256141 0
0 0.278756 0
0 0.298762 0
0 0.316254 0
0 0.331334 0
0 0.344109 0
0 0.354682 0
0 0.36315 0
0 0.369603 0
0 0.374117 0
0 0.376757 0
0 0.377577 0
0 0.376615 0
0 0.373899 0
0 0.369445 0
0 0.363256 0
0 0.35533 0
0 0.345655 0
0 0.334216 0
0 0.320995 0
0 0.305979 0
0 0.289162 0
0 0.270552 0
0 0.250178 0
0 0.228098 0
0 0.20441 0
0 0.179259 0
0 0.152846 0
0 0.125436 0
0 0.0973601 0
0 0.06902 0
0 0.04088 0
0 0.0134609 0
0 0.019533 0
0 0.0574178 0
0 0.0929428 0
0 0.126097 0
0 0.156849 0
0 0.185171 0
0 0.211053 0
0 0.234505 0
0 0.255556 0
0 0.274258 0
0 0.290674 0
0 0.304878 0
0 0.316949 0
0 0.326966 0
0 0.335006 0
0 0.341138 0
0 0.345426 0
0 0.347925 0
0 0.348679 0
0 0.347725 0
0 0.345089 0
0 0.340789 0
0 0.334834 0
0 0.327228 0
0 0.317971 0
0 0.307061 0
0 0.294497 0
0 0.280281 0
0 0.264427 0
0 0.246962 0
0 0.227934 0
0 0.207416 0
0 0.185517 0
0 0.162384 0
0 0.138211 0
0 0.113242 0
0 0.087774 0
0 0.0621558 0
0 0.0367862 0
0 0.0121081 0
0 0.0177874 0
0 0.0522994 0
0 0.0846983 0
0 0.11499 0
0 0.143157 0
0 0.169175 0
0 0.193029 0
0 0.214719 0
0 0.23426 0
0 0.251681 0
0 0.267024 0
0 0.280341 0
0 0.291689 0
0 0.301127 0
0 0.308714 0
0 0.314505 0
0 0.318553 0
0 0.320902 0
0 0.321591 0
0 0.320653 0
0 0.318113 0
0 0.313989 0
0 0.308297 0
0 0.301047 0
0 0.292246 0
0 0.281903 0
0 0.27003 0
0 0.256642 0
0 0.241768 0
0 0.225447 0
0 0.20774 0
0 0.188729 0
0 0.168528 0
0 0.14728 0
0 0.12517 0
0 0.102421 0
0 0.0792961 0
0 0.056102 0
0 0.0331827 0
0 0.0109186 0
0 0.0162122 0
0 0.0476773 0
0 0.0772427 0
0 0.104927 0
0 0.13072 0
0 0.154604 0
0 0.176561 0
0 0.196584 0
0 0.214677 0
0 0.230855 0
0 0.245144 0
0 0.257579 0
0 0.268199 0
0 0.277049 0
0 0.284172 0
0 0.289613 0
0 0.293413 0
0 0.295609 0
0 0.296234 0
0 0.295318 0
0 0.292885 0
0 0.288956 0
0 0.283548 0
0 0.276676 0
0 0.268355 0
0 0.258601 0
0 0.247436 0
0 0.234886 0
0 0.220988 0
0 0.205792 0
0 0.189365 0
0 0.171795 0
0 0.153194 0
0 0.133702 0
0 0.11349 0
0 0.092761 0
0 0.0717501 0
0 0.0507258 0
0 0.0299876 0
0 0.00986469 0
0 0.0147836 0
0 0.043483 0
0 0.0704699 0
0 0.0957702 0
0 0.119381 0
0 0.141288 0
0 0.161473 0
0 0.179925 0
0 0.19664 0
0 0.211623 0
0 0.224888 0
0 0.236457 0
0 0.246358 0
0 0.25462 0
0 0.261278 0
0 0.266365 0
0 0.269914 0
0 0.271957 0
0 0.272521 0
0 0.271633 0
0 0.269317 0
0 0.265593 0
0 0.260482 0
0 0.254002 0
0 0.246173 0
0 0.237019 0
0 0.226566 0
0 0.214849 0
0 0.20191 0
0 0.187807 0
0 0.17261 0
0 0.156407 0
0 0.139309 0
0 0.121447 0
0 0.102981 0
0 0.0840939 0
0 0.0649955 0
0 0.0459225 0
0 0.0271367 0
0 0.00892495 0
0 0.0134824 0
0 0.0396612 0
0 0.0642928 0
0 0.0874082 0
0 0.109009 0
0 0.129084 0
0 0.147617 0
0 0.164592 0
0 0.180001 0
0 0.193842 0
0 0.206121 0
0 0.216849 0
0 0.226045 0
0 0.23373 0
0 0.239927 0
0 0.244663 0
0 0.247964 0
0 0.249856 0
0 0.250362 0
0 0.249508 0
0 0.247314 0
0 0.243802 0
0 0.238995 0
0 0.232913 0
0 0.225581 0
0 0.217025 0
0 0.207278 0
0 0.196378 0
0 0.184373 0
0 0.171322 0
0 0.157297 0
0 0.142386 0
0 0.126694 0
0 0.110346 0
0 0.093486 0
0 0.0762812 0
0 0.0589189 0
0 0.041608 0
0 0.0245787 0
0 0.0080822 0
0 0.012293 0
0 0.0361661 0
0 0.0586395 0
0 0.0797471 0
0 0.099494 0
0 0.117871 0
0 0.134861 0
0 0.150451 0
0 0.164627 0
0 0.177382 0
0 0.188717 0
0 0.198637 0
0 0.20715 0
0 0.214272 0
0 0.220019 0
0 0.224411 0
0 0.227469 0
0 0.229214 0
0 0.229667 0
0 0.228848 0
0 0.226781 0
0 0.223485 0
0 0.218984 0
0 0.213301 0
0 0.206461 0
0 0.198496 0
0 0.18944 0
0 0.179335 0
0 0.16823 0
0 0.156186 0
0 0.143274 0
0 0.129578 0
0 0.1152 0
0 0.100254 0
0 0.0848739 0
0 0.0692091 0
0 0.0534274 0
0 0.0377141 0
0 0.022272 0
0 0.00732261 0
0 0.011202 0
0 0.0329593 0
0 0.0534495 0
0 0.0727074 0
0 0.0907406 0
0 0.107541 0
0 0.123095 0
0 0.137386 0
0 0.150401 0
0 0.162128 0
0 0.172564 0
0 0.181708 0
0 0.189565 0
0 0.196143 0
0 0.201454 0
0 0.205513 0
0 0.208335 0
0 0.209939 0
0 0.210341 0
0 0.209563 0
0 0.207623 0
0 0.204544 0
0 0.200347 0
0 0.195057 0
0 0.188703 0
0 0.181315 0
0 0.17293 0
0 0.163592 0
0 0.15335 0
0 0.142264 0
0 0.130403 0
0 0.11785 0
0 0.104697 0
0 0.0910519 0
0 0.0770353 0
0 0.0627828 0
0 0.0484443 0
0 0.0341844 0
0 0.0201826 0
0 0.00663486 0
0 0.0101982 0
0 0.0300083 0
0 0.048671 0
0 0.0662212 0
0 0.082668 0
0 0.0980052 0
0 0.112219 0
0 0.125295 0
0 0.137216 0
0 0.147972 0
0 0.157555 0
0 0.16596 0
0 0.173189 0
0 0.179245 0
0 0.184137 0
0 0.187874 0
0 0.19047 0
0 0.191938 0
0 0.192295 0
0 0.191559 0
0 0.189748 0
0 0.186882 0
0 0.182985 0
0 0.178081 0
0 0.172199 0
0 0.165371 0
0 0.157634 0
0 0.149031 0
0 0.139612 0
0 0.129435 0
0 0.118567 0
0 0.107084 0
0 0.0950739 0
0 0.0826348 0
0 0.0698769 0
0 0.0569224 0
0 0.0439054 0
0 0.0309722 0
0 0.0182824 0
0 0.00600956 0
0 0.00927221 0
0 0.0272851 0
0 0.0442596 0
0 0.0602297 0
0 0.0752053 0
0 0.0891815 0
0 0.102146 0
0 0.114083 0
0 0.124978 0
0 0.134818 0
0 0.143592 0
0 0.151296 0
0 0.157926 0
0 0.163484 0
0 0.167974 0
0 0.171404 0
0 0.173783 0
0 0.175123 0
0 0.175439 0
0 0.174746 0
0 0.173062 0
0 0.170406 0
0 0.166802 0
0 0.162274 0
0 0.156849 0
0 0.150561 0
0 0.143445 0
0 0.135545 0
0 0.126909 0
0 0.117592 0
0 0.107658 0
0 0.0971777 0
0 0.0862328 0
0 0.0749133 0
0 0.063319 0
0 0.05156 0
0 0.0397562 0
0 0.0280382 0
0 0.0165477 0
0 0.00543886 0
0 0.00841554 0
0 0.0247655 0
0 0.0401765 0
0 0.0546813 0
0 0.06829 0
0 0.0809988 0
0 0.0927963 0
0 0.103668 0
0 0.113599 0
0 0.122575 0
0 0.130587 0
0 0.137625 0
0 0.143686 0
0 0.14877 0
0 0.152877 0
0 0.156013 0
0 0.158186 0
0 0.159405 0
0 0.159683 0
0 0.159035 0
0 0.157476 0
0 0.155026 0
0 0.151706 0
0 0.147541 0
0 0.142557 0
0 0.136787 0
0 0.130266 0
0 0.123036 0
0 0.115142 0
0 0.106637 0
0 0.0975806 0
0 0.0880398 0
0 0.0780886 0
0 0.0678094 0
0 0.0572927 0
0 0.0466372 0
0 0.0359504 0
0 0.0253487 0
0 0.0149582 0
0 0.00491606 0
0 0.0076209 0
0 0.0224279 0
0 0.0363874 0
0 0.0495303 0
0 0.0618666 0
0 0.0733934 0
0 0.0841003 0
0 0.0939736 0
0 0.102999 0
0 0.111162 0
0 0.118453 0
0 0.124862 0
0 0.130384 0
0 0.135017 0
0 0.13876 0
0 0.141617 0
0 0.143594 0
0 0.1447 0
0 0.144944 0
0 0.144341 0
0 0.142905 0
0 0.140654 0
0 0.137609 0
0 0.133793 0
0 0.129233 0
0 0.123959 0
0 0.118005 0
0 0.11141 0
0 0.104219 0
0 0.0964809 0
0 0.0882504 0
0 0.0795894 0
0 0.0705659 0
0 0.0612548 0
0 0.0517377 0
0 0.0421033 0
0 0.0324478 0
0 0.0228748 0
0 0.0134967 0
0 0.00443546 0
0 0.00688179 0
0 0.0202535 0
0 0.0328618 0
0 0.0447358 0
0 0.0558852 0
0 0.0663077 0
0 0.0759937 0
0 0.0849307 0
0 0.0931047 0
0 0.100503 0
0 0.107113 0
0 0.112927 0
0 0.117939 0
0 0.122144 0
0 0.125542 0
0 0.128134 0
0 0.129926 0
0 0.130924 0
0 0.131138 0
0 0.13058 0
0 0.129263 0
0 0.127205 0
0 0.124425 0
0 0.120945 0
0 0.11679 0
0 0.11199 0
0 0.106576 0
0 0.100586 0
0 0.0940597 0
0 0.0870442 0
0 0.0795901 0
0 0.0717539 0
0 0.0635976 0
0 0.0551888 0
0 0.0466011 0
0 0.0379141 0
0 0.0292134 0
0 0.0205915 0
0 0.0121482 0
0 0.00399208 0
0 0.00619238 0
0 0.018225 0
0 0.0295723 0
0 0.0402611 0
0 0.0503007 0
0 0.0596892 0
0 0.0684181 0
0 0.0764756 0
0 0.0838489 0
0 0.0905253 0
0 0.0964939 0
0 0.101745 0
0 0.106273 0
0 0.110073 0
0 0.113143 0
0 0.115485 0
0 0.117102 0
0 0.118 0
0 0.118186 0
0 0.117673 0
0 0.116473 0
0 0.1146 0
0 0.112075 0
0 0.108917 0
0 0.10515 0
0 0.100801 0
0 0.0959008 0
0 0.0904833 0
0 0.0845867 0
0 0.0782533 0
0 0.07153 0
0 0.064468 0
0 0.0571235 0
0 0.0495576 0
0 0.0418362 0
0 0.0340303 0
0 0.0262164 0
0 0.0184766 0
0 0.0108995 0
0 0.00358158 0
0 0.00554738 0
0 0.0163271 0
0 0.0264939 0
0 0.0360726 0
0 0.0450717 0
0 0.0534899 0
0 0.0613194 0
0 0.0685495 0
0 0.0751682 0
0 0.0811638 0
0 0.0865256 0
0 0.0912448 0
0 0.0953146 0
0 0.0987305 0
0 0.10149 0
0 0.103595 0
0 0.105046 0
0 0.105849 0
0 0.106011 0
0 0.105543 0
0 0.104455 0
0 0.102762 0
0 0.100481 0
0 0.0976309 0
0 0.0942344 0
0 0.0903161 0
0 0.0859044 0
0 0.0810307 0
0 0.0757299 0
0 0.0700409 0
0 0.0640062 0
0 0.0576721 0
0 0.0510894 0
0 0.0443126 0
0 0.0374008 0
0 0.0304171 0
0 0.0234294 0
0 0.0165105 0
0 0.00973898 0
0 0.00320011 0
0 0.00494195 0
0 0.0145455 0
0 0.0236039 0
0 0.0321395 0
0 0.0401604 0
0 0.0476654 0
0 0.0546477 0
0 0.0610975 0
0 0.0670038 0
0 0.0723558 0
0 0.0771435 0
0 0.0813585 0
0 0.084994 0
0 0.0880457 0
0 0.0905111 0
0 0.0923901 0
0 0.0936847 0
0 0.094399 0
0 0.0945396 0
0 0.094115 0
0 0.093136 0
0 0.0916155 0
0 0.0895691 0
0 0.0870144 0
0 0.0839717 0
0 0.0804641 0
0 0.0765173 0
0 0.0721601 0
0 0.0674242 0
0 0.0623448 0
0 0.0569602 0
0 0.0513121 0
0 0.0454458 0
0 0.03941 0
0 0.0332571 0
0 0.0270431 0
0 0.0208279 0
0 0.0146759 0
0 0.00865622 0
0 0.00284424 0
0 0.00437166 0
0 0.0128672 0
0 0.0208811 0
0 0.0284335 0
0 0.0355316 0
0 0.0421746 0
0 0.0483565 0
0 0.0540684 0
0 0.0593004 0
0 0.0640426 0
0 0.0682859 0
0 0.0720222 0
0 0.0752455 0
0 0.0779512 0
0 0.0801369 0
0 0.081802 0
0 0.0829482 0
0 0.083579 0
0 0.0837 0
0 0.0833188 0
0 0.0824451 0
0 0.0810907 0
0 0.0792695 0
0 0.0769975 0
0 0.0742934 0
0 0.0711777 0
0 0.067674 0
0 0.0638081 0
0 0.0596087 0
0 0.0551072 0
0 0.0503379 0
0 0.045338 0
0 0.0401475 0
0 0.0348097 0
0 0.0293707 0
0 0.0238798 0
0 0.0183897 0
0 0.0129568 0
0 0.00764184 0
0 0.00251087 0
0 0.00383237 0
0 0.01128 0
0 0.0183059 0
0 0.0249279 0
0 0.0311525 0
0 0.0369789 0
0 0.042402 0
0 0.0474139 0
0 0.0520057 0
0 0.0561686 0
0 0.0598941 0
0 0.0631752 0
0 0.066006 0
0 0.0683823 0
0 0.0703016 0
0 0.0717634 0
0 0.0727687 0
0 0.0733206 0
0 0.073424 0
0 0.0730855 0
0 0.0723138 0
0 0.0711193 0
0 0.0695145 0
0 0.0675139 0
0 0.0651339 0
0 0.0623931 0
0 0.0593125 0
0 0.0559152 0
0 0.0522265 0
0 0.0482744 0
0 0.0440891 0
0 0.0397035 0
0 0.0351528 0
0 0.0304748 0
0 0.0257099 0
0 0.0209011 0
0 0.0160944 0
0 0.0113389 0
0 0.00668728 0
0 0.00219718 0
0 0.0033202 0
0 0.00977267 0
0 0.01586 0
0 0.0215979 0
0 0.0269921 0
0 0.032042 0
0 0.036743 0
0 0.0410884 0
0 0.0450702 0
0 0.0486808 0
0 0.0519125 0
0 0.054759 0
0 0.0572151 0
0 0.0592768 0
0 0.0609419 0
0 0.0622096 0
0 0.0630808 0
0 0.0635581 0
0 0.0636455 0
0 0.063349 0
0 0.0626761 0
0 0.0616359 0
0 0.0602396 0
0 0.0584997 0
0 0.0564309 0
0 0.0540496 0
0 0.0513741 0
0 0.0484247 0
0 0.0452238 0
0 0.0417957 0
0 0.0381668 0
0 0.0343657 0
0 0.0304229 0
0 0.0263712 0
0 0.0222456 0
0 0.0180832 0
0 0.0139235 0
0 0.00980881 0
0 0.00578469 0
0 0.00190058 0
0 0.00283152 0
0 0.00833435 0
0 0.013526 0
0 0.01842 0
0 0.0230212 0
0 0.0273293 0
0 0.0313403 0
0 0.0350483 0
0 0.0384467 0
0 0.0415286 0
0 0.0442874 0
0 0.0467177 0
0 0.0488147 0
0 0.050575 0
0 0.0519965 0
0 0.0530785 0
0 0.0538215 0
0 0.0542278 0
0 0.0543008 0
0 0.0540455 0
0 0.0534685 0
0 0.0525776 0
0 0.0513824 0
0 0.049894 0
0 0.0481248 0
0 0.0460891 0
0 0.0438027 0
0 0.0412832 0
0 0.0385498 0
0 0.0356234 0
0 0.0325266 0
0 0.0292839 0
0 0.0259214 0
0 0.0224671 0
0 0.0189506 0
0 0.0154035 0
0 0.0118595 0
0 0.00835437 0
0 0.00492678 0
0 0.00161869 0
0 0.00236285 0
0 0.0069549 0
0 0.0112875 0
0 0.0153718 0
0 0.0192121 0
0 0.0228081 0
0 0.0261564 0
0 0.0292522 0
0 0.0320898 0
0 0.0346634 0
0 0.0369675 0
0 0.0389973 0
0 0.0407488 0
0 0.0422191 0
0 0.0434063 0
0 0.0443096 0
0 0.0449297 0
0 0.0452681 0
0 0.0453279 0
0 0.0451132 0
0 0.0446294 0
0 0.0438834 0
0 0.0428831 0
0 0.0416377 0
0 0.040158 0
0 0.038456 0
0 0.0365449 0
0 0.0344395 0
0 0.0321561 0
0 0.0297121 0
0 0.0271266 0
0 0.02442 0
0 0.0216141 0
0 0.0187323 0
0 0.0157992 0
0 0.0128412 0
0 0.0098862 0
0 0.00696404 0
0 0.00410676 0
0 0.00134925 0
0 0.00191087 0
0 0.00562458 0
0 0.00912851 0
0 0.0124318 0
0 0.015538 0
0 0.0184468 0
0 0.0211554 0
0 0.02366 0
0 0.0259559 0
0 0.0280383 0
0 0.0299029 0
0 0.0315455 0
0 0.032963 0
0 0.0341529 0
0 0.0351136 0
0 0.0358444 0
0 0.0363458 0
0 0.0366191 0
0 0.0366667 0
0 0.0364919 0
0 0.0360992 0
0 0.0354942 0
0 0.0346832 0
0 0.033674 0
0 0.0324752 0
0 0.0310965 0
0 0.029549 0
0 0.0278445 0
0 0.0259963 0
0 0.0240186 0
0 0.0219268 0
0 0.0197376 0
0 0.0174685 0
0 0.0151384 0
0 0.0127673 0
0 0.0103764 0
0 0.00798831 0
0 0.00562694 0
0 0.00331819 0
0 0.00109016 0
0 0.00147241 0
0 0.00433399 0
0 0.00703397 0
0 0.00957947 0
0 0.0119732 0
0 0.0142148 0
0 0.0163024 0
0 0.0182329 0
0 0.0200026 0
0 0.0216079 0
0 0.0230453 0
0 0.0243116 0
0 0.0254045 0
0 0.0263218 0
0 0.0270624 0
0 0.0276257 0
0 0.028012 0
0 0.0282223 0
0 0.0282585 0
0 0.0281231 0
0 0.0278197 0
0 0.0273524 0
0 0.0267263 0
0 0.0259474 0
0 0.0250224 0
0 0.0239588 0
0 0.0227651 0
0 0.0214507 0
0 0.0200256 0
0 0.018501 0
0 0.0168888 0
0 0.0152017 0
0 0.0134533 0
0 0.0116582 0
0 0.00983178 0
0 0.00799032 0
0 0.00615115 0
0 0.00433275 0
0 0.00255497 0
0 0.000839405 0
0 0.00104435 0
0 0.00307401 0
0 0.00498909 0
0 0.00679464 0
0 0.00849256 0
0 0.0100827 0
0 0.0115636 0
0 0.0129331 0
0 0.0141887 0
0 0.0153276 0
0 0.0163475 0
0 0.017246 0
0 0.0180215 0
0 0.0186723 0
0 0.0191978 0
0 0.0195974 0
0 0.0198713 0
0 0.0200204 0