# vtk DataFile Version 2.0
Velocidades
ASCII

DATASET STRUCTURED_GRID
DIMENSIONS   40   40   10

POINTS   16000   double
0.0125   0.0125   0.05
0.0125   0.0375   0.05
0.0125   0.0625   0.05
0.0125   0.0875   0.05
0.0125   0.1125   0.05
0.0125   0.1375   0.05
0.0125   0.1625   0.05
0.0125   0.1875   0.05
0.0125   0.2125   0.05
0.0125   0.2375   0.05
0.0125   0.2625   0.05
0.0125   0.2875   0.05
0.0125   0.3125   0.05
0.0125   0.3375   0.05
0.0125   0.3625   0.05
0.0125   0.3875   0.05
0.0125   0.4125   0.05
0.0125   0.4375   0.05
0.0125   0.4625   0.05
0.0125   0.4875   0.05
0.0125   0.5125   0.05
0.0125   0.5375   0.05
0.0125   0.5625   0.05
0.0125   0.5875   0.05
0.0125   0.6125   0.05
0.0125   0.6375   0.05
0.0125   0.6625   0.05
0.0125   0.6875   0.05
0.0125   0.7125   0.05
0.0125   0.7375   0.05
0.0125   0.7625   0.05
0.0125   0.7875   0.05
0.0125   0.8125   0.05
0.0125   0.8375   0.05
0.0125   0.8625   0.05
0.0125   0.8875   0.05
0.0125   0.9125   0.05
0.0125   0.9375   0.05
0.0125   0.9625   0.05
0.0125   0.9875   0.05
0.0375   0.0125   0.05
0.0375   0.0375   0.05
0.0375   0.0625   0.05
0.0375   0.0875   0.05
0.0375   0.1125   0.05
0.0375   0.1375   0.05
0.0375   0.1625   0.05
0.0375   0.1875   0.05
0.0375   0.2125   0.05
0.0375   0.2375   0.05
0.0375   0.2625   0.05
0.0375   0.2875   0.05
0.0375   0.3125   0.05
0.0375   0.3375   0.05
0.0375   0.3625   0.05
0.0375   0.3875   0.05
0.0375   0.4125   0.05
0.0375   0.4375   0.05
0.0375   0.4625   0.05
0.0375   0.4875   0.05
0.0375   0.5125   0.05
0.0375   0.5375   0.05
0.0375   0.5625   0.05
0.0375   0.5875   0.05
0.0375   0.6125   0.05
0.0375   0.6375   0.05
0.0375   0.6625   0.05
0.0375   0.6875   0.05
0.0375   0.7125   0.05
0.0375   0.7375   0.05
0.0375   0.7625   0.05
0.0375   0.7875   0.05
0.0375   0.8125   0.05
0.0375   0.8375   0.05
0.0375   0.8625   0.05
0.0375   0.8875   0.05
0.0375   0.9125   0.05
0.0375   0.9375   0.05
0.0375   0.9625   0.05
0.0375   0.9875   0.05
0.0625   0.0125   0.05
0.0625   0.0375   0.05
0.0625   0.0625   0.05
0.0625   0.0875   0.05
0.0625   0.1125   0.05
0.0625   0.1375   0.05
0.0625   0.1625   0.05
0.0625   0.1875   0.05
0.0625   0.2125   0.05
0.0625   0.2375   0.05
0.0625   0.2625   0.05
0.0625   0.2875   0.05
0.0625   0.3125   0.05
0.0625   0.3375   0.05
0.0625   0.3625   0.05
0.0625   0.3875   0.05
0.0625   0.4125   0.05
0.0625   0.4375   0.05
0.0625   0.4625   0.05
0.0625   0.4875   0.05
0.0625   0.5125   0.05
0.0625   0.5375   0.05
0.0625   0.5625   0.05
0.0625   0.5875   0.05
0.0625   0.6125   0.05
0.0625   0.6375   0.05
0.0625   0.6625   0.05
0.0625   0.6875   0.05
0.0625   0.7125   0.05
0.0625   0.7375   0.05
0.0625   0.7625   0.05
0.0625   0.7875   0.05
0.0625   0.8125   0.05
0.0625   0.8375   0.05
0.0625   0.8625   0.05
0.0625   0.8875   0.05
0.0625   0.9125   0.05
0.0625   0.9375   0.05
0.0625   0.9625   0.05
0.0625   0.9875   0.05
0.0875   0.0125   0.05
0.0875   0.0375   0.05
0.0875   0.0625   0.05
0.0875   0.0875   0.05
0.0875   0.1125   0.05
0.0875   0.1375   0.05
0.0875   0.1625   0.05
0.0875   0.1875   0.05
0.0875   0.2125   0.05
0.0875   0.2375   0.05
0.0875   0.2625   0.05
0.0875   0.2875   0.05
0.0875   0.3125   0.05
0.0875   0.3375   0.05
0.0875   0.3625   0.05
0.0875   0.3875   0.05
0.0875   0.4125   0.05
0.0875   0.4375   0.05
0.0875   0.4625   0.05
0.0875   0.4875   0.05
0.0875   0.5125   0.05
0.0875   0.5375   0.05
0.0875   0.5625   0.05
0.0875   0.5875   0.05
0.0875   0.6125   0.05
0.0875   0.6375   0.05
0.0875   0.6625   0.05
0.0875   0.6875   0.05
0.0875   0.7125   0.05
0.0875   0.7375   0.05
0.0875   0.7625   0.05
0.0875   0.7875   0.05
0.0875   0.8125   0.05
0.0875   0.8375   0.05
0.0875   0.8625   0.05
0.0875   0.8875   0.05
0.0875   0.9125   0.05
0.0875   0.9375   0.05
0.0875   0.9625   0.05
0.0875   0.9875   0.05
0.1125   0.0125   0.05
0.1125   0.0375   0.05
0.1125   0.0625   0.05
0.1125   0.0875   0.05
0.1125   0.1125   0.05
0.1125   0.1375   0.05
0.1125   0.1625   0.05
0.1125   0.1875   0.05
0.1125   0.2125   0.05
0.1125   0.2375   0.05
0.1125   0.2625   0.05
0.1125   0.2875   0.05
0.1125   0.3125   0.05
0.1125   0.3375   0.05
0.1125   0.3625   0.05
0.1125   0.3875   0.05
0.1125   0.4125   0.05
0.1125   0.4375   0.05
0.1125   0.4625   0.05
0.1125   0.4875   0.05
0.1125   0.5125   0.05
0.1125   0.5375   0.05
0.1125   0.5625   0.05
0.1125   0.5875   0.05
0.1125   0.6125   0.05
0.1125   0.6375   0.05
0.1125   0.6625   0.05
0.1125   0.6875   0.05
0.1125   0.7125   0.05
0.1125   0.7375   0.05
0.1125   0.7625   0.05
0.1125   0.7875   0.05
0.1125   0.8125   0.05
0.1125   0.8375   0.05
0.1125   0.8625   0.05
0.1125   0.8875   0.05
0.1125   0.9125   0.05
0.1125   0.9375   0.05
0.1125   0.9625   0.05
0.1125   0.9875   0.05
0.1375   0.0125   0.05
0.1375   0.0375   0.05
0.1375   0.0625   0.05
0.1375   0.0875   0.05
0.1375   0.1125   0.05
0.1375   0.1375   0.05
0.1375   0.1625   0.05
0.1375   0.1875   0.05
0.1375   0.2125   0.05
0.1375   0.2375   0.05
0.1375   0.2625   0.05
0.1375   0.2875   0.05
0.1375   0.3125   0.05
0.1375   0.3375   0.05
0.1375   0.3625   0.05
0.1375   0.3875   0.05
0.1375   0.4125   0.05
0.1375   0.4375   0.05
0.1375   0.4625   0.05
0.1375   0.4875   0.05
0.1375   0.5125   0.05
0.1375   0.5375   0.05
0.1375   0.5625   0.05
0.1375   0.5875   0.05
0.1375   0.6125   0.05
0.1375   0.6375   0.05
0.1375   0.6625   0.05
0.1375   0.6875   0.05
0.1375   0.7125   0.05
0.1375   0.7375   0.05
0.1375   0.7625   0.05
0.1375   0.7875   0.05
0.1375   0.8125   0.05
0.1375   0.8375   0.05
0.1375   0.8625   0.05
0.1375   0.8875   0.05
0.1375   0.9125   0.05
0.1375   0.9375   0.05
0.1375   0.9625   0.05
0.1375   0.9875   0.05
0.1625   0.0125   0.05
0.1625   0.0375   0.05
0.1625   0.0625   0.05
0.1625   0.0875   0.05
0.1625   0.1125   0.05
0.1625   0.1375   0.05
0.1625   0.1625   0.05
0.1625   0.1875   0.05
0.1625   0.2125   0.05
0.1625   0.2375   0.05
0.1625   0.2625   0.05
0.1625   0.2875   0.05
0.1625   0.3125   0.05
0.1625   0.3375   0.05
0.1625   0.3625   0.05
0.1625   0.3875   0.05
0.1625   0.4125   0.05
0.1625   0.4375   0.05
0.1625   0.4625   0.05
0.1625   0.4875   0.05
0.1625   0.5125   0.05
0.1625   0.5375   0.05
0.1625   0.5625   0.05
0.1625   0.5875   0.05
0.1625   0.6125   0.05
0.1625   0.6375   0.05
0.1625   0.6625   0.05
0.1625   0.6875   0.05
0.1625   0.7125   0.05
0.1625   0.7375   0.05
0.1625   0.7625   0.05
0.1625   0.7875   0.05
0.1625   0.8125   0.05
0.1625   0.8375   0.05
0.1625   0.8625   0.05
0.1625   0.8875   0.05
0.1625   0.9125   0.05
0.1625   0.9375   0.05
0.1625   0.9625   0.05
0.1625   0.9875   0.05
0.1875   0.0125   0.05
0.1875   0.0375   0.05
0.1875   0.0625   0.05
0.1875   0.0875   0.05
0.1875   0.1125   0.05
0.1875   0.1375   0.05
0.1875   0.1625   0.05
0.1875   0.1875   0.05
0.1875   0.2125   0.05
0.1875   0.2375   0.05
0.1875   0.2625   0.05
0.1875   0.2875   0.05
0.1875   0.3125   0.05
0.1875   0.3375   0.05
0.1875   0.3625   0.05
0.1875   0.3875   0.05
0.1875   0.4125   0.05
0.1875   0.4375   0.05
0.1875   0.4625   0.05
0.1875   0.4875   0.05
0.1875   0.5125   0.05
0.1875   0.5375   0.05
0.1875   0.5625   0.05
0.1875   0.5875   0.05
0.1875   0.6125   0.05
0.1875   0.6375   0.05
0.1875   0.6625   0.05
0.1875   0.6875   0.05
0.1875   0.7125   0.05
0.1875   0.7375   0.05
0.1875   0.7625   0.05
0.1875   0.7875   0.05
0.1875   0.8125   0.05
0.1875   0.8375   0.05
0.1875   0.8625   0.05
0.1875   0.8875   0.05
0.1875   0.9125   0.05
0.1875   0.9375   0.05
0.1875   0.9625   0.05
0.1875   0.9875   0.05
0.2125   0.0125   0.05
0.2125   0.0375   0.05
0.2125   0.0625   0.05
0.2125   0.0875   0.05
0.2125   0.1125   0.05
0.2125   0.1375   0.05
0.2125   0.1625   0.05
0.2125   0.1875   0.05
0.2125   0.2125   0.05
0.2125   0.2375   0.05
0.2125   0.2625   0.05
0.2125   0.2875   0.05
0.2125   0.3125   0.05
0.2125   0.3375   0.05
0.2125   0.3625   0.05
0.2125   0.3875   0.05
0.2125   0.4125   0.05
0.2125   0.4375   0.05
0.2125   0.4625   0.05
0.2125   0.4875   0.05
0.2125   0.5125   0.05
0.2125   0.5375   0.05
0.2125   0.5625   0.05
0.2125   0.5875   0.05
0.2125   0.6125   0.05
0.2125   0.6375   0.05
0.2125   0.6625   0.05
0.2125   0.6875   0.05
0.2125   0.7125   0.05
0.2125   0.7375   0.05
0.2125   0.7625   0.05
0.2125   0.7875   0.05
0.2125   0.8125   0.05
0.2125   0.8375   0.05
0.2125   0.8625   0.05
0.2125   0.8875   0.05
0.2125   0.9125   0.05
0.2125   0.9375   0.05
0.2125   0.9625   0.05
0.2125   0.9875   0.05
0.2375   0.0125   0.05
0.2375   0.0375   0.05
0.2375   0.0625   0.05
0.2375   0.0875   0.05
0.2375   0.1125   0.05
0.2375   0.1375   0.05
0.2375   0.1625   0.05
0.2375   0.1875   0.05
0.2375   0.2125   0.05
0.2375   0.2375   0.05
0.2375   0.2625   0.05
0.2375   0.2875   0.05
0.2375   0.3125   0.05
0.2375   0.3375   0.05
0.2375   0.3625   0.05
0.2375   0.3875   0.05
0.2375   0.4125   0.05
0.2375   0.4375   0.05
0.2375   0.4625   0.05
0.2375   0.4875   0.05
0.2375   0.5125   0.05
0.2375   0.5375   0.05
0.2375   0.5625   0.05
0.2375   0.5875   0.05
0.2375   0.6125   0.05
0.2375   0.6375   0.05
0.2375   0.6625   0.05
0.2375   0.6875   0.05
0.2375   0.7125   0.05
0.2375   0.7375   0.05
0.2375   0.7625   0.05
0.2375   0.7875   0.05
0.2375   0.8125   0.05
0.2375   0.8375   0.05
0.2375   0.8625   0.05
0.2375   0.8875   0.05
0.2375   0.9125   0.05
0.2375   0.9375   0.05
0.2375   0.9625   0.05
0.2375   0.9875   0.05
0.2625   0.0125   0.05
0.2625   0.0375   0.05
0.2625   0.0625   0.05
0.2625   0.0875   0.05
0.2625   0.1125   0.05
0.2625   0.1375   0.05
0.2625   0.1625   0.05
0.2625   0.1875   0.05
0.2625   0.2125   0.05
0.2625   0.2375   0.05
0.2625   0.2625   0.05
0.2625   0.2875   0.05
0.2625   0.3125   0.05
0.2625   0.3375   0.05
0.2625   0.3625   0.05
0.2625   0.3875   0.05
0.2625   0.4125   0.05
0.2625   0.4375   0.05
0.2625   0.4625   0.05
0.2625   0.4875   0.05
0.2625   0.5125   0.05
0.2625   0.5375   0.05
0.2625   0.5625   0.05
0.2625   0.5875   0.05
0.2625   0.6125   0.05
0.2625   0.6375   0.05
0.2625   0.6625   0.05
0.2625   0.6875   0.05
0.2625   0.7125   0.05
[...]
POINT_DATA   16000
VECTORS Velocidades double

0 0.321007 0
0 0.733434 0
0 0.857701 0
0 0.905538 0
0 0.928795 0
0 0.942239 0
0 0.950928 0
0 0.956955 0
0 0.961331 0
0 0.964606 0
0 0.967106 0
0 0.969038 0
0 0.970536 0
0 0.971692 0
0 0.972571 0
0 0.973217 0
0 0.973662 0
0 0.973929 0
0 0.97403 0
0 0.973976 0
0 0.973769 0
0 0.973405 0
0 0.972879 0
0 0.972177 0
0 0.97128 0
0 0.97016 0
0 0.968779 0
0 0.967085 0
0 0.965006 0
0 0.962438 0
0 0.959233 0
0 0.955171 0
0 0.949901 0
0 0.942843 0
0 0.932932 0
0 0.917988 0
0 0.892772 0
0 0.842258 0
0 0.715242 0
0 0.311313 0
0 0.187061 0
0 0.481021 0
0 0.646835 0
0 0.739985 0
0 0.795564 0
0 0.831097 0
0 0.855213 0
0 0.872361 0
0 0.884987 0
0 0.894518 0
0 0.901837 0
0 0.907512 0
0 0.911926 0
0 0.915339 0
0 0.917936 0
0 0.919848 0
0 0.921166 0
0 0.921954 0
0 0.922256 0
0 0.922093 0
0 0.921476 0
0 0.920398 0
0 0.918837 0
0 0.916755 0
0 0.914097 0
0 0.910783 0
0 0.906703 0
0 0.901707 0
0 0.895587 0
0 0.888056 0
0 0.878701 0
0 0.866915 0
0 0.851774 0
0 0.831804 0
0 0.804526 0
0 0.76551 0
0 0.706377 0
0 0.610684 0
0 0.447174 0
0 0.171691 0
0 0.126923 0
0 0.347101 0
0 0.503553 0
0 0.609196 0
0 0.680732 0
0 0.730352 0
0 0.765804 0
0 0.791847 0
0 0.811432 0
0 0.82643 0
0 0.838061 0
0 0.847144 0
0 0.854243 0
0 0.859754 0
0 0.863959 0
0 0.86706 0
0 0.8692 0
0 0.87048 0
0 0.870968 0
0 0.8707 0
0 0.86969 0
0 0.867929 0
0 0.865383 0
0 0.861993 0
0 0.857672 0
0 0.852296 0
0 0.845695 0
0 0.837641 0
0 0.827822 0
0 0.81581 0
0 0.801009 0
0 0.782571 0
0 0.75926 0
0 0.729224 0
0 0.689626 0
0 0.636035 0
0 0.561554 0
0 0.456022 0
0 0.307171 0
0 0.110171 0
0 0.0950141 0
0 0.268023 0
0 0.405487 0
0 0.509007 0
0 0.585577 0
0 0.642312 0
0 0.684817 0
0 0.717114 0
0 0.741992 0
0 0.761374 0
0 0.776594 0
0 0.788591 0
0 0.798033 0
0 0.8054 0
0 0.811042 0
0 0.815213 0
0 0.818096 0
0 0.819821 0
0 0.820474 0
0 0.820103 0
0 0.818728 0
0 0.816336 0
0 0.812885 0
0 0.808299 0
0 0.802467 0
0 0.795233 0
0 0.786386 0
0 0.775644 0
0 0.76263 0
0 0.746839 0
0 0.727589 0
0 0.703948 0
0 0.674627 0
0 0.637834 0
0 0.591076 0
0 0.530951 0
0 0.453079 0
0 0.35262 0
0 0.226436 0
0 0.0783656 0
0 0.0756464 0
0 0.216853 0
0 0.336038 0
0 0.43213 0
0 0.507771 0
0 0.56679 0
0 0.612848 0
0 0.64896 0
0 0.677448 0
0 0.700049 0
0 0.718043 0
0 0.732376 0
0 0.743746 0
0 0.752672 0
0 0.759538 0
0 0.76463 0
0 0.768156 0
0 0.770265 0
0 0.771056 0
0 0.770589 0
0 0.768884 0
0 0.765928 0
0 0.761673 0
0 0.756035 0
0 0.748886 0
0 0.740051 0
0 0.729298 0
0 0.716318 0
0 0.70071 0
0 0.681952 0
0 0.659361 0
0 0.632047 0
0 0.598849 0
0 0.558273 0
0 0.508445 0
0 0.44714 0
0 0.372034 0
0 0.281418 0
0 0.1757 0
0 0.0596549 0
0 0.062652 0
0 0.181209 0
0 0.284864 0
0 0.372212 0
0 0.444078 0
0 0.502428 0
0 0.549526 0
0 0.587489 0
0 0.61811 0
0 0.642833 0
0 0.662793 0
0 0.678866 0
0 0.691725 0
0 0.701886 0
0 0.709741 0
0 0.715586 0
0 0.719641 0
0 0.722065 0
0 0.722966 0
0 0.722408 0
0 0.720415 0
0 0.716973 0
0 0.712033 0
0 0.705506 0
0 0.697259 0
0 0.687112 0
0 0.674826 0
0 0.660094 0
0 0.642525 0
0 0.621623 0
0 0.596766 0
0 0.567184 0
0 0.531932 0
0 0.489891 0
0 0.439804 0
0 0.380401 0
0 0.310701 0
0 0.230557 0
0 0.141487 0
0 0.0475225 0
0 0.0532755 0
0 0.154904 0
0 0.245723 0
0 0.324547 0
0 0.391493 0
0 0.447529 0
0 0.494015 0
0 0.532378 0
0 0.56394 0
0 0.589843 0
0 0.611036 0
0 0.628286 0
0 0.642205 0
0 0.653278 0
0 0.661881 0
0 0.668305 0
0 0.672771 0
0 0.675438 0
0 0.676418 0
0 0.675777 0
0 0.67354 0
0 0.669698 0
0 0.6642 0
0 0.656958 0
0 0.647844 0
0 0.636681 0
0 0.623242 0
0 0.607239 0
0 0.588314 0
0 0.56603 0
0 0.539862 0
0 0.509188 0
0 0.473301 0
0 0.431434 0
0 0.38283 0
0 0.326889 0
0 0.2634 0
0 0.192901 0
0 0.117084 0
0 0.0390709 0
0 0.0461394 0
0 0.134604 0
0 0.214796 0
0 0.285828 0
0 0.347567 0
0 0.400466 0
0 0.445324 0
0 0.483082 0
0 0.514687 0
0 0.541009 0
0 0.562811 0
0 0.580738 0
0 0.595325 0
0 0.607004 0
0 0.616124 0
0 0.622959 0
0 0.627717 0
0 0.630557 0
0 0.631586 0
0 0.63087 0
0 0.628439 0
0 0.624281 0
0 0.618353 0
0 0.610572 0
0 0.600818 0
0 0.588929 0
0 0.574698 0
0 0.557871 0
0 0.538138 0
0 0.515136 0
0 0.488444 0
0 0.457597 0
0 0.422102 0
0 0.381479 0
0 0.335341 0
0 0.283506 0
0 0.226171 0
0 0.164114 0
0 0.0988831 0
0 0.0328605 0
0 0.0404883 0
0 0.118382 0
0 0.189682 0
0 0.253758 0
0 0.310411 0
0 0.359833 0
0 0.402487 0
0 0.438983 0
0 0.469985 0
0 0.496141 0
0 0.518048 0
0 0.536231 0
0 0.551141 0
0 0.563154 0
0 0.57258 0
0 0.579667 0
0 0.584609 0
0 0.587554 0
0 0.588605 0
0 0.587826 0
0 0.585245 0
0 0.580858 0
0 0.574624 0
0 0.566471 0
0 0.556292 0
0 0.543945 0
0 0.529251 0
0 0.511994 0
0 0.491922 0
0 0.468746 0
0 0.44215 0
0 0.411807 0
0 0.377401 0
0 0.338671 0
0 0.295477 0
0 0.247887 0
0 0.196284 0
0 0.141486 0
0 0.0848179 0
0 0.0281077 0
0 0.0358754 0
0 0.105057 0
0 0.168823 0
0 0.226733 0
0 0.278596 0
0 0.324477 0
0 0.364636 0
0 0.399465 0
0 0.429423 0
0 0.454984 0
0 0.476604 0
0 0.494702 0
0 0.509648 0
0 0.52176 0
0 0.531306 0
0 0.538505 0
0 0.543533 0
0 0.546523 0
0 0.547571 0
0 0.546739 0
0 0.544055 0
0 0.539518 0
0 0.533094 0
0 0.524723 0
0 0.514314 0
0 0.501748 0
0 0.486876 0
0 0.469526 0
0 0.449498 0
0 0.426577 0
0 0.400541 0
0 0.371175 0
0 0.338303 0
0 0.301817 0
0 0.261737 0
0 0.218264 0
0 0.171854 0
0 0.123274 0
0 0.0736326 0
0 0.0243533 0
0 0.03202 0
0 0.0938729 0
0 0.151172 0
0 0.203617 0
0 0.25105 0
0 0.293472 0
0 0.331026 0
0 0.363961 0
0 0.392589 0
0 0.417253 0
0 0.438294 0
0 0.456041 0
0 0.470791 0
0 0.482808 0
0 0.492318 0
0 0.499509 0
0 0.504537 0
0 0.50752 0
0 0.508546 0
0 0.507672 0
0 0.504927 0
0 0.500312 0
0 0.493803 0
0 0.485351 0
0 0.474882 0
0 0.462302 0
0 0.447493 0
0 0.430321 0
0 0.410641 0
0 0.3883 0
0 0.363153 0
0 0.335077 0
0 0.303997 0
0 0.26991 0
0 0.232931 0
0 0.193326 0
0 0.151559 0
0 0.108319 0
0 0.0645275 0
0 0.0213116 0
0 0.0287371 0
0 0.0843188 0
0 0.136003 0
0 0.183591 0
0 0.226959 0
0 0.266082 0
0 0.301034 0
0 0.331968 0
0 0.359095 0
0 0.382659 0
0 0.402914 0
0 0.420111 0
0 0.434485 0
0 0.446251 0
0 0.455596 0
0 0.462681 0
0 0.467637 0
0 0.47057 0
0 0.471558 0
0 0.470654 0
0 0.467885 0
0 0.463257 0
0 0.456754 0
0 0.448338 0
0 0.437955 0
0 0.425531 0
0 0.410979 0
0 0.394202 0
0 0.375099 0
0 0.353571 0
0 0.329536 0
0 0.302941 0
0 0.273779 0
0 0.242119 0
0 0.208126 0
0 0.172091 0
0 0.134457 0
0 0.0958279 0
0 0.0569717 0
0 0.0187962 0
0 0.0258996 0
0 0.0760413 0
0 0.122802 0
0 0.166055 0
0 0.205707 0
0 0.241725 0
0 0.274141 0
0 0.303048 0
0 0.328586 0
0 0.350925 0
0 0.370252 0
0 0.386755 0
0 0.400619 0
0 0.412014 0
0 0.421094 0
0 0.427992 0
0 0.432821 0
0 0.435669 0
0 0.436607 0
0 0.435683 0
0 0.432923 0
0 0.428338 0
0 0.421918 0
0 0.413639 0
0 0.403459 0
0 0.391328 0
0 0.377186 0
0 0.360966 0
0 0.342607 0
0 0.322053 0
0 0.299271 0
0 0.274255 0
0 0.247051 0
0 0.217766 0
0 0.186594 0
0 0.153824 0
0 0.119865 0
0 0.0852427 0
0 0.0506004 0
0 0.0166808 0
0 0.0234171 0
0 0.0687866 0
0 0.111192 0
0 0.150557 0
0 0.186816 0
0 0.219934 0
0 0.24992 0
0 0.276827 0
0 0.300746 0
0 0.321792 0
0 0.340101 0
0 0.355814 0
0 0.369072 0
0 0.380008 0
0 0.388747 0
0 0.395397 0
0 0.400052 0
0 0.40279 0
0 0.40367 0
0 0.402736 0
0 0.400015 0
0 0.395519 0
0 0.389246 0
0 0.381182 0
0 0.3713 0
0 0.359569 0
0 0.345951 0
0 0.330408 0
0 0.312907 0
0 0.293429 0
0 0.271974 0
0 0.248576 0
0 0.223308 0
0 0.196304 0
0 0.167763 0
0 0.137966 0
0 0.107279 0
0 0.0761617 0
0 0.0451554 0
0 0.0148764 0
0 0.0212238 0
0 0.0623677 0
0 0.100891 0
0 0.136756 0
0 0.169915 0
0 0.200337 0
0 0.228018 0
0 0.252985 0
0 0.275293 0
0 0.295022 0
0 0.312265 0
0 0.327127 0
0 0.339713 0
0 0.350129 0
0 0.358471 0
0 0.364829 0
0 0.369279 0
0 0.371886 0
0 0.372704 0
0 0.37177 0
0 0.369111 0
0 0.364742 0
0 0.358667 0
0 0.35088 0
0 0.34137 0
0 0.330118 0
0 0.317107 0
0 0.30232 0
0 0.285751 0
0 0.267405 0
0 0.247308 0
0 0.225519 0
0 0.20213 0
0 0.177285 0
0 0.151183 0
0 0.124085 0
0 0.0963212 0
0 0.0682886 0
0 0.0404488 0
0 0.0133193 0
0 0.01927 0
0 0.0566438 0
0 0.0916867 0
0 0.124386 0
0 0.15471 0
0 0.182632 0
0 0.208141 0
0 0.231247 0
0 0.251983 0
0 0.270397 0
0 0.286557 0
0 0.300536 0
0 0.312413 0
0 0.322268 0
0 0.330177 0
0 0.336211 0
0 0.340433 0
0 0.342898 0
0 0.34365 0
0 0.342725 0
0 0.340147 0
0 0.335935 0
0 0.330097 0
0 0.322635 0
0 0.313548 0
0 0.302832 0
0 0.290484 0
0 0.276505 0
0 0.260907 0
0 0.243714 0
0 0.224973 0
0 0.204755 0
0 0.183164 0
0 0.160347 0
0 0.136495 0
0 0.111849 0
0 0.0867018 0
0 0.061401 0
0 0.0363412 0
0 0.011962 0
0 0.017518 0
0 0.0515063 0
0 0.083411 0
0 0.113237 0
0 0.140965 0
0 0.166573 0
0 0.190045 0
0 0.211382 0
0 0.230598 0
0 0.247725 0
0 0.262805 0
0 0.275891 0
0 0.28704 0
0 0.296312 0
0 0.303765 0
0 0.309456 0
0 0.313436 0
0 0.315751 0
0 0.316438 0
0 0.315529 0
0 0.313049 0
0 0.309016 0
0 0.303443 0
0 0.29634 0
0 0.287713 0
0 0.277569 0
0 0.265917 0
0 0.252773 0
0 0.23816 0
0 0.222119 0
0 0.204706 0
0 0.186002 0
0 0.166116 0
0 0.145193 0
0 0.123412 0
0 0.100993 0
0 0.0781973 0
0 0.0553284 0
0 0.0327267 0
0 0.0107688 0
0 0.0159379 0
0 0.0468699 0
0 0.0759323 0
0 0.103142 0
0 0.128489 0
0 0.151955 0
0 0.173523 0
0 0.193186 0
0 0.21095 0
0 0.226829 0
0 0.24085 0
0 0.253049 0
0 0.263467 0
0 0.272147 0
0 0.279135 0
0 0.284473 0
0 0.288204 0
0 0.290365 0
0 0.290988 0
0 0.290102 0
0 0.28773 0
0 0.283893 0
0 0.278607 0
0 0.271885 0
0 0.263741 0
0 0.254189 0
0 0.24325 0
0 0.230947 0
0 0.217316 0
0 0.202404 0
0 0.186277 0
0 0.169018 0
0 0.15074 0
0 0.131578 0
0 0.1117 0
0 0.0913072 0
0 0.0706316 0
0 0.0499384 0
0 0.0295234 0
0 0.00971221 0
0 0.0145062 0
0 0.0426664 0
0 0.0691445 0
0 0.0939651 0
0 0.117125 0
0 0.138609 0
0 0.158401 0
0 0.176489 0
0 0.19287 0
0 0.207551 0
0 0.220545 0
0 0.231876 0
0 0.241571 0
0 0.249662 0
0 0.256183 0
0 0.261166 0
0 0.264646 0
0 0.266653 0
0 0.267215 0
0 0.266357 0
0 0.264103 0
0 0.260473 0
0 0.255484 0
0 0.249156 0
0 0.241506 0
0 0.232557 0
0 0.222332 0
0 0.210865 0
0 0.198196 0
0 0.18438 0
0 0.169486 0
0 0.153598 0
0 0.136826 0
0 0.119298 0
0 0.101171 0
0 0.0826234 0
0 0.0638643 0
0 0.0451261 0
0 0.0266672 0
0 0.00877072 0
0 0.0132036 0
0 0.0388405 0
0 0.0629607 0
0 0.0855939 0
0 0.106742 0
0 0.126392 0
0 0.144528 0
0 0.161138 0
0 0.176211 0
0 0.189749 0
0 0.201755 0
0 0.212245 0
0 0.221235 0
0 0.228747 0
0 0.234806 0
0 0.239438 0
0 0.24267 0
0 0.244525 0
0 0.245029 0
0 0.244205 0
0 0.242073 0
0 0.238656 0
0 0.233972 0
0 0.228043 0
0 0.22089 0
0 0.21254 0
0 0.203022 0
0 0.192374 0
0 0.18064 0
0 0.167878 0
0 0.154157 0
0 0.139563 0
0 0.124199 0
0 0.108186 0
0 0.091666 0
0 0.0748033 0
0 0.0577819 0
0 0.0408075 0
0 0.0241068 0
0 0.00792719 0
0 0.0120144 0
0 0.0353462 0
0 0.0573089 0
0 0.0779348 0
0 0.0972287 0
0 0.115181 0
0 0.131777 0
0 0.147001 0
0 0.160841 0
0 0.173294 0
0 0.184357 0
0 0.194037 0
0 0.202345 0
0 0.209294 0
0 0.214904 0
0 0.219192 0
0 0.22218 0
0 0.223889 0
0 0.224339 0
0 0.223551 0
0 0.221546 0
0 0.218344 0
0 0.213967 0
0 0.208436 0
0 0.201776 0
0 0.194016 0
0 0.185189 0
0 0.175335 0
0 0.164501 0
0 0.152746 0
0 0.140137 0
0 0.126759 0
0 0.112707 0
0 0.0980966 0
0 0.083056 0
0 0.0677328 0
0 0.0522917 0
0 0.0369145 0
0 0.0218006 0
0 0.00716777 0
0 0.0109255 0
0 0.0321454 0
0 0.0521285 0
0 0.0709083 0
0 0.0884918 0
0 0.104871 0
0 0.120033 0
0 0.133961 0
0 0.146643 0
0 0.158069 0
0 0.168235 0
0 0.177142 0
0 0.184795 0
0 0.191202 0
0 0.196376 0
0 0.200332 0
0 0.203085 0
0 0.204652 0
0 0.205053 0
0 0.204305 0
0 0.202427 0
0 0.19944 0
0 0.195366 0
0 0.190228 0
0 0.184052 0
0 0.176868 0
0 0.16871 0
0 0.159621 0
0 0.149648 0
0 0.138848 0
0 0.12729 0
0 0.115051 0
0 0.102223 0
0 0.0889099 0
0 0.0752306 0
0 0.0613173 0
0 0.0473168 0
0 0.0333906 0
0 0.0197147 0
0 0.00648115 0
0 0.00992546 0
0 0.0292054 0
0 0.0473678 0
0 0.0644464 0
0 0.0804495 0
0 0.0953711 0
0 0.109198 0
0 0.121916 0
0 0.133509 0
0 0.143968 0
0 0.153284 0
0 0.161455 0
0 0.168483 0
0 0.174371 0
0 0.179127 0
0 0.182763 0
0 0.18529 0
0 0.186723 0
0 0.187078 0
0 0.186371 0
0 0.184621 0
0 0.181847 0
0 0.178071 0
0 0.173317 0
0 0.167611 0
0 0.160984 0
0 0.153471 0
0 0.145114 0
0 0.13596 0
0 0.126066 0
0 0.115495 0
0 0.104323 0
0 0.0926328 0
0 0.0805216 0
0 0.0680965 0
0 0.0554766 0
0 0.0427931 0
0 0.0301891 0
0 0.0178208 0
0 0.00585792 0
0 0.00900482 0
0 0.0264981 0
0 0.0429822 0
0 0.0584899 0
0 0.0730306 0
0 0.0865994 0
0 0.0991843 0
0 0.110771 0
0 0.121344 0
0 0.130892 0
0 0.139406 0
0 0.14688 0
0 0.153313 0
0 0.158706 0
0 0.163063 0
0 0.166393 0
0 0.168705 0
0 0.170011 0
0 0.170324 0
0 0.169661 0
0 0.168036 0
0 0.165471 0
0 0.161985 0
0 0.157603 0
0 0.152351 0
0 0.14626 0
0 0.139365 0
0 0.131706 0
0 0.123329 0
0 0.114289 0
0 0.104647 0
0 0.0944708 0
0 0.08384 0
0 0.0728419 0
0 0.0615738 0
0 0.0501428 0
0 0.0386659 0
0 0.0272706 0
0 0.0160952 0
0 0.00529021 0
0 0.00815517 0
0 0.0239991 0
0 0.0389326 0
0 0.0529872 0
0 0.0661724 0
0 0.0784845 0
0 0.0899126 0
0 0.100443 0
0 0.11006 0
0 0.118753 0
0 0.12651 0
0 0.133325 0
0 0.139194 0
0 0.144117 0
0 0.148095 0
0 0.151134 0
0 0.153242 0
0 0.154427 0
0 0.154703 0
0 0.154083 0
0 0.152583 0
0 0.15022 0
0 0.147016 0
0 0.142993 0
0 0.138177 0
0 0.132599 0
0 0.126293 0
0 0.119297 0
0 0.111656 0
0 0.103421 0
0 0.0946486 0
0 0.085404 0
0 0.0757586 0
0 0.0657924 0
0 0.0555932 0
0 0.0452571 0
0 0.0348887 0
0 0.0246012 0
0 0.0145176 0
0 0.00477132 0
0 0.00736913 0
0 0.0216868 0
0 0.0351846 0
0 0.0478921 0
0 0.0598189 0
0 0.0709622 0
0 0.0813118 0
0 0.0908547 0
0 0.0995771 0
0 0.107466 0
0 0.114511 0
0 0.120705 0
0 0.126041 0
0 0.130518 0
0 0.134136 0
0 0.136899 0
0 0.138813 0
0 0.139886 0
0 0.140128 0
0 0.139552 0
0 0.138173 0
0 0.136007 0
0 0.133073 0
0 0.129395 0
0 0.124998 0
0 0.119909 0
0 0.114162 0
0 0.107795 0
0 0.100849 0
0 0.093371 0
0 0.0854153 0
0 0.0770406 0
0 0.0683129 0
0 0.0593044 0
0 0.0500943 0
0 0.0407688 0
0 0.0314211 0
0 0.022152 0
0 0.0130706 0
0 0.0042955 0
0 0.00664015 0
0 0.0195422 0
0 0.0317074 0
0 0.0431635 0
0 0.0539199 0
0 0.0639742 0
0 0.0733174 0
0 0.0819373 0
0 0.0898207 0
0 0.0969552 0
0 0.10333 0
0 0.108937 0
0 0.11377 0
0 0.117825 0
0 0.121104 0
0 0.123606 0
0 0.125337 0
0 0.126304 0
0 0.126516 0
0 0.125984 0
0 0.124722 0
0 0.122745 0
0 0.120072 0
0 0.116724 0
0 0.112726 0
0 0.108103 0
0 0.102888 0
0 0.0971155 0
0 0.0908246 0
0 0.0840594 0
0 0.076869 0
0 0.0693077 0
0 0.0614352 0
0 0.0533169 0
0 0.0450239 0
0 0.0366332 0
0 0.028228 0
0 0.0198977 0
0 0.0117392 0
0 0.00385775 0
0 0.00596232 0
0 0.0175478 0
0 0.0284732 0
0 0.0387641 0
0 0.0484295 0
0 0.0574675 0
0 0.06587 0
0 0.0736257 0
0 0.0807223 0
0 0.0871479 0
0 0.092892 0
0 0.0979461 0
0 0.102304 0
0 0.105962 0
0 0.108918 0
0 0.111174 0
0 0.112733 0
0 0.113601 0
0 0.113786 0
0 0.113298 0
0 0.112149 0
0 0.110354 0
0 0.107931 0
0 0.104898 0
0 0.10128 0
0 0.0971006 0
0 0.0923896 0
0 0.0871795 0
0 0.0815066 0
0 0.0754116 0
0 0.0689393 0
0 0.062139 0
0 0.0550647 0
0 0.0477754 0
0 0.0403345 0
0 0.0328109 0
0 0.0252782 0
0 0.0178161 0
0 0.0105101 0
0 0.00345369 0
0 0.00533028 0
0 0.0156881 0
0 0.0254568 0
0 0.03466 0
0 0.0433061 0
0 0.0513934 0
0 0.0589149 0
0 0.0658602 0
0 0.0722178 0
0 0.0779767 0
0 0.0831268 0
0 0.0876597 0
0 0.0915691 0
0 0.0948509 0
0 0.0975033 0
0 0.0995265 0
0 0.100923 0
0 0.101698 0
0 0.101859 0
0 0.101414 0
0 0.100375 0
0 0.0987548 0
0 0.0965701 0
0 0.0938391 0
0 0.0905825 0
0 0.0868243 0
0 0.0825911 0
0 0.077913 0
0 0.0728235 0
0 0.0673594 0
0 0.0615615 0
0 0.0554744 0
0 0.0491466 0
0 0.0426309 0
0 0.0359838 0
0 0.0292664 0
0 0.0225442 0
0 0.0158873 0
0 0.00937158 0
0 0.00307943 0
0 0.00473913 0
0 0.0139485 0
0 0.0226349 0
0 0.0308198 0
0 0.0385108 0
0 0.0457068 0
0 0.0524013 0
0 0.058585 0
0 0.0642474 0
0 0.0693782 0
0 0.0739681 0
0 0.078009 0
0 0.0814948 0
0 0.0844212 0
0 0.0867861 0
0 0.0885895 0
0 0.0898332 0
0 0.0905214 0
0 0.0906601 0
0 0.0902577 0
0 0.0893241 0
0 0.0878719 0
0 0.0859155 0
0 0.0834718 0
0 0.0805599 0
0 0.0772018 0
0 0.0734218 0
0 0.0692474 0
0 0.0647088 0
0 0.0598395 0
0 0.0546762 0
0 0.0492588 0
0 0.0436307 0
0 0.0378388 0
0 0.0319332 0
0 0.025968 0
0 0.0200008 0
0 0.0140936 0
0 0.00831297 0
0 0.00273149 0
0 0.00418432 0
0 0.0123158 0
0 0.0199861 0
0 0.0272145 0
0 0.034008 0
0 0.0403656 0
0 0.0462816 0
0 0.0517477 0
0 0.0567544 0
0 0.0612923 0
0 0.0653529 0
0 0.0689285 0
0 0.0720134 0
0 0.0746034 0
0 0.0766962 0
0 0.0782915 0
0 0.0793908 0
0 0.0799974 0
0 0.0801167 0
0 0.0797559 0
0 0.0789243 0
0 0.0776328 0
0 0.0758948 0
0 0.0737254 0
0 0.071142 0
0 0.0681645 0
0 0.0648149 0
0 0.0611178 0
0 0.0571006 0
0 0.0527932 0
0 0.0482283 0
0 0.0434414 0
0 0.038471 0
0 0.0333584 0
0 0.0281479 0
0 0.0228868 0
0 0.0176258 0
0 0.012419 0
0 0.00732479 0
0 0.00240672 0
0 0.00366163 0
0 0.0107775 0
0 0.0174902 0
0 0.0238169 0
0 0.0297638 0
0 0.0353302 0
0 0.040511 0
0 0.0452988 0
0 0.0496853 0
0 0.053662 0
0 0.0572211 0
0 0.0603557 0
0 0.0630603 0
0 0.0653312 0
0 0.0671659 0
0 0.068564 0
0 0.0695265 0
0 0.0700564 0
0 0.0701582 0
0 0.0698384 0
0 0.069105 0
0 0.0679679 0
0 0.0664389 0
0 0.0645317 0
0 0.0622618 0
0 0.0596469 0
0 0.0567068 0
0 0.0534633 0
0 0.0499407 0
0 0.0461655 0
0 0.0421665 0
0 0.0379751 0
0 0.0336249 0
0 0.0291522 0
0 0.0245955 0
0 0.0199962 0
0 0.0153982 0
0 0.0108487 0
0 0.00639833 0
0 0.00210226 0
0 0.00316709 0
0 0.00932197 0
0 0.0151285 0
0 0.0206016 0
0 0.0257468 0
0 0.0305634 0
0 0.0350472 0
0 0.0391916 0
0 0.0429893 0
0 0.0464329 0
0 0.0495153 0
0 0.0522305 0
0 0.0545734 0
0 0.0565406 0
0 0.0581298 0
0 0.0593404 0
0 0.0601733 0
0 0.0606307 0
0 0.0607168 0
0 0.060437 0
0 0.0597984 0
0 0.0588098 0
0 0.0574814 0
0 0.0558253 0
0 0.0538553 0
0 0.0515868 0
0 0.0490372 0
0 0.0462259 0
0 0.0431739 0
0 0.0399044 0
0 0.0364426 0
0 0.0328156 0
0 0.0290527 0
0 0.0251851 0
0 0.0212462 0
0 0.0172716 0
0 0.0132991 0
0 0.00936923 0
0 0.00552556 0
0 0.00181546 0
0 0.00269694 0
0 0.0079382 0
0 0.012883 0
0 0.0175443 0
0 0.0219266 0
0 0.0260297 0
0 0.0298497 0
0 0.0333811 0
0 0.0366176 0
0 0.0395527 0
0 0.0421804 0
0 0.0444951 0
0 0.0464928 0
0 0.04817 0
0 0.0495248 0
0 0.0505565 0
0 0.0512658 0
0 0.0516547 0
0 0.0517265 0
0 0.0514859 0
0 0.0509391 0
0 0.0500935 0
0 0.0489581 0
0 0.0475432 0
0 0.0458608 0
0 0.0439243 0
0 0.0417487 0
0 0.0393505 0
0 0.036748 0
0 0.033961 0
0 0.031011 0
0 0.0279214 0
0 0.024717 0
0 0.0214245 0
0 0.0180721 0
0 0.0146901 0
0 0.0113107 0
0 0.00796799 0
0 0.00469901 0
0 0.00154387 0
0 0.00224759 0
0 0.00661565 0
0 0.0107368 0
0 0.0146218 0
0 0.0182747 0
0 0.0216951 0
0 0.0248799 0
0 0.0278245 0
0 0.0305234 0
0 0.0329713 0
0 0.035163 0
0 0.0370939 0
0 0.0387603 0
0 0.0401594 0
0 0.0412895 0
0 0.0421499 0
0 0.042741 0
0 0.0430646 0
0 0.0431233 0
0 0.0429212 0
0 0.0424633 0
0 0.041756 0
0 0.0408069 0
0 0.0396246 0
0 0.0382192 0
0 0.0366021 0
0 0.0347858 0
0 0.0327844 0
0 0.030613 0
0 0.0282885 0
0 0.0258287 0
0 0.0232532 0
0 0.0205827 0
0 0.0178394 0
0 0.0150469 0
0 0.0122303 0
0 0.00941621 0
0 0.00663315 0
0 0.0039117 0
0 0.00128518 0
0 0.00181563 0
0 0.00534423 0
0 0.00867348 0
0 0.0118121 0
0 0.0147634 0
0 0.017527 0
0 0.0201005 0
0 0.0224801 0
0 0.0246615 0
0 0.0266401 0
0 0.0284117 0
0 0.0299726 0
0 0.0313198 0
0 0.0324509 0
0 0.0333643 0
0 0.0340597 0
0 0.0345372 0
0 0.0347982 0
0 0.0348449 0
0 0.0346805 0
0 0.0343092 0
0 0.0337362 0
0 0.0329675 0
0 0.0320104 0
0 0.030873 0
0 0.0295646 0
0 0.0280954 0
0 0.0264767 0
0 0.0247212 0
0 0.0228421 0
0 0.0208543 0
0 0.0187734 0
0 0.0166162 0
0 0.0144006 0
0 0.0121457 0
0 0.00987161 0
0 0.00759992 0
0 0.00535351 0
0 0.003157 0
0 0.00103721 0
0 0.00139774 0
0 0.0041142 0
0 0.00667725 0
0 0.00909362 0
0 0.0113659 0
0 0.0134938 0
0 0.0154754 0
0 0.0173079 0
0 0.0189878 0
0 0.0205117 0
0 0.0218762 0
0 0.0230786 0
0 0.0241162 0
0 0.0249874 0
0 0.025691 0
0 0.0262265 0
0 0.0265941 0
0 0.0267947 0
0 0.0268302 0
0 0.026703 0
0 0.0264163 0
0 0.0259742 0
0 0.0253813 0
0 0.0246432 0
0 0.0237663 0
0 0.0227578 0
0 0.0216255 0
0 0.0203784 0
0 0.019026 0
0 0.0175787 0
0 0.0160479 0
0 0.0144458 0
0 0.0127851 0
0 0.0110798 0
0 0.00934441 0
0 0.00759455 0
0 0.00584667 0
0 0.00411839 0
0 0.0024286 0
0 0.000797895 0
0 0.000990694 0
0 0.00291609 0
0 0.00473277 0
0 0.00644554 0
0 0.00805619 0
0 0.0095646 0
0 0.0109694 0
0 0.0122685 0
0 0.0134595 0
0 0.01454 0
0 0.0155075 0
0 0.01636 0
0 0.0170958 0
0 0.0177136 0
0 0.0182124 0