# vtk DataFile Version 2.0
Presion
ASCII

DATASET STRUCTURED_GRID
DIMENSIONS   40   40   20

POINTS   32000   double
0.0125   0.0125   0.025
0.0375   0.0125   0.025
0.0625   0.0125   0.025
0.0875   0.0125   0.025
0.1125   0.0125   0.025
0.1375   0.0125   0.025
0.1625   0.0125   0.025
0.1875   0.0125   0.025
0.2125   0.0125   0.025
0.2375   0.0125   0.025
0.2625   0.0125   0.025
0.2875   0.0125   0.025
0.3125   0.0125   0.025
0.3375   0.0125   0.025
0.3625   0.0125   0.025
0.3875   0.0125   0.025
0.4125   0.0125   0.025
0.4375   0.0125   0.025
0.4625   0.0125   0.025
0.4875   0.0125   0.025
0.5125   0.0125   0.025
0.5375   0.0125   0.025
0.5625   0.0125   0.025
0.5875   0.0125   0.025
0.6125   0.0125   0.025
0.6375   0.0125   0.025
0.6625   0.0125   0.025
0.6875   0.0125   0.025
0.7125   0.0125   0.025
0.7375   0.0125   0.025
0.7625   0.0125   0.025
0.7875   0.0125   0.025
0.8125   0.0125   0.025
0.8375   0.0125   0.025
0.8625   0.0125   0.025
0.8875   0.0125   0.025
0.9125   0.0125   0.025
0.9375   0.0125   0.025
0.9625   0.0125   0.025
0.9875   0.0125   0.025
0.0125   0.0375   0.025
0.0375   0.0375   0.025
0.0625   0.0375   0.025
0.0875   0.0375   0.025
0.1125   0.0375   0.025
0.1375   0.0375   0.025
0.1625   0.0375   0.025
0.1875   0.0375   0.025
0.2125   0.0375   0.025
0.2375   0.0375   0.025
0.2625   0.0375   0.025
0.2875   0.0375   0.025
0.3125   0.0375   0.025
0.3375   0.0375   0.025
0.3625   0.0375   0.025
0.3875   0.0375   0.025
0.4125   0.0375   0.025
0.4375   0.0375   0.025
0.4625   0.0375   0.025
0.4875   0.0375   0.025
0.5125   0.0375   0.025
0.5375   0.0375   0.025
0.5625   0.0375   0.025
0.5875   0.0375   0.025
0.6125   0.0375   0.025
0.6375   0.0375   0.025
0.6625   0.0375   0.025
0.6875   0.0375   0.025
0.7125   0.0375   0.025
0.7375   0.0375   0.025
0.7625   0.0375   0.025
0.7875   0.0375   0.025
0.8125   0.0375   0.025
0.8375   0.0375   0.025
0.8625   0.0375   0.025
0.8875   0.0375   0.025
0.9125   0.0375   0.025
0.9375   0.0375   0.025
0.9625   0.0375   0.025
0.9875   0.0375   0.025
0.0125   0.0625   0.025
0.0375   0.0625   0.025
0.0625   0.0625   0.025
0.0875   0.0625   0.025
0.1125   0.0625   0.025
0.1375   0.0625   0.025
0.1625   0.0625   0.025
0.1875   0.0625   0.025
0.2125   0.0625   0.025
0.2375   0.0625   0.025
0.2625   0.0625   0.025
0.2875   0.0625   0.025
0.3125   0.0625   0.025
0.3375   0.0625   0.025
0.3625   0.0625   0.025
0.3875   0.0625   0.025
0.4125   0.0625   0.025
0.4375   0.0625   0.025
0.4625   0.0625   0.025
0.4875   0.0625   0.025
0.5125   0.0625   0.025
0.5375   0.0625   0.025
0.5625   0.0625   0.025
0.5875   0.0625   0.025
0.6125   0.0625   0.025
0.6375   0.0625   0.025
0.6625   0.0625   0.025
0.6875   0.0625   0.025
0.7125   0.0625   0.025
0.7375   0.0625   0.025
0.7625   0.0625   0.025
0.7875   0.0625   0.025
0.8125   0.0625   0.025
0.8375   0.0625   0.025
0.8625   0.0625   0.025
0.8875   0.0625   0.025
0.9125   0.0625   0.025
0.9375   0.0625   0.025
0.9625   0.0625   0.025
0.9875   0.0625   0.025
0.0125   0.0875   0.025
0.0375   0.0875   0.025
0.0625   0.0875   0.025
0.0875   0.0875   0.025
0.1125   0.0875   0.025
0.1375   0.0875   0.025
0.1625   0.0875   0.025
0.1875   0.0875   0.025
0.2125   0.0875   0.025
0.2375   0.0875   0.025
0.2625   0.0875   0.025
0.2875   0.0875   0.025
0.3125   0.0875   0.025
0.3375   0.0875   0.025
0.3625   0.0875   0.025
0.3875   0.0875   0.025
0.4125   0.0875   0.025
0.4375   0.0875   0.025
0.4625   0.0875   0.025
0.4875   0.0875   0.025
0.5125   0.0875   0.025
0.5375   0.0875   0.025
0.5625   0.0875   0.025
0.5875   0.0875   0.025
0.6125   0.0875   0.025
0.6375   0.0875   0.025
0.6625   0.0875   0.025
0.6875   0.0875   0.025
0.7125   0.0875   0.025
0.7375   0.0875   0.025
0.7625   0.0875   0.025
0.7875   0.0875   0.025
0.8125   0.0875   0.025
0.8375   0.0875   0.025
0.8625   0.0875   0.025
0.8875   0.0875   0.025
0.9125   0.0875   0.025
0.9375   0.0875   0.025
0.9625   0.0875   0.025
0.9875   0.0875   0.025
0.0125   0.1125   0.025
0.0375   0.1125   0.025
0.0625   0.1125   0.025
0.0875   0.1125   0.025
0.1125   0.1125   0.025
0.1375   0.1125   0.025
0.1625   0.1125   0.025
0.1875   0.1125   0.025
0.2125   0.1125   0.025
0.2375   0.1125   0.025
0.2625   0.1125   0.025
0.2875   0.1125   0.025
0.3125   0.1125   0.025
0.3375   0.1125   0.025
0.3625   0.1125   0.025
0.3875   0.1125   0.025
0.4125   0.1125   0.025
0.4375   0.1125   0.025
0.4625   0.1125   0.025
0.4875   0.1125   0.025
0.5125   0.1125   0.025
0.5375   0.1125   0.025
0.5625   0.1125   0.025
0.5875   0.1125   0.025
0.6125   0.1125   0.025
0.6375   0.1125   0.025
0.6625   0.1125   0.025
0.6875   0.1125   0.025
0.7125   0.1125   0.025
0.7375   0.1125   0.025
0.7625   0.1125   0.025
0.7875   0.1125   0.025
0.8125   0.1125   0.025
0.8375   0.1125   0.025
0.8625   0.1125   0.025
0.8875   0.1125   0.025
0.9125   0.1125   0.025
0.9375   0.1125   0.025
0.9625   0.1125   0.025
0.9875   0.1125   0.025
0.0125   0.1375   0.025
0.0375   0.1375   0.025
0.0625   0.1375   0.025
0.0875   0.1375   0.025
0.1125   0.1375   0.025
0.1375   0.1375   0.025
0.1625   0.1375   0.025
0.1875   0.1375   0.025
0.2125   0.1375   0.025
0.2375   0.1375   0.025
0.2625   0.1375   0.025
0.2875   0.1375   0.025
0.3125   0.1375   0.025
0.3375   0.1375   0.025
0.3625   0.1375   0.025
0.3875   0.1375   0.025
0.4125   0.1375   0.025
0.4375   0.1375   0.025
0.4625   0.1375   0.025
0.4875   0.1375   0.025
0.5125   0.1375   0.025
0.5375   0.1375   0.025
0.5625   0.1375   0.025
0.5875   0.1375   0.025
0.6125   0.1375   0.025
0.6375   0.1375   0.025
0.6625   0.1375   0.025
0.6875   0.1375   0.025
0.7125   0.1375   0.025
0.7375   0.1375   0.025
0.7625   0.1375   0.025
0.7875   0.1375   0.025
0.8125   0.1375   0.025
0.8375   0.1375   0.025
0.8625   0.1375   0.025
0.8875   0.1375   0.025
0.9125   0.1375   0.025
0.9375   0.1375   0.025
0.9625   0.1375   0.025
0.9875   0.1375   0.025
0.0125   0.1625   0.025
0.0375   0.1625   0.025
0.0625   0.1625   0.025
0.0875   0.1625   0.025
0.1125   0.1625   0.025
0.1375   0.1625   0.025
0.1625   0.1625   0.025
0.1875   0.1625   0.025
0.2125   0.1625   0.025
0.2375   0.1625   0.025
0.2625   0.1625   0.025
0.2875   0.1625   0.025
0.3125   0.1625   0.025
0.3375   0.1625   0.025
0.3625   0.1625   0.025
0.3875   0.1625   0.025
0.4125   0.1625   0.025
0.4375   0.1625   0.025
0.4625   0.1625   0.025
0.4875   0.1625   0.025
0.5125   0.1625   0.025
0.5375   0.1625   0.025
0.5625   0.1625   0.025
0.5875   0.1625   0.025
0.6125   0.1625   0.025
0.6375   0.1625   0.025
0.6625   0.1625   0.025
0.6875   0.1625   0.025
0.7125   0.1625   0.025
0.7375   0.1625   0.025
0.7625   0.1625   0.025
0.7875   0.1625   0.025
0.8125   0.1625   0.025
0.8375   0.1625   0.025
0.8625   0.1625   0.025
0.8875   0.1625   0.025
0.9125   0.1625   0.025
0.9375   0.1625   0.025
0.9625   0.1625   0.025
0.9875   0.1625   0.025
0.0125   0.1875   0.025
0.0375   0.1875   0.025
0.0625   0.1875   0.025
0.0875   0.1875   0.025
0.1125   0.1875   0.025
0.1375   0.1875   0.025
0.1625   0.1875   0.025
0.1875   0.1875   0.025
0.2125   0.1875   0.025
0.2375   0.1875   0.025
0.2625   0.1875   0.025
0.2875   0.1875   0.025
0.3125   0.1875   0.025
0.3375   0.1875   0.025
0.3625   0.1875   0.025
0.3875   0.1875   0.025
0.4125   0.1875   0.025
0.4375   0.1875   0.025
0.4625   0.1875   0.025
0.4875   0.1875   0.025
0.5125   0.1875   0.025
0.5375   0.1875   0.025
0.5625   0.1875   0.025
0.5875   0.1875   0.025
0.6125   0.1875   0.025
0.6375   0.1875   0.025
0.6625   0.1875   0.025
0.6875   0.1875   0.025
0.7125   0.1875   0.025
0.7375   0.1875   0.025
0.7625   0.1875   0.025
0.7875   0.1875   0.025
0.8125   0.1875   0.025
0.8375   0.1875   0.025
0.8625   0.1875   0.025
0.8875   0.1875   0.025
0.9125   0.1875   0.025
0.9375   0.1875   0.025
0.9625   0.1875   0.025
0.9875   0.1875   0.025
0.0125   0.2125   0.025
0.0375   0.2125   0.025
0.0625   0.2125   0.025
0.0875   0.2125   0.025
0.1125   0.2125   0.025
0.1375   0.2125   0.025
0.1625   0.2125   0.025
0.1875   0.2125   0.025
0.2125   0.2125   0.025
0.2375   0.2125   0.025
0.2625   0.2125   0.025
0.2875   0.2125   0.025
0.3125   0.2125   0.025
0.3375   0.2125   0.025
0.3625   0.2125   0.025
0.3875   0.2125   0.025
0.4125   0.2125   0.025
0.4375   0.2125   0.025
0.4625   0.2125   0.025
0.4875   0.2125   0.025
0.5125   0.2125   0.025
0.5375   0.2125   0.025
0.5625   0.2125   0.025
0.5875   0.2125   0.025
0.6125   0.2125   0.025
0.6375   0.2125   0.025
0.6625   0.2125   0.025
0.6875   0.2125   0.025
0.7125   0.2125   0.025
0.7375   0.2125   0.025
0.7625   0.2125   0.025
0.7875   0.2125   0.025
0.8125   0.2125   0.025
0.8375   0.2125   0.025
0.8625   0.2125   0.025
0.8875   0.2125   0.025
0.9125   0.2125   0.025
0.9375   0.2125   0.025
0.9625   0.2125   0.025
0.9875   0.2125   0.025
0.0125   0.2375   0.025
0.0375   0.2375   0.025
0.0625   0.2375   0.025
0.0875   0.2375   0.025
0.1125   0.2375   0.025
0.1375   0.2375   0.025
0.1625   0.2375   0.025
0.1875   0.2375   0.025
0.2125   0.2375   0.025
0.2375   0.2375   0.025
0.2625   0.2375   0.025
0.2875   0.2375   0.025
0.3125   0.2375   0.025
0.3375   0.2375   0.025
0.3625   0.2375   0.025
0.3875   0.2375   0.025
0.4125   0.2375   0.025
0.4375   0.2375   0.025
0.4625   0.2375   0.025
0.4875   0.2375   0.025
0.5125   0.2375   0.025
0.5375   0.2375   0.025
0.5625   0.2375   0.025
0.5875   0.2375   0.025
0.6125   0.2375   0.025
0.6375   0.2375   0.025
0.6625   0.2375   0.025
0.6875   0.2375   0.025
0.7125   0.2375   0.025
0.7375   0.2375   0.025
0.7625   0.2375   0.025
0.7875   0.2375   0.025
0.8125   0.2375   0.025
0.8375   0.2375   0.025
0.8625   0.2375   0.025
0.8875   0.2375   0.025
0.9125   0.2375   0.025
0.9375   0.2375   0.025
0.9625   0.2375   0.025
0.9875   0.2375   0.025
0.0125   0.2625   0.025
0.0375   0.2625   0.025
0.0625   0.2625   0.025
0.0875   0.2625   0.025
0.1125   0.2625   0.025
0.1375   0.2625   0.025
0.1625   0.2625   0.025
0.1875   0.2625   0.025
0.2125   0.2625   0.025
0.2375   0.2625   0.025
0.2625   0.2625   0.025
[...]
POINT_DATA   32000
SCALARS Presion double
LOOKUP_TABLE   Presion

0 0 0 0 0 0 0 0 0 0 0 0 0 0 0 0 0 0 0 0 0 0 0 0 0 0 0 0 0 0 0 0 0 0 0 0 0 0 0 0 -8.32802e-08 -8.23952e-08 -8.06305e-08 -7.80181e-08 -7.46153e-08 -7.05014e-08 -6.57731e-08 -6.05393e-08 -5.49152e-08 -4.90161e-08 -4.29516e-08 -3.81816e-08 -3.34498e-08 -2.88203e-08 -2.43374e-08 -2.00249e-08 -1.58873e-08 -1.19109e-08 -8.06672e-09 -4.31349e-09 -6.00842e-10 3.04011e-09 6.75102e-09 1.05848e-08 1.45887e-08 1.88005e-08 2.32455e-08 2.7933e-08 3.28541e-08 3.79795e-08 4.32589e-08 4.98403e-08 5.64391e-08 6.29482e-08 6.92479e-08 7.52116e-08 8.07113e-08 8.5624e-08 8.98381e-08 9.32593e-08 -1.74632e-07 -1.72763e-07 -1.69036e-07 -1.63521e-07 -1.56342e-07 -1.47669e-07 -1.37708e-07 -1.26691e-07 -1.14865e-07 -1.02474e-07 -8.9751e-08 -7.97017e-08 -6.97473e-08 -6.00224e-08 -5.06187e-08 -4.15846e-08 -3.29273e-08 -2.46157e-08 -1.65867e-08 -8.75136e-09 -1.00183e-09 6.60934e-09 1.43705e-08 2.23942e-08 3.0781e-08 3.96116e-08 4.89397e-08 5.87857e-08 6.91306e-08 7.99128e-08 9.10255e-08 1.04839e-07 1.1869e-07 1.32352e-07 1.45569e-07 1.58072e-07 1.6959e-07 1.79862e-07 1.88651e-07 1.95757e-07 -2.80443e-07 -2.77402e-07 -2.71345e-07 -2.62389e-07 -2.5074e-07 -2.36681e-07 -2.20555e-07 -2.02745e-07 -1.83656e-07 -1.63692e-07 -1.43232e-07 -1.26978e-07 -1.10917e-07 -9.52649e-08 -8.01667e-08 -6.5696e-08 -5.18581e-08 -3.8597e-08 -2.58049e-08 -1.33322e-08 -1.00008e-09 1.11371e-08 2.35234e-08 3.63444e-08 4.97658e-08 6.3921e-08 7.88992e-08 9.47352e-08 1.114e-07 1.28792e-07 1.46739e-07 1.6896e-07 1.91249e-07 2.13232e-07 2.34494e-07 2.5459e-07 2.73074e-07 2.89519e-07 3.03538e-07 3.14806e-07 -4.07904e-07 -4.03406e-07 -3.94451e-07 -3.81222e-07 -3.64036e-07 -3.43322e-07 -3.19601e-07 -2.93453e-07 -2.65487e-07 -2.36308e-07 -2.06484e-07 -1.82625e-07 -1.5913e-07 -1.36311e-07 -1.14373e-07 -9.34149e-08 -7.34331e-08 -5.43334e-08 -3.59454e-08 -1.80393e-08 -3.43097e-10 1.71185e-08 3.49585e-08 5.34567e-08 7.28624e-08 9.33775e-08 1.15139e-07 1.38201e-07 1.62524e-07 1.87962e-07 2.14256e-07 2.46653e-07 2.79172e-07 3.11253e-07 3.42269e-07 3.71556e-07 3.98446e-07 4.22297e-07 4.42534e-07 4.58676e-07 -5.65351e-07 -5.58985e-07 -5.46321e-07 -5.27634e-07 -5.03389e-07 -4.74215e-07 -4.40871e-07 -4.042e-07 -3.65083e-07 -3.24388e-07 -2.82929e-07 -2.4951e-07 -2.16736e-07 -1.8504e-07 -1.54698e-07 -1.2583e-07 -9.84093e-08 -7.22842e-08 -4.71955e-08 -2.28028e-08 1.29068e-09 2.51356e-08 4.95329e-08 7.48862e-08 1.01556e-07 1.29836e-07 1.59928e-07 1.91917e-07 2.25753e-07 2.61233e-07 2.97992e-07 3.43037e-07 3.88296e-07 4.32964e-07 4.76141e-07 5.1687e-07 5.54187e-07 5.87174e-07 6.15006e-07 6.37e-07 -7.62637e-07 -7.53838e-07 -7.3635e-07 -7.10574e-07 -6.77183e-07 -6.37079e-07 -5.91344e-07 -5.41177e-07 -4.87827e-07 -4.32517e-07 -3.76384e-07 -3.30778e-07 -2.86273e-07 -2.43449e-07 -2.02661e-07 -1.64043e-07 -1.27526e-07 -9.28677e-08 -5.9683e-08 -2.74786e-08 4.31164e-09 3.58774e-08 6.82326e-08 1.01946e-07 1.37528e-07 1.75396e-07 2.15842e-07 2.58998e-07 3.04808e-07 3.53e-07 4.03071e-07 4.64078e-07 5.25455e-07 5.86073e-07 6.44665e-07 6.9988e-07 7.50361e-07 7.94814e-07 8.32085e-07 8.61224e-07 -1.01155e-06 -9.99554e-07 -9.75739e-07 -9.40683e-07 -8.95343e-07 -8.40997e-07 -7.79171e-07 -7.11552e-07 -6.39887e-07 -5.65881e-07 -4.91102e-07 -4.29876e-07 -3.70463e-07 -3.13626e-07 -2.59805e-07 -2.09134e-07 -1.61468e-07 -1.16429e-07 -7.34493e-08 -3.18254e-08 9.23843e-09 5.01565e-08 9.2188e-08 1.36123e-07 1.82671e-07 2.32421e-07 2.85792e-07 3.4299e-07 4.03957e-07 4.6834e-07 5.35465e-07 6.1677e-07 6.98712e-07 7.79725e-07 8.58041e-07 9.31779e-07 9.99045e-07 1.05804e-06 1.10717e-06 1.14512e-06 -1.32629e-06 -1.31008e-06 -1.27794e-06 -1.23069e-06 -1.16968e-06 -1.09671e-06 -1.01391e-06 -9.2364e-07 -8.28325e-07 -7.30325e-07 -6.3179e-07 -5.50523e-07 -4.72163e-07 -3.97692e-07 -3.27639e-07 -2.62105e-07 -2.00819e-07 -1.43196e-07 -8.84147e-08 -3.54789e-08 1.67155e-08 6.89197e-08 1.2268e-07 1.79079e-07 2.39096e-07 3.03551e-07 3.73045e-07 4.47894e-07 5.2806e-07 6.13098e-07 7.02114e-07 8.09318e-07 9.176e-07 1.0248e-06 1.12848e-06 1.22603e-06 1.31482e-06 1.39238e-06 1.45649e-06 1.50537e-06 -1.72402e-06 -1.70227e-06 -1.65917e-06 -1.59588e-06 -1.5143e-06 -1.41694e-06 -1.30677e-06 -1.18706e-06 -1.06118e-06 -9.32372e-07 -8.0357e-07 -6.96645e-07 -5.94276e-07 -4.97705e-07 -4.07536e-07 -3.23789e-07 -2.4598e-07 -1.73225e-07 -1.04338e-07 -3.7926e-08 2.75271e-08 9.32514e-08 1.61133e-07 2.3264e-07 3.09108e-07 3.91676e-07 4.81199e-07 5.78163e-07 6.82587e-07 7.9393e-07 9.11027e-07 1.05129e-06 1.19335e-06 1.33425e-06 1.47062e-06 1.59886e-06 1.71535e-06 1.81666e-06 1.89978e-06 1.96227e-06 -2.22555e-06 -2.19648e-06 -2.13895e-06 -2.05458e-06 -1.94601e-06 -1.81673e-06 -1.67084e-06 -1.51289e-06 -1.34752e-06 -1.17919e-06 -1.01189e-06 -8.72234e-07 -7.3959e-07 -6.15495e-07 -5.00595e-07 -3.94731e-07 -2.97085e-07 -2.06329e-07 -1.2077e-07 -3.8479e-08 4.2604e-08 1.24365e-07 2.09094e-07 2.98758e-07 3.95163e-07 4.99878e-07 6.14121e-07 7.38641e-07 8.73574e-07 1.0183e-06 1.17133e-06 1.35375e-06 1.53912e-06 1.7234e-06 1.90196e-06 2.06982e-06 2.222e-06 2.3538e-06 2.46107e-06 2.54054e-06 -2.85601e-06 -2.81734e-06 -2.74084e-06 -2.6288e-06 -2.48486e-06 -2.31382e-06 -2.12137e-06 -1.91377e-06 -1.69742e-06 -1.47846e-06 -1.26231e-06 -1.0811e-06 -9.10524e-07 -7.52433e-07 -6.07427e-07 -4.7502e-07 -3.53868e-07 -2.41995e-07 -1.37006e-07 -3.62569e-08 6.30198e-08 1.63577e-07 2.68185e-07 3.79446e-07 4.9978e-07 6.31329e-07 7.75827e-07 9.34428e-07 1.1075e-06 1.29439e-06 1.49326e-06 1.72933e-06 1.97018e-06 2.21031e-06 2.44333e-06 2.66239e-06 2.86063e-06 3.03159e-06 3.16964e-06 3.27032e-06 -3.64586e-06 -3.59458e-06 -3.49322e-06 -3.34492e-06 -3.15469e-06 -2.9291e-06 -2.67597e-06 -2.40395e-06 -2.12186e-06 -1.83815e-06 -1.56021e-06 -1.32651e-06 -1.10875e-06 -9.09083e-07 -7.27885e-07 -5.64087e-07 -4.15526e-07 -2.79298e-07 -1.52045e-07 -3.01773e-08 8.99708e-08 2.12265e-07 3.40039e-07 4.76689e-07 6.25414e-07 7.89123e-07 9.70276e-07 1.17065e-06 1.39104e-06 1.63088e-06 1.88797e-06 2.19219e-06 2.50407e-06 2.81608e-06 3.11946e-06 3.40474e-06 3.66248e-06 3.88382e-06 4.0611e-06 4.18832e-06 -4.6319e-06 -4.56412e-06 -4.43023e-06 -4.23454e-06 -3.98382e-06 -3.68703e-06 -3.35492e-06 -2.99934e-06 -2.63252e-06 -2.26609e-06 -1.91016e-06 -1.61056e-06 -1.33465e-06 -1.08474e-06 -8.60698e-07 -6.60441e-07 -4.80558e-07 -3.16815e-07 -1.64556e-07 -1.89709e-08 1.24732e-07 2.71797e-07 4.26205e-07 5.92311e-07 7.7429e-07 9.76054e-07 1.20108e-06 1.4521e-06 1.73065e-06 2.03655e-06 2.36726e-06 2.75784e-06 3.16059e-06 3.5652e-06 3.95954e-06 4.33056e-06 4.66523e-06 4.95146e-06 5.17885e-06 5.3393e-06 -5.8586e-06 -5.7693e-06 -5.593e-06 -5.33547e-06 -5.00585e-06 -4.61627e-06 -4.18135e-06 -3.71738e-06 -3.2413e-06 -2.76926e-06 -2.31518e-06 -1.93334e-06 -1.58648e-06 -1.2768e-06 -1.00302e-06 -7.61388e-07 -5.46605e-07 -3.52568e-07 -1.72895e-07 -1.23168e-09 1.6858e-07 3.43437e-07 5.28029e-07 7.27831e-07 9.48195e-07 1.19432e-06 1.47109e-06 1.78268e-06 2.13196e-06 2.51955e-06 2.94292e-06 3.44274e-06 3.96176e-06 4.48575e-06 4.99788e-06 5.48006e-06 5.91436e-06 6.28426e-06 6.5757e-06 6.77784e-06 -7.37966e-06 -7.26239e-06 -7.03095e-06 -6.69302e-06 -6.26072e-06 -5.75031e-06 -5.18158e-06 -4.57688e-06 -3.95972e-06 -3.35273e-06 -2.77533e-06 -2.2916e-06 -1.85934e-06 -1.47992e-06 -1.14989e-06 -8.62738e-07 -6.1034e-07 -3.84023e-07 -1.75169e-07 2.44751e-08 2.22672e-07 4.28217e-07 6.46527e-07 8.84308e-07 1.14826e-06 1.44519e-06 1.78187e-06 2.16469e-06 2.59872e-06 3.08636e-06 3.62565e-06 4.26346e-06 4.93139e-06 5.60966e-06 6.27465e-06 6.90121e-06 7.46468e-06 7.94259e-06 8.31602e-06 8.57051e-06 -9.25988e-06 -9.10644e-06 -8.80363e-06 -8.36149e-06 -7.79592e-06 -7.1284e-06 -6.38548e-06 -5.59769e-06 -4.79781e-06 -4.01793e-06 -3.28571e-06 -2.67678e-06 -2.14355e-06 -1.68503e-06 -1.29371e-06 -9.58587e-07 -6.67455e-07 -4.08199e-07 -1.69407e-07 5.94205e-08 2.8786e-07 5.26784e-07 7.82257e-07 1.06221e-06 1.37479e-06 1.72867e-06 2.13316e-06 2.59783e-06 3.13145e-06 3.73993e-06 4.42328e-06 5.23529e-06 6.09449e-06 6.9728e-06 7.83678e-06 8.65128e-06 9.38243e-06 9.99988e-06 1.04783e-05 1.07987e-05 -1.15775e-05 -1.13775e-05 -1.09828e-05 -1.04062e-05 -9.66819e-06 -8.79676e-06 -7.82702e-06 -6.80038e-06 -5.76259e-06 -4.75999e-06 -3.83317e-06 -3.07209e-06 -2.4226e-06 -1.87816e-06 -1.42374e-06 -1.04129e-06 -7.12856e-07 -4.2196e-07 -1.53885e-07 1.04398e-07 3.64423e-07 6.39205e-07 9.35219e-07 1.26139e-06 1.62719e-06 2.04332e-06 2.52223e-06 3.07803e-06 3.72542e-06 4.47695e-06 5.33773e-06 6.36985e-06 7.47598e-06 8.61515e-06 9.73918e-06 1.07988e-05 1.17479e-05 1.25456e-05 1.31585e-05 1.35617e-05 -1.44268e-05 -1.41673e-05 -1.36549e-05 -1.29058e-05 -1.19458e-05 -1.08105e-05 -9.54545e-06 -8.20604e-06 -6.85602e-06 -5.56345e-06 -4.39082e-06 -3.44785e-06 -2.67047e-06 -2.03936e-06 -1.52607e-06 -1.10184e-06 -7.41205e-07 -4.22555e-07 -1.2763e-07 1.59241e-07 4.51653e-07 7.64729e-07 1.10482e-06 1.48121e-06 1.9042e-06 2.38637e-06 2.9437e-06 3.59625e-06 4.36792e-06 5.28338e-06 6.35975e-06 7.67108e-06 9.09905e-06 1.0581e-05 1.20465e-05 1.34265e-05 1.46586e-05 1.56889e-05 1.6474e-05 1.69816e-05 -1.79213e-05 -1.75862e-05 -1.69244e-05 -1.59555e-05 -1.47114e-05 -1.32362e-05 -1.15874e-05 -9.83695e-06 -8.07256e-06 -6.39544e-06 -4.90802e-06 -3.75432e-06 -2.84843e-06 -2.14238e-06 -1.58449e-06 -1.13109e-06 -7.47969e-07 -4.08471e-07 -9.11531e-08 2.22126e-07 5.47212e-07 9.01457e-07 1.28993e-06 1.72095e-06 2.20459e-06 2.75453e-06 3.38999e-06 4.13791e-06 5.03507e-06 6.12731e-06 7.45911e-06 9.12859e-06 1.09829e-05 1.29203e-05 1.4836e-05 1.66348e-05 1.82339e-05 1.95639e-05 2.05688e-05 2.12075e-05 -2.21975e-05 -2.17674e-05 -2.09171e-05 -1.96707e-05 -1.80662e-05 -1.61565e-05 -1.40111e-05 -1.17196e-05 -9.39768e-06 -7.19469e-06 -5.28969e-06 -3.91025e-06 -2.90297e-06 -2.15666e-06 -1.58335e-06 -1.12208e-06 -7.31091e-07 -3.80534e-07 -4.72863e-08 2.88608e-07 6.45957e-07 1.04587e-06 1.48914e-06 1.98062e-06 2.52845e-06 3.14589e-06 3.85365e-06 4.68429e-06 5.68929e-06 6.94764e-06 8.56425e-06 1.07067e-05 1.31414e-05 1.56915e-05 1.82026e-05 2.05474e-05 2.26206e-05 2.43346e-05 2.56193e-05 2.64226e-05 -2.74188e-05 -2.68699e-05 -2.57845e-05 -2.4191e-05 -2.21342e-05 -1.96754e-05 -1.6894e-05 -1.38932e-05 -1.08125e-05 -7.85641e-06 -5.34541e-06 -3.7874e-06 -2.76977e-06 -2.05517e-06 -1.51377e-06 -1.07399e-06 -6.93162e-07 -3.42961e-07 -1.78219e-09 3.50473e-07 7.37298e-07 1.19216e-06 1.70135e-06 2.26219e-06 2.87924e-06 3.56322e-06 4.33258e-06 5.21925e-06 6.28243e-06 7.63832e-06 9.51199e-06 1.23293e-05 1.55874e-05 1.89708e-05 2.22668e-05 2.53187e-05 2.79994e-05 3.02028e-05 3.18418e-05 3.28512e-05 -3.378e-05 -3.30841e-05 -3.17075e-05 -2.96846e-05 -2.70675e-05 -2.39253e-05 -2.03442e-05 -1.64299e-05 -1.232e-05 -8.22887e-06 -4.63542e-06 -3.20677e-06 -2.39982e-06 -1.83368e-06 -1.38399e-06 -9.97107e-07 -6.43498e-07 -3.03718e-07 3.73485e-08 3.95334e-07 7.97521e-07 1.3322e-06 1.92731e-06 2.57119e-06 3.26591e-06 4.01827e-06 4.83903e-06 5.74657e-06 6.77969e-06 8.04366e-06 9.89596e-06 1.38753e-05 1.83583e-05 2.28717e-05 2.71873e-05 3.11415e-05 3.45927e-05 3.7415e-05 3.95009e-05 4.07679e-05 -4.15115e-05 -4.06346e-05 -3.89007e-05 -3.63518e-05 -3.30497e-05 -2.90728e-05 -2.45124e-05 -1.94674e-05 -1.40302e-05 -8.24215e-06 -1.90804e-06 -2.06845e-06 -1.84566e-06 -1.544e-06 -1.2306e-06 -9.16393e-07 -5.98934e-07 -2.73428e-07 6.391e-08 4.13172e-07 7.61899e-07 1.46214e-06 2.17388e-06 2.91827e-06 3.7038e-06 4.53423e-06 5.40903e-06 6.32024e-06 7.241e-06 8.08254e-06 8.51351e-06 1.53047e-05 2.15995e-05 2.75772e-05 3.31725e-05 3.82538e-05 4.26702e-05 4.62705e-05 4.89186e-05 5.05075e-05 -5.08838e-05 -4.9785e-05 -4.76149e-05 -4.44268e-05 -4.02964e-05 -3.53165e-05 -2.95909e-05 -2.32259e-05 -1.63148e-05 -8.90884e-06 -9.68438e-07 -1.36106e-06 -1.41835e-06 -1.31033e-06 -1.11604e-06 -8.68741e-07 -5.82411e-07 -2.6385e-07 8.17004e-08 4.47062e-07 8.19687e-07 1.63326e-06 2.46129e-06 3.31848e-06 4.21191e-06 5.14157e-06 6.09844e-06 7.05878e-06 7.97096e-06 8.72721e-06 9.11495e-06 1.76475e-05 2.57173e-05 3.33546e-05 4.04776e-05 4.6938e-05 5.25528e-05 5.71287e-05 6.0485e-05 6.24774e-05 -6.22104e-05 -6.08399e-05 -5.81388e-05 -5.41775e-05 -4.90518e-05 -4.28766e-05 -3.57784e-05 -2.78872e-05 -1.93274e-05 -1.02087e-05 -6.30026e-07 -1.02675e-06 -1.19922e-06 -1.20582e-06 -1.09348e-06 -8.9214e-07 -6.20702e-07 -2.92466e-07 8.12219e-08 4.88646e-07 9.1658e-07 1.84544e-06 2.79741e-06 3.78252e-06 4.80577e-06 5.86491e-06 6.94748e-06 8.02591e-06 9.04987e-06 9.93729e-06 1.05758e-05 2.09126e-05 3.08961e-05 4.04292e-05 4.93664e-05 5.75077e-05 6.46112e-05 7.04153e-05 7.46697e-05 7.71718e-05 -7.58489e-05 -7.41456e-05 -7.07988e-05 -6.59037e-05 -5.95851e-05 -5.19889e-05 -4.3274e-05 -3.3605e-05 -2.3147e-05 -1.20663e-05 -5.41842e-07 -9.49411e-07 -1.18759e-06 -1.26493e-06 -1.20267e-06 -1.02235e-06 -7.4301e-07 -3.81543e-07 4.61792e-08 5.24221e-07 1.03596e-06 2.09327e-06 3.18303e-06 4.31473e-06 5.49334e-06 6.71683e-06 7.97345e-06 9.23826e-06 1.04695e-05 1.16069e-05 1.25794e-05 2.50431e-05 3.72326e-05 4.89862e-05 6.00975e-05 7.02988e-05 7.92634e-05 8.66277e-05 9.20339e-05 9.51883e-05 -9.21979e-05 -9.00862e-05 -8.59538e-05 -7.99321e-05 -7.21856e-05 -6.29017e-05 -5.22807e-05 -4.05281e-05 -2.78518e-05 -1.44651e-05 -5.97268e-07 -1.07145e-06 -1.37998e-06 -1.51308e-06 -1.47939e-06 -1.29571e-06 -9.81673e-07 -5.57519e-07 -4.35032e-08 5.39807e-07 1.1709e-06 2.37084e-06 3.61429e-06 4.91296e-06 6.27395e-06 7.6977e-06 9.17583e-06 1.06887e-05 1.2203e-05 1.36715e-05 1.50355e-05 3.002e-05 4.47984e-05 5.91819e-05 7.29158e-05 8.56566e-05 9.69669e-05 0.000106337 0.000113243 0.000117247 -0.000111689 -0.000109074 -0.000103985 -9.66048e-05 -8.71517e-05 -7.58674e-05 -6.30026e-05 -4.88088e-05 -3.35356e-05 -1.74349e-05 -7.72612e-07 -1.38457e-06 -1.79264e-06 -1.98355e-06 -1.96431e-06 -1.75327e-06 -1.37392e-06 -8.51495e-07 -2.11542e-07 5.20055e-07 1.31607e-06 2.67057e-06 4.08283e-06 5.5685e-06 7.13839e-06 8.7971e-06 1.05413e-05 1.23579e-05 1.42214e-05 1.60924e-05 1.79156e-05 3.58389e-05 5.36417e-05 7.11349e-05 8.80315e-05 0.000103911 0.000118198 0.000130179 0.000139076 0.000144208 -0.000134766 -0.000131532 -0.000125277 -0.000116259 -0.000104771 -9.11245e-05 -7.56315e-05 -5.85935e-05 -4.02991e-05 -2.10307e-05 -1.07919e-06 -1.91361e-06 -2.46373e-06 -2.72315e-06 -2.70718e-06 -2.44304e-06 -1.96287e-06 -1.2997e-06 -4.85826e-07 4.46843e-07 1.46497e-06 2.98165e-06 4.57512e-06 6.2658e-06 8.06911e-06 9.9949e-06 1.20462e-05 1.42172e-05 1.64909e-05 1.88354e-05 2.11984e-05 4.24788e-05 6.37652e-05 8.48974e-05 0.000105581 0.000125329 0.000143408 0.000158826 0.000170416 0.000177088 -0.000161863 -0.000157862 -0.000150184 -0.000139193 -0.000125285 -0.000108865 -9.03175e-05 -6.99983e-05 -4.82298e-05 -2.53127e-05 -1.54632e-06 -2.70406e-06 -3.44756e-06 -3.78958e-06 -3.76493e-06 -3.4182e-06 -2.79594e-06 -1.94235e-06 -8.98074e-07 2.98588e-07 1.60844e-06 3.28878e-06 5.07175e-06 6.98227e-06 9.04043e-06 1.12618e-05 1.36565e-05 1.62277e-05 1.89684e-05 2.18564e-05 2.48467e-05 4.98768e-05 7.50976e-05 0.000100416 0.00012557 0.00015004 0.000172937 0.000192917 0.000208223 0.000217063 -0.000193367 -0.000188411 -0.000178987 -0.000165615 -0.000148838 -0.000129182 -0.000107122 -8.30683e-05 -5.73683e-05 -3.03217e-05 -2.21046e-06 -3.8082e-06 -4.80154e-06 -5.24009e-06 -5.1919e-06 -4.72882e-06 -3.91814e-06 -2.81879e-06 -1.48099e-06 5.10728e-08 1.73382e-06 3.57143e-06 5.54714e-06 7.68844e-06 1.00189e-05 1.25596e-05 1.53286e-05 1.83392e-05 2.15969e-05 2.50935e-05 2.87972e-05 5.79112e-05 8.74692e-05 0.000117491 0.000147808 0.000177937 0.000206886 0.000232922 0.000253449 0.000265448 -0.000229587 -0.000223428 -0.00021184 -0.000195581 -0.000175405 -0.000152001 -0.00012595 -9.77188e-05 -6.76604e-05 -3.6046e-05 -3.10102e-06 -5.26342e-06 -6.56243e-06 -7.10843e-06 -7.01905e-06 -6.40394e-06 -5.35746e-06 -3.95627e-06 -2.2606e-06 -3.18712e-07 1.82495e-06 3.80455e-06 5.97084e-06 8.34958e-06 1.09653e-05 1.38432e-05 1.70096e-05 2.04898e-05 2.43045e-05 2.84638e-05 3.29563e-05 6.63951e-05 0.0001006 0.000135754 0.000171856 0.000208568 0.000244936 0.00027892 0.000306849 0.000323615 -0.000270729 -0.000263016 -0.0002487 -0.000228909 -0.000204703 -0.000176989 -0.000146473 -0.000113663 -7.88965e-05 -4.23761e-05 -4.21863e-06 -7.0591e-06 -8.70925e-06 -9.36838e-06 -9.22033e-06 -8.42196e-06 -7.09959e-06 -5.34948e-06 -3.2411e-06 -8.23301e-07 1.86464e-06 3.9625e-06 6.31208e-06 8.93015e-06 1.18381e-05 1.50637e-05 1.86411e-05 2.26085e-05 2.70051e-05 3.18644e-05 3.72011e-05 7.50787e-05 0.000114103 0.000154668 0.000197014 0.000241083 0.000286184 0.000330277 0.00036863 0.00039282 -0.000316883 -0.000307089 -0.000289242 -0.000265068 -0.000236078 -0.000203453 -0.000168029 -0.000130333 -9.06451e-05 -4.90537e-05 -5.50675e-06 -9.095e-06 -1.11175e-05 -1.18886e-05 -1.16705e-05 -1.06723e-05 -9.05396e-06 -6.9313e-06 -4.38105e-06 -1.44799e-06 1.84172e-06 4.02909e-06 6.54999e-06 9.40313e-06 1.26021e-05 1.61751e-05 2.01636e-05 2.46197e-05 2.9603e-05 3.51748e-05 4.13825e-05 8.36569e-05 0.000127504 0.00017356 0.000222368 0.00027426 0.000329073 0.000385321 0.000437875 0.00047382 -0.00036802 -0.000355283 -0.000332709 -0.000303019 -0.00026836 -0.000230225 -0.000189545 -0.000146814 -0.000102202 -5.563e-05 -6.82431e-06 -1.11448e-05 -1.35218e-05 -1.43971e-05 -1.41115e-05 -1.29235e-05 -1.10235e-05 -8.54411e-06 -5.56695e-06 -2.12882e-06 1.76421e-06 4.01434e-06 6.68998e-06 9.7644e-06 1.32403e-05 1.7145e-05 2.15264e-05 2.64505e-05 3.19985e-05 3.8263e-05 4.5329e-05 9.17771e-05 0.000140248 0.000191641 0.000246835 0.000306624 0.00037154 0.00044125 0.000511779 0.000566169 -0.000423931 -0.000406733 -0.000377616 -0.000340953 -0.000299683 -0.000255555 -0.000209482 -0.000161827 -0.000112581 -6.14574e-05 -7.93435e-06 -1.28518e-05 -1.55206e-05 -1.64906e-05 -1.61626e-05 -1.48308e-05 -1.27074e-05 -9.93704e-06 -6.60466e-06 -2.73904e-06 1.67384e-06 3.97146e-06 6.77935e-06 1.00465e-05 1.37661e-05 1.79647e-05 2.26966e-05 2.80404e-05 3.40979e-05 4.09936e-05 4.88537e-05 9.9051e-05 0.000151716 0.000208019 0.000269188 0.000336511 0.000411249 0.000494509 0.000585102 0.000667048 -0.000483956 -0.000459455 -0.000421147 -0.000375883 -0.000327287 -0.000277065 -0.000225881 -0.000173818 -0.000120615 -6.57651e-05 -8.53398e-06 -1.37978e-05 -1.66689e-05 -1.77359e-05 -1.74191e-05 -1.60262e-05 -1.37789e-05 -1.08288e-05 -7.26442e-06 -3.11315e-06 1.64567e-06 3.99266e-06 6.90208e-06 1.03146e-05 1.42212e-05 1.86504e-05 2.36625e-05 2.93468e-05 3.58221e-05 4.32405e-05 5.1769e-05 0.000105081 0.000161259 0.000221729 0.000288056 0.000362033 0.000445611 0.000541387 0.000650546 0.000769669 -0.000545789 -0.00050869 -0.000458061 -0.000403226 -0.000347533 -0.000292001 -0.00023671 -0.000181324 -0.000125292 -6.79194e-05 -8.3819e-06 -1.37128e-05 -1.67177e-05 -1.79095e-05 -1.7679e-05 -1.63252e-05 -1.407e-05 -1.10676e-05 -7.41262e-06 -3.14198e-06 1.74651e-06 4.15309e-06 7.12419e-06 1.06199e-05 1.46396e-05 1.92165e-05 2.4416e-05 3.03353e-05 3.71049e-05 4.48951e-05 5.39064e-05 0.000109501 0.000168266 0.00023183 0.000302036 0.000381138 0.000471649 0.000577943 0.000700544 0.000861441 -0.000600034 -0.000543138 -0.000479799 -0.00041741 -0.000357054 -0.000298455 -0.000240995 -0.000183955 -0.000126575 -6.80656e-05 -7.65352e-06 -1.29216e-05 -1.60454e-05 -1.7386e-05 -1.72861e-05 -1.60305e-05 -1.38387e-05 -1.08671e-05 -7.21623e-06 -2.93811e-06 1.93636e-06 4.39282e-06 7.38476e-06 1.09076e-05 1.49722e-05 1.96164e-05 2.49085e-05 3.09492e-05 3.78747e-05 4.58627e-05 5.51324e-05 0.000112023 0.000172246 0.000237548 0.000309933 0.000391937 0.000486428 0.000599207 0.000729657 0.00092198 0 0 0 0 0 0 0 0 0 0 0 0 0 0 0 0 0 0 0 0 0 0 0 0 0 0 0 0 0 0 0 0 0 0 0 0 0 0 0 0 -8.32785e-08 -8.23935e-08 -8.06288e-08 -7.80164e-08 -7.46137e-08 -7.04998e-08 -6.57717e-08 -6.0538e-08 -5.49141e-08 -4.90152e-08 -4.29509e-08 -3.81811e-08 -3.34494e-08 -2.882e-08 -2.43372e-08 -2.00248e-08 -1.58872e-08 -1.19109e-08 -8.06672e-09 -4.31349e-09 -6.00831e-10 3.04016e-09 6.75114e-09 1.0585e-08 1.4589e-08 1.8801e-08 2.32462e-08 2.79339e-08 3.28552e-08 3.79809e-08 4.32606e-08 4.98425e-08 5.64416e-08 6.29511e-08 6.92512e-08 7.52153e-08 8.07153e-08 8.56282e