# vtk DataFile Version 2.0
Velocidades
ASCII

DATASET STRUCTURED_GRID
DIMENSIONS   40   40   20

POINTS   32000   double
0.0125   0.0125   0.025
0.0125   0.0375   0.025
0.0125   0.0625   0.025
0.0125   0.0875   0.025
0.0125   0.1125   0.025
0.0125   0.1375   0.025
0.0125   0.1625   0.025
0.0125   0.1875   0.025
0.0125   0.2125   0.025
0.0125   0.2375   0.025
0.0125   0.2625   0.025
0.0125   0.2875   0.025
0.0125   0.3125   0.025
0.0125   0.3375   0.025
0.0125   0.3625   0.025
0.0125   0.3875   0.025
0.0125   0.4125   0.025
0.0125   0.4375   0.025
0.0125   0.4625   0.025
0.0125   0.4875   0.025
0.0125   0.5125   0.025
0.0125   0.5375   0.025
0.0125   0.5625   0.025
0.0125   0.5875   0.025
0.0125   0.6125   0.025
0.0125   0.6375   0.025
0.0125   0.6625   0.025
0.0125   0.6875   0.025
0.0125   0.7125   0.025
0.0125   0.7375   0.025
0.0125   0.7625   0.025
0.0125   0.7875   0.025
0.0125   0.8125   0.025
0.0125   0.8375   0.025
0.0125   0.8625   0.025
0.0125   0.8875   0.025
0.0125   0.9125   0.025
0.0125   0.9375   0.025
0.0125   0.9625   0.025
0.0125   0.9875   0.025
0.0375   0.0125   0.025
0.0375   0.0375   0.025
0.0375   0.0625   0.025
0.0375   0.0875   0.025
0.0375   0.1125   0.025
0.0375   0.1375   0.025
0.0375   0.1625   0.025
0.0375   0.1875   0.025
0.0375   0.2125   0.025
0.0375   0.2375   0.025
0.0375   0.2625   0.025
0.0375   0.2875   0.025
0.0375   0.3125   0.025
0.0375   0.3375   0.025
0.0375   0.3625   0.025
0.0375   0.3875   0.025
0.0375   0.4125   0.025
0.0375   0.4375   0.025
0.0375   0.4625   0.025
0.0375   0.4875   0.025
0.0375   0.5125   0.025
0.0375   0.5375   0.025
0.0375   0.5625   0.025
0.0375   0.5875   0.025
0.0375   0.6125   0.025
0.0375   0.6375   0.025
0.0375   0.6625   0.025
0.0375   0.6875   0.025
0.0375   0.7125   0.025
0.0375   0.7375   0.025
0.0375   0.7625   0.025
0.0375   0.7875   0.025
0.0375   0.8125   0.025
0.0375   0.8375   0.025
0.0375   0.8625   0.025
0.0375   0.8875   0.025
0.0375   0.9125   0.025
0.0375   0.9375   0.025
0.0375   0.9625   0.025
0.0375   0.9875   0.025
0.0625   0.0125   0.025
0.0625   0.0375   0.025
0.0625   0.0625   0.025
0.0625   0.0875   0.025
0.0625   0.1125   0.025
0.0625   0.1375   0.025
0.0625   0.1625   0.025
0.0625   0.1875   0.025
0.0625   0.2125   0.025
0.0625   0.2375   0.025
0.0625   0.2625   0.025
0.0625   0.2875   0.025
0.0625   0.3125   0.025
0.0625   0.3375   0.025
0.0625   0.3625   0.025
0.0625   0.3875   0.025
0.0625   0.4125   0.025
0.0625   0.4375   0.025
0.0625   0.4625   0.025
0.0625   0.4875   0.025
0.0625   0.5125   0.025
0.0625   0.5375   0.025
0.0625   0.5625   0.025
0.0625   0.5875   0.025
0.0625   0.6125   0.025
0.0625   0.6375   0.025
0.0625   0.6625   0.025
0.0625   0.6875   0.025
0.0625   0.7125   0.025
0.0625   0.7375   0.025
0.0625   0.7625   0.025
0.0625   0.7875   0.025
0.0625   0.8125   0.025
0.0625   0.8375   0.025
0.0625   0.8625   0.025
0.0625   0.8875   0.025
0.0625   0.9125   0.025
0.0625   0.9375   0.025
0.0625   0.9625   0.025
0.0625   0.9875   0.025
0.0875   0.0125   0.025
0.0875   0.0375   0.025
0.0875   0.0625   0.025
0.0875   0.0875   0.025
0.0875   0.1125   0.025
0.0875   0.1375   0.025
0.0875   0.1625   0.025
0.0875   0.1875   0.025
0.0875   0.2125   0.025
0.0875   0.2375   0.025
0.0875   0.2625   0.025
0.0875   0.2875   0.025
0.0875   0.3125   0.025
0.0875   0.3375   0.025
0.0875   0.3625   0.025
0.0875   0.3875   0.025
0.0875   0.4125   0.025
0.0875   0.4375   0.025
0.0875   0.4625   0.025
0.0875   0.4875   0.025
0.0875   0.5125   0.025
0.0875   0.5375   0.025
0.0875   0.5625   0.025
0.0875   0.5875   0.025
0.0875   0.6125   0.025
0.0875   0.6375   0.025
0.0875   0.6625   0.025
0.0875   0.6875   0.025
0.0875   0.7125   0.025
0.0875   0.7375   0.025
0.0875   0.7625   0.025
0.0875   0.7875   0.025
0.0875   0.8125   0.025
0.0875   0.8375   0.025
0.0875   0.8625   0.025
0.0875   0.8875   0.025
0.0875   0.9125   0.025
0.0875   0.9375   0.025
0.0875   0.9625   0.025
0.0875   0.9875   0.025
0.1125   0.0125   0.025
0.1125   0.0375   0.025
0.1125   0.0625   0.025
0.1125   0.0875   0.025
0.1125   0.1125   0.025
0.1125   0.1375   0.025
0.1125   0.1625   0.025
0.1125   0.1875   0.025
0.1125   0.2125   0.025
0.1125   0.2375   0.025
0.1125   0.2625   0.025
0.1125   0.2875   0.025
0.1125   0.3125   0.025
0.1125   0.3375   0.025
0.1125   0.3625   0.025
0.1125   0.3875   0.025
0.1125   0.4125   0.025
0.1125   0.4375   0.025
0.1125   0.4625   0.025
0.1125   0.4875   0.025
0.1125   0.5125   0.025
0.1125   0.5375   0.025
0.1125   0.5625   0.025
0.1125   0.5875   0.025
0.1125   0.6125   0.025
0.1125   0.6375   0.025
0.1125   0.6625   0.025
0.1125   0.6875   0.025
0.1125   0.7125   0.025
0.1125   0.7375   0.025
0.1125   0.7625   0.025
0.1125   0.7875   0.025
0.1125   0.8125   0.025
0.1125   0.8375   0.025
0.1125   0.8625   0.025
0.1125   0.8875   0.025
0.1125   0.9125   0.025
0.1125   0.9375   0.025
0.1125   0.9625   0.025
0.1125   0.9875   0.025
0.1375   0.0125   0.025
0.1375   0.0375   0.025
0.1375   0.0625   0.025
0.1375   0.0875   0.025
0.1375   0.1125   0.025
0.1375   0.1375   0.025
0.1375   0.1625   0.025
0.1375   0.1875   0.025
0.1375   0.2125   0.025
0.1375   0.2375   0.025
0.1375   0.2625   0.025
0.1375   0.2875   0.025
0.1375   0.3125   0.025
0.1375   0.3375   0.025
0.1375   0.3625   0.025
0.1375   0.3875   0.025
0.1375   0.4125   0.025
0.1375   0.4375   0.025
0.1375   0.4625   0.025
0.1375   0.4875   0.025
0.1375   0.5125   0.025
0.1375   0.5375   0.025
0.1375   0.5625   0.025
0.1375   0.5875   0.025
0.1375   0.6125   0.025
0.1375   0.6375   0.025
0.1375   0.6625   0.025
0.1375   0.6875   0.025
0.1375   0.7125   0.025
0.1375   0.7375   0.025
0.1375   0.7625   0.025
0.1375   0.7875   0.025
0.1375   0.8125   0.025
0.1375   0.8375   0.025
0.1375   0.8625   0.025
0.1375   0.8875   0.025
0.1375   0.9125   0.025
0.1375   0.9375   0.025
0.1375   0.9625   0.025
0.1375   0.9875   0.025
0.1625   0.0125   0.025
0.1625   0.0375   0.025
0.1625   0.0625   0.025
0.1625   0.0875   0.025
0.1625   0.1125   0.025
0.1625   0.1375   0.025
0.1625   0.1625   0.025
0.1625   0.1875   0.025
0.1625   0.2125   0.025
0.1625   0.2375   0.025
0.1625   0.2625   0.025
0.1625   0.2875   0.025
0.1625   0.3125   0.025
0.1625   0.3375   0.025
0.1625   0.3625   0.025
0.1625   0.3875   0.025
0.1625   0.4125   0.025
0.1625   0.4375   0.025
0.1625   0.4625   0.025
0.1625   0.4875   0.025
0.1625   0.5125   0.025
0.1625   0.5375   0.025
0.1625   0.5625   0.025
0.1625   0.5875   0.025
0.1625   0.6125   0.025
0.1625   0.6375   0.025
0.1625   0.6625   0.025
0.1625   0.6875   0.025
0.1625   0.7125   0.025
0.1625   0.7375   0.025
0.1625   0.7625   0.025
0.1625   0.7875   0.025
0.1625   0.8125   0.025
0.1625   0.8375   0.025
0.1625   0.8625   0.025
0.1625   0.8875   0.025
0.1625   0.9125   0.025
0.1625   0.9375   0.025
0.1625   0.9625   0.025
0.1625   0.9875   0.025
0.1875   0.0125   0.025
0.1875   0.0375   0.025
0.1875   0.0625   0.025
0.1875   0.0875   0.025
0.1875   0.1125   0.025
0.1875   0.1375   0.025
0.1875   0.1625   0.025
0.1875   0.1875   0.025
0.1875   0.2125   0.025
0.1875   0.2375   0.025
0.1875   0.2625   0.025
0.1875   0.2875   0.025
0.1875   0.3125   0.025
0.1875   0.3375   0.025
0.1875   0.3625   0.025
0.1875   0.3875   0.025
0.1875   0.4125   0.025
0.1875   0.4375   0.025
0.1875   0.4625   0.025
0.1875   0.4875   0.025
0.1875   0.5125   0.025
0.1875   0.5375   0.025
0.1875   0.5625   0.025
0.1875   0.5875   0.025
0.1875   0.6125   0.025
0.1875   0.6375   0.025
0.1875   0.6625   0.025
0.1875   0.6875   0.025
0.1875   0.7125   0.025
0.1875   0.7375   0.025
0.1875   0.7625   0.025
0.1875   0.7875   0.025
0.1875   0.8125   0.025
0.1875   0.8375   0.025
0.1875   0.8625   0.025
0.1875   0.8875   0.025
0.1875   0.9125   0.025
0.1875   0.9375   0.025
0.1875   0.9625   0.025
0.1875   0.9875   0.025
0.2125   0.0125   0.025
0.2125   0.0375   0.025
0.2125   0.0625   0.025
0.2125   0.0875   0.025
0.2125   0.1125   0.025
0.2125   0.1375   0.025
0.2125   0.1625   0.025
0.2125   0.1875   0.025
0.2125   0.2125   0.025
0.2125   0.2375   0.025
0.2125   0.2625   0.025
0.2125   0.2875   0.025
0.2125   0.3125   0.025
0.2125   0.3375   0.025
0.2125   0.3625   0.025
0.2125   0.3875   0.025
0.2125   0.4125   0.025
0.2125   0.4375   0.025
0.2125   0.4625   0.025
0.2125   0.4875   0.025
0.2125   0.5125   0.025
0.2125   0.5375   0.025
0.2125   0.5625   0.025
0.2125   0.5875   0.025
0.2125   0.6125   0.025
0.2125   0.6375   0.025
0.2125   0.6625   0.025
0.2125   0.6875   0.025
0.2125   0.7125   0.025
0.2125   0.7375   0.025
0.2125   0.7625   0.025
0.2125   0.7875   0.025
0.2125   0.8125   0.025
0.2125   0.8375   0.025
0.2125   0.8625   0.025
0.2125   0.8875   0.025
0.2125   0.9125   0.025
0.2125   0.9375   0.025
0.2125   0.9625   0.025
0.2125   0.9875   0.025
0.2375   0.0125   0.025
0.2375   0.0375   0.025
0.2375   0.0625   0.025
0.2375   0.0875   0.025
0.2375   0.1125   0.025
0.2375   0.1375   0.025
0.2375   0.1625   0.025
0.2375   0.1875   0.025
0.2375   0.2125   0.025
0.2375   0.2375   0.025
0.2375   0.2625   0.025
0.2375   0.2875   0.025
0.2375   0.3125   0.025
0.2375   0.3375   0.025
0.2375   0.3625   0.025
0.2375   0.3875   0.025
0.2375   0.4125   0.025
0.2375   0.4375   0.025
0.2375   0.4625   0.025
0.2375   0.4875   0.025
0.2375   0.5125   0.025
0.2375   0.5375   0.025
0.2375   0.5625   0.025
0.2375   0.5875   0.025
0.2375   0.6125   0.025
0.2375   0.6375   0.025
0.2375   0.6625   0.025
0.2375   0.6875   0.025
0.2375   0.7125   0.025
0.2375   0.7375   0.025
0.2375   0.7625   0.025
0.2375   0.7875   0.025
0.2375   0.8125   0.025
0.2375   0.8375   0.025
0.2375   0.8625   0.025
0.2375   0.8875   0.025
0.2375   0.9125   0.025
0.2375   0.9375   0.025
0.2375   0.9625   0.025
0.2375   0.9875   0.025
0.2625   0.0125   0.025
0.2625   0.0375   0.025
0.2625   0.0625   0.025
0.2625   0.0875   0.025
0.2625   0.1125   0.025
0.2625   0.1375   0.025
0.2625   0.1625   0.025
0.2625   0.1875   0.025
0.2625   0.2125   0.025
0.2625   0.2375   0.025
0.2625   0.2625   0.025
[...]
POINT_DATA   32000
VECTORS Velocidades double

6.48941e-05 0.00121036 0
0.000254224 0.00216593 0
0.000151986 0.00175651 0
-7.2489e-07 0.00159612 0
-0.000150661 0.00172934 0
-0.000288087 0.00213842 0
-0.000412713 0.00279623 0
-0.000525823 0.00367715 0
-0.000628571 0.00475849 0
-0.000721694 0.00601977 0
-0.000805524 0.00744195 0
-0.000880059 0.00900656 0
-0.000945041 0.0106952 0
-0.00100004 0.0124889 0
-0.00104454 0.0143682 0
-0.00107807 0.0163127 0
-0.00110025 0.0183017 0
-0.00111101 0.0203141 0
-0.00111065 0.0223294 0
-0.00110003 0.0243283 0
-0.00108072 0.0262945 0
-0.00105521 0.0282156 0
-0.00102713 0.0300857 0
-0.00100161 0.0319075 0
-0.000985747 0.0336961 0
-0.000989348 0.0354833 0
-0.0010261 0.0373242 0
-0.00111543 0.0393068 0
-0.00128548 0.0415663 0
-0.00157786 0.0443072 0
-0.00205542 0.0478384 0
-0.00281487 0.0526283 0
-0.00400773 0.0593943 0
-0.00587435 0.0692476 0
-0.00879372 0.0839235 0
-0.013317 0.106095 0
-0.0199257 0.139483 0
-0.0268847 0.186568 0
-0.016308 0.230241 0
0.124138 0.123426 0
0.000137223 0.00264656 0
0.000574497 0.00522674 0
0.000251376 0.00521071 0
-0.000288584 0.00554269 0
-0.000866365 0.00637944 0
-0.00142449 0.00776744 0
-0.00194583 0.00969907 0
-0.00242642 0.0121441 0
-0.00286614 0.0150636 0
-0.00326556 0.0184158 0
-0.0036248 0.0221579 0
-0.00394327 0.0262459 0
-0.00421966 0.0306351 0
-0.00445216 0.035279 0
-0.00463878 0.0401297 0
-0.00477772 0.0451376 0
-0.00486782 0.050252 0
-0.00490908 0.0554225 0
-0.00490326 0.0606001 0
-0.00485445 0.0657396 0
-0.00476981 0.0708025 0
-0.00466038 0.0757605 0
-0.00454205 0.0806002 0
-0.00443692 0.0853289 0
-0.0043751 0.0899816 0
-0.00439743 0.0946304 0
-0.00455949 0.0993971 0
-0.00493766 0.104469 0
-0.00563805 0.11012 0
-0.00680963 0.116741 0
-0.00866274 0.124872 0
-0.011494 0.135242 0
-0.0157156 0.148792 0
-0.0218745 0.166641 0
-0.0306 0.189846 0
-0.0422213 0.218567 0
-0.0549947 0.249484 0
-0.0574448 0.268578 0
0.00402219 0.236051 0
0.34864 0.0998423 0
7.33637e-05 0.00386135 0
0.000440673 0.00792404 0
-0.000204863 0.00852877 0
-0.00127069 0.00962417 0
-0.00246915 0.0113471 0
-0.00367103 0.0137649 0
-0.004821 0.0168896 0
-0.00589638 0.0206997 0
-0.00688817 0.0251556 0
-0.00779247 0.0302077 0
-0.00860665 0.0358012 0
-0.00932783 0.0418775 0
-0.00995235 0.0483751 0
-0.0104759 0.0552295 0
-0.0108942 0.0623737 0
-0.0112033 0.0697382 0
-0.0114011 0.0772521 0
-0.0114879 0.0848443 0
-0.011468 0.0924457 0
-0.011351 0.0999918 0
-0.011153 0.107426 0
-0.0108988 0.114706 0
-0.0106233 0.121807 0
-0.0103749 0.128728 0
-0.010218 0.135503 0
-0.0102385 0.142206 0
-0.0105497 0.148968 0
-0.0113014 0.155982 0
-0.012692 0.163521 0
-0.0149817 0.171946 0
-0.0185065 0.181703 0
-0.0236816 0.193295 0
-0.0309697 0.207183 0
-0.0407426 0.223527 0
-0.0528406 0.241584 0
-0.0652552 0.258387 0
-0.0702111 0.266084 0
-0.0425915 0.247884 0
0.0914563 0.17897 0
0.513641 0.0642164 0
-0.000144959 0.00500008 0
-0.000204238 0.0104495 0
-0.00136556 0.0116589 0
-0.00307685 0.0135307 0
-0.00500643 0.0161397 0
-0.00697258 0.0195337 0
-0.00888112 0.0237249 0
-0.0106848 0.0286961 0
-0.0123601 0.0344097 0
-0.0138941 0.0408152 0
-0.0152785 0.0478532 0
-0.0165059 0.0554583 0
-0.0175688 0.06356 0
-0.018459 0.0720837 0
-0.0191687 0.0809506 0
-0.0196914 0.0900786 0
-0.020023 0.099383 0
-0.020164 0.108778 0
-0.0201211 0.11818 0
-0.0199095 0.127507 0
-0.0195551 0.136687 0
-0.0190972 0.145659 0
-0.0185916 0.15438 0
-0.0181136 0.162829 0
-0.0177629 0.171015 0
-0.0176686 0.178986 0
-0.0179958 0.186827 0
-0.0189541 0.194674 0
-0.0208043 0.202703 0
-0.0238628 0.211123 0
-0.02849 0.220135 0
-0.0350426 0.22985 0
-0.0437338 0.240114 0
-0.0542784 0.250165 0
-0.0650296 0.257998 0
-0.0709138 0.259284 0
-0.0585488 0.245921 0
0.00462575 0.205739 0
0.18988 0.129822 0
0.619858 0.0412219 0
-0.000503619 0.00606418 0
-0.00130119 0.0127881 0
-0.00318826 0.0145203 0
-0.00567022 0.0170802 0
-0.00841456 0.0204786 0
-0.0112151 0.0247282 0
-0.0139507 0.0298263 0
-0.0165528 0.0357514 0
-0.0189823 0.0424661 0
-0.0212156 0.0499203 0
-0.0232364 0.058054 0
-0.0250311 0.0668 0
-0.0265866 0.0760847 0
-0.0278897 0.0858283 0
-0.0289279 0.0959459 0
-0.0296904 0.106348 0
-0.0301705 0.11694 0
-0.030367 0.127626 0
-0.0302879 0.138309 0
-0.0299525 0.148893 0
-0.0293946 0.159288 0
-0.0286662 0.169413 0
-0.0278402 0.179198 0
-0.0270151 0.188595 0
-0.0263183 0.197572 0
-0.0259111 0.206126 0
-0.0259934 0.214277 0
-0.026806 0.222064 0
-0.0286292 0.229534 0
-0.0317682 0.23671 0
-0.0365087 0.243538 0
-0.0430077 0.249774 0
-0.0510441 0.254809 0
-0.0594791 0.257349 0
-0.06511 0.254935 0
-0.0603037 0.243326 0
-0.0283462 0.216183 0
0.0645323 0.166736 0
0.277974 0.0954387 0
0.68936 0.0276054 0
-0.000978611 0.00702446 0
-0.0027709 0.0148783 0
-0.00557026 0.0170352 0
-0.00893985 0.0201602 0
-0.0125684 0.0242109 0
-0.0162472 0.0291626 0
-0.0198432 0.0349913 0
-0.0232737 0.041666 0
-0.0264874 0.0491462 0
-0.0294506 0.0573816 0
-0.0321388 0.0663136 0
-0.0345309 0.075876 0
-0.036607 0.0859951 0
-0.0383477 0.0965902 0
-0.039734 0.107574 0
-0.0407496 0.118852 0
-0.0413826 0.130324 0
-0.0416288 0.141886 0
-0.0414946 0.153427 0
-0.0410006 0.16484 0
-0.0401852 0.176014 0
-0.0391085 0.186846 0
-0.0378554 0.19724 0
-0.0365395 0.207108 0
-0.0353061 0.216376 0
-0.0343346 0.224982 0
-0.0338389 0.232871 0
-0.0340636 0.239984 0
-0.0352705 0.246242 0
-0.0377036 0.251509 0
-0.0415123 0.255529 0
-0.0465876 0.257828 0
-0.0522289 0.257555 0
-0.0564857 0.253252 0
-0.0548933 0.242555 0
-0.0381651 0.221979 0
0.0116276 0.187293 0
0.126007 0.135764 0
0.352032 0.0722901 0
0.737028 0.0194629 0
-0.00154465 0.0078508 0
-0.00453302 0.0166613 0
-0.00839495 0.0191449 0
-0.0127495 0.022706 0
-0.0173172 0.0272604 0
-0.0219016 0.0327505 0
-0.02637 0.0391309 0
-0.0306345 0.0463588 0
-0.0346366 0.0543888 0
-0.0383351 0.0631704 0
-0.0416978 0.0726466 0
-0.0446964 0.0827537 0
-0.0473033 0.0934204 0
-0.0494912 0.104567 0
-0.0512334 0.116106 0
-0.0525057 0.127941 0
-0.053289 0.139968 0
-0.053573 0.152073 0
-0.0533597 0.164137 0
-0.0526672 0.176038 0
-0.0515343 0.187646 0
-0.0500238 0.198836 0
-0.0482264 0.209481 0
-0.0462628 0.219459 0
-0.0442859 0.22865 0
-0.0424799 0.236934 0
-0.0410564 0.24419 0
-0.0402431 0.250275 0
-0.0402589 0.255011 0
-0.0412608 0.258146 0
-0.0432404 0.2593 0
-0.0458191 0.257885 0
-0.0478618 0.252985 0
-0.0467624 0.243204 0
-0.0371858 0.226531 0
-0.00901676 0.200393 0
0.0554915 0.162334 0
0.184275 0.112197 0
0.413579 0.0565901 0
0.771458 0.0144243 0
-0.00217812 0.00851954 0
-0.00651213 0.0180928 0
-0.0115485 0.0208116 0
-0.0169604 0.0246852 0
-0.0225056 0.0295977 0
-0.028009 0.0354653 0
-0.0333478 0.042224 0
-0.038437 0.0498201 0
-0.0432161 0.0582035 0
-0.0476398 0.0673233 0
-0.0516701 0.0771249 0
-0.0552715 0.0875482 0
-0.0584083 0.0985253 0
-0.0610442 0.10998 0
-0.0631428 0.121825 0
-0.0646699 0.133963 0
-0.0655966 0.146287 0
-0.0659034 0.158676 0
-0.0655842 0.171003 0
-0.0646509 0.18313 0
-0.0631381 0.194911 0
-0.0611064 0.206197 0
-0.0586459 0.216833 0
-0.0558778 0.226665 0
-0.052954 0.235531 0
-0.050054 0.243266 0
-0.0473764 0.24969 0
-0.0451206 0.254602 0
-0.0434519 0.257754 0
-0.0424353 0.258825 0
-0.0419106 0.257379 0
-0.0412618 0.252799 0
-0.0390021 0.244208 0
-0.0320513 0.230387 0
-0.0145572 0.209749 0
0.0238218 0.18054 0
0.0998839 0.141623 0
0.237752 0.0943454 0
0.465072 0.045682 0
0.797549 0.0111725 0
-0.00285796 0.00901417 0
-0.00864004 0.0191437 0
-0.0149256 0.0220148 0
-0.021441 0.0260868 0
-0.0279838 0.0312207 0
-0.0344065 0.0373133 0
-0.0406033 0.0442867 0
-0.0464981 0.0520787 0
-0.0520339 0.0606359 0
-0.0571644 0.0699083 0
-0.0618476 0.0798446 0
-0.0660416 0.090389 0
-0.0697023 0.101478 0
-0.072783 0.11304 0
-0.075236 0.12499 0
-0.0770146 0.13723 0
-0.0780772 0.14965 0
-0.0783918 0.162126 0
-0.0779407 0.174518 0
-0.0767258 0.186677 0
-0.0747731 0.19844 0
-0.0721365 0.209638 0
-0.068901 0.22009 0
-0.0651827 0.229613 0
-0.0611273 0.238013 0
-0.0569042 0.245087 0
-0.0526934 0.250616 0
-0.0486627 0.254356 0
-0.0449243 0.256023 0
-0.0414581 0.255264 0
-0.0379732 0.251632 0
-0.0336617 0.244535 0
-0.0267739 0.233189 0
-0.0139178 0.216585 0
0.0110016 0.193534 0
0.0581597 0.162947 0
0.143052 0.124601 0
0.286239 0.0806614 0
0.508705 0.0378646 0
0.818151 0.00897755 0
-0.00356577 0.0093241 0
-0.0108561 0.0197963 0
-0.0184311 0.0227452 0
-0.0260697 0.0269116 0
-0.0336116 0.0321406 0
-0.0409409 0.0383162 0
-0.0479741 0.0453511 0
-0.054649 0.0531787 0
-0.0609159 0.061745 0
-0.0667308 0.0710023 0
-0.0720495 0.0809039 0
-0.0768242 0.0913999 0
-0.0810021 0.102433 0
-0.084525 0.113935 0
-0.0873317 0.125824 0
-0.0893605 0.138006 0
-0.0905544 0.150366 0
-0.0908654 0.162776 0
-0.090261 0.175088 0
-0.0887291 0.18714 0
-0.0862836 0.198756 0
-0.0829683 0.209745 0
-0.0788593 0.219909 0
-0.0740646 0.229037 0
-0.0687211 0.236912 0
-0.0629857 0.243304 0
-0.0570199 0.247968 0
-0.0509616 0.250637 0
-0.0448764 0.25101 0
-0.0386728 0.248731 0
-0.031955 0.243369 0
-0.0237688 0.234386 0
-0.0121806 0.221107 0
0.00638248 0.202727 0
0.0380611 0.178399 0
0.0926282 0.147542 0
0.184161 0.110541 0
0.330064 0.069964 0
0.546189 0.0320705 0
0.834968 0.00742754 0
-0.00428539 0.00944314 0
-0.0131065 0.0200411 0
-0.0219791 0.0230006 0
-0.0307353 0.0271662 0
-0.0392591 0.0323736 0
-0.0474695 0.0384995 0
-0.0553088 0.0454529 0
-0.0627328 0.0531666 0
-0.0697025 0.0615889 0
-0.0761784 0.0706771 0
-0.0821156 0.0803909 0
-0.0874608 0.0906874 0
-0.0921518 0.101516 0
-0.0961178 0.112815 0
-0.0992819 0.124508 0
-0.101565 0.1365 0
-0.102892 0.148676 0
-0.103195 0.160905 0
-0.102424 0.17303 0
-0.100549 0.18488 0
-0.0975696 0.196264 0
-0.093516 0.206978 0
-0.0884536 0.216802 0
-0.082481 0.22551 0
-0.0757254 0.232864 0
-0.0683325 0.238616 0
-0.0604476 0.242509 0
-0.0521841 0.244264 0
-0.0435703 0.24358 0
-0.0344588 0.240114 0
-0.0243738 0.233465 0
-0.0122553 0.223158 0
0.00394951 0.208628 0
0.0278951 0.18925 0
0.0656322 0.164455 0
0.126399 0.134037 0
0.222863 0.0987775 0
0.369702 0.0614036 0
0.578794 0.0276268 0
0.849056 0.00628375 0
-0.00500235 0.00936835 0
-0.0153424 0.0198745 0
-0.0254909 0.0227825 0
-0.0353351 0.0268589 0
-0.0448053 0.0319355 0
-0.0538584 0.0378874 0
-0.0624656 0.0446248 0
-0.0706033 0.0520838 0
-0.0782458 0.0602186 0
-0.0853597 0.068994 0
-0.0919004 0.0783783 0
-0.0978094 0.0883374 0
-0.103014 0.0988292 0
-0.10743 0.109799 0
-0.110963 0.121175 0
-0.113513 0.132866 0
-0.114983 0.144759 0
-0.115284 0.156716 0
-0.114344 0.168577 0
-0.112113 0.180161 0
-0.108573 0.191265 0
-0.10374 0.201672 0
-0.0976662 0.211149 0
-0.0904413 0.219453 0
-0.0821841 0.226334 0
-0.0730313 0.231534 0
-0.0631167 0.234787 0
-0.0525358 0.235818 0
-0.0412895 0.23433 0
-0.0291893 0.230002 0
-0.0157011 0.222471 0
0.000307497 0.211322 0
0.0209576 0.196093 0
0.0499116 0.176309 0
0.0930399 0.15162 0
0.158981 0.122097 0
0.25906 0.0887674 0
0.405623 0.0543787 0
0.607449 0.0241021 0
0.861084 0.00540359 0
-0.00570323 0.00909927 0
-0.0175186 0.0192967 0
-0.0288934 0.0220945 0
-0.0397729 0.0259984 0
-0.0501365 0.0308409 0
-0.0599815 0.036501 0
-0.0693104 0.0428944 0
-0.0781222 0.0499651 0
-0.0864063 0.0576763 0
-0.0941365 0.066003 0
-0.101269 0.0749241 0
-0.10774 0.0844164 0
-0.113465 0.0944476 0
-0.118346 0.104972 0
-0.122266 0.115924 0
-0.125105 0.127217 0
-0.12674 0.138738 0
-0.127058 0.15035 0
-0.12596 0.161888 0
-0.123377 0.173162 0
-0.119268 0.183962 0
-0.113633 0.194058 0
-0.106515 0.203207 0
-0.097992 0.211154 0
-0.0881775 0.21764 0
-0.0772028 0.222402 0
-0.0651948 0.225173 0
-0.0522386 0.22568 0
-0.0383169 0.223641 0
-0.0232126 0.218758 0
-0.0063516 0.210705 0
0.0134442 0.199125 0
0.0383248 0.18364 0
0.0719067 0.163903 0
0.119821 0.139734 0
0.190082 0.1114 0
0.292771 0.0800805 0
0.438238 0.0484624 0
0.632829 0.0212135 0
0.871491 0.004699 0
-0.0063751 0.00863766 0
-0.0195918 0.018312 0
-0.0321169 0.0209428 0
-0.0439573 0.0245938 0
-0.0551449 0.0291035 0
-0.0657192 0.0343591 0
-0.0757159 0.0402866 0
-0.0851584 0.0468413 0
-0.0940515 0.0539986 0
-0.102378 0.0617463 0
-0.110093 0.0700763 0
-0.117128 0.0789775 0
-0.123388 0.0884295 0
-0.128754 0.0983964 0
-0.133091 0.108822 0
-0.136252 0.119624 0
-0.138086 0.130695 0
-0.138453 0.141896 0
-0.137227 0.153061 0
-0.134311 0.163995 0
-0.129645 0.17448 0
-0.123212 0.184277 0
-0.115041 0.193135 0
-0.105203 0.200791 0
-0.0938089 0.206979 0
-0.0809869 0.211432 0
-0.066863 0.213886 0
-0.0515178 0.214075 0
-0.034924 0.211731 0
-0.0168467 0.206577 0
0.00331349 0.198323 0
0.0267594 0.186659 0
0.0556396 0.171282 0
0.0934851 0.151945 0
0.145652 0.128602 0
0.219528 0.101659 0
0.324054 0.0723795 0
0.46788 0.0433466 0
0.655425 0.0187698 0
0.880573 0.00411356 0
-0.00700506 0.00798766 0
-0.0215197 0.0169288 0
-0.0350937 0.0193368 0
-0.0478005 0.022657 0
-0.0597269 0.0267386 0
-0.070957 0.0314819 0
-0.0815607 0.0368267 0
-0.0915861 0.0427432 0
-0.101055 0.0492217 0
-0.109956 0.0562648 0
-0.118249 0.0638792 0
-0.125856 0.072068 0
-0.132668 0.0808239 0
-0.13855 0.0901231 0
-0.143342 0.0999193 0
-0.146868 0.110139 0
-0.14895 0.12068 0
-0.149413 0.131406 0
-0.148103 0.142151 0
-0.144896 0.152717 0
-0.139708 0.162881 0
-0.132504 0.172399 0
-0.123299 0.181012 0
-0.11216 0.188451 0
-0.0991943 0.194446 0
-0.0845337 0.198729 0
-0.0683063 0.201036 0
-0.0505944 0.201109 0
-0.0313673 0.198694 0
-0.0103809 0.193533 0
0.0129778 0.185363 0
0.0399193 0.173919 0
0.0725672 0.158955 0
0.114338 0.140306 0
0.170291 0.118027 0
0.247203 0.0926249 0
0.352978 0.0653982 0
0.49481 0.0388047 0
0.675591 0.016638 0
0.888529 0.00360971 0
-0.00757998 0.00715618 0
-0.0232602 0.015161 0
-0.0377578 0.0172911 0
-0.0512176 0.0202048 0
-0.063784 0.023767 0
-0.0755862 0.0278949 0
-0.086729 0.0325461 0
-0.0972857 0.0377079 0
-0.107294 0.0433877 0
-0.116751 0.0496049 0
-0.125615 0.0563821 0
-0.133803 0.0637381 0
-0.141192 0.0716805 0
-0.147626 0.0801993 0
-0.152918 0.0892604 0
-0.156865 0.0988014 0
-0.159254 0.108727 0
-0.159879 0.118908 0
-0.158551 0.129181 0
-0.155115 0.139348 0
-0.149463 0.149184 0
-0.14154 0.158442 0
-0.131349 0.166856 0
-0.118951 0.174155 0
-0.104455 0.180064 0
-0.0879955 0.184314 0
-0.0697088 0.186643 0
-0.0496825 0.186798 0
-0.0278886 0.184535 0
-0.00408031 0.179611 0
0.0223592 0.171788 0
0.0526346 0.160832 0
0.0888255 0.146546 0
0.134214 0.128831 0
0.193548 0.107817 0
0.27302 0.0840791 0
0.379593 0.0589221 0
0.519219 0.0346645 0
0.693579 0.0147221 0
0.895495 0.00316138 0
-0.0080864 0.00615343 0
-0.0247712 0.0130291 0
-0.0400451 0.0148275 0
-0.0541277 0.017262 0
-0.0672223 0.0202181 0
-0.079504 0.023634 0
-0.0911118 0.0274874 0
-0.102144 0.0317848 0
-0.112652 0.0365522 0
-0.122643 0.0418264 0
-0.132074 0.0476472 0
-0.140853 0.0540502 0
-0.148844 0.0610593 0
-0.155869 0.0686799 0
-0.161715 0.076893 0
-0.166147 0.0856492 0
-0.168918 0.0948652 0
-0.169783 0.104421 0
-0.16852 0.114158 0
-0.164941 0.123885 0
-0.158909 0.133377 0
-0.150348 0.142385 0
-0.139249 0.150642 0
-0.125666 0.157872 0
-0.10971 0.163798 0
-0.0915225 0.168149 0
-0.0712495 0.170663 0
-0.0489878 0.17109 0
-0.024716 0.169191 0
0.00180923 0.164736 0
0.0312009 0.157501 0
0.0646462 0.14728 0
0.104166 0.133914 0
0.152891 0.117353 0
0.215257 0.0977859 0
0.296898 0.0758305 0
0.403928 0.0527749 0
0.541238 0.0307918 0
0.70956 0.0129499 0
0.901561 0.00274969 0
-0.00851062 0.00499356 0
-0.0260118 0.010562 0
-0.0418941 0.0119774 0
-0.0564544 0.0138647 0
-0.0699549 0.0161348 0
-0.0826155 0.01875 0
-0.094608 0.0217101 0
-0.106053 0.0250419 0
-0.117019 0.0287902 0
-0.127518 0.0330097 0
-0.137506 0.0377579 0
-0.146884 0.0430875 0
-0.155502 0.0490399 0
-0.16316 0.0556381 0
-0.169618 0.0628802 0
-0.174607 0.0707337 0
-0.177843 0.0791303 0
-0.179045 0.0879634 0
-0.17795 0.0970866 0
-0.174336 0.106315 0
-0.168034 0.115431 0
-0.158946 0.124186 0
-0.147047 0.132314 0
-0.132385 0.139537 0
-0.115072 0.145574 0
-0.0952581 0.150152 0
-0.0731 0.153005 0
-0.0487066 0.153885 0
-0.0220663 0.152553 0
0.00705608 0.148785 0
0.0392627 0.142369 0
0.0757137 0.133117 0
0.118358 0.120898 0
0.170167 0.105701 0
0.235261 0.0877576 0
0.318748 0.0677083 0
0.42598 0.0468076 0
0.560948 0.0270784 0
0.723648 0.0112658 0
0.906784 0.00236044 0
-0.00883904 0.00369523 0
-0.0269427 0.00779851 0
-0.0432479 0.00878338 0
-0.0581285 0.0100622 0
-0.0719039 0.0115757 0
-0.0848358 0.0133123 0
-0.0971266 0.0152948 0
-0.108918 0.0175704 0
-0.120292 0.0202022 0
-0.131266 0.0232623 0
-0.141796 0.0268253 0
-0.151777 0.0309615 0
-0.161042 0.0357304 0
-0.169372 0.0411744 0
-0.176499 0.0473114 0
-0.182121 0.0541289 0
-0.185917 0.0615787 0
-0.187564 0.0695725 0
-0.186759 0.0779803 0
-0.183241 0.0866313 0
-0.176808 0.0953165 0
-0.167335 0.103795 0
-0.154777 0.111804 0
-0.139176 0.119063 0
-0.120643 0.125291 0
-0.0993356 0.130207 0
-0.0754224 0.133544 0
-0.0490256 0.135047 0
-0.0201461 0.134476 0
0.011439 0.131606 0
0.0463152 0.126231 0
0.0856068 0.118174 0
0.131182 0.107325 0
0.185841 0.0937014 0
0.253399 0.0775623 0
0.338465 0.0595567 0
0.445715 0.0408909 0
0.578378 0.0234342 0
0.735904 0.00962482 0
0.911197 0.00198247 0
-0.00905869 0.00228192 0
-0.0275282 0.00478772 0
-0.0440564 0.00530107 0
-0.0590906 0.00592003 0
-0.073003 0.00661837 0
-0.0860928 0.0074121 0
-0.0985894 0.00834691 0
-0.110653 0.00948915 0
-0.122377 0.0109189 0
-0.133784 0.012724 0
-0.144832 0.0149951 0
-0.155408 0.0178196 0
-0.165332 0.0212756 0
-0.174367 0.0254261 0
-0.182217 0.0303117 0
-0.18855 0.0359436 0
-0.193004 0.0422983 0
-0.195216 0.0493118 0
-0.194841 0.0568767 0
-0.191574 0.064842 0
-0.185176 0.0730149 0
-0.175491 0.0811662 0
-0.162452 0.0890385 0
-0.146088 0.0963552 0
-0.126507 0.102831 0
-0.103873 0.108182 0
-0.0783659 0.112131 0
-0.0501207 0.114416 0
-0.0191532 0.114789 0
0.0147443 0.11302 0
0.0521346 0.108902 0
0.0940985 0.102265 0
0.142414 0.0930104 0
0.199709 0.0811758 0
0.269496 0.0670348 0
0.355924 0.0512307 0
0.463065 0.0349094 0
0.593516 0.0197817 0
0.746346 0.00798948 0
0.91481 0.00160674 0
-0.00915787 0.000782189 0
-0.0277382 0.00159012 0
-0.044279 0.00159977 0
-0.059294 0.00152006 0
-0.0732009 0.00136025 0
-0.0863305 0.00116402 0
-0.098934 0.000998461 0
-0.111187 0.000946915 0
-0.123193 0.00110383 0
-0.134981 0.00157065 0
-0.146508 0.00245189 0
-0.157657 0.00385076 0
-0.16824 0.00586404 0
-0.177999 0.00857618 0
-0.186619 0.0120526 0
-0.193734 0.0163324 0
-0.198947 0.0214216 0
-0.201853 0.0272869 0
-0.20206 0.0338506 0
-0.19922 0.0409889 0
-0.193052 0.0485325 0
-0.18336 0.0562703 0
-0.170054 0.0639564 0
-0.153142 0.0713197 0
-0.132725 0.0780741 0
-0.10897 0.0839292 0
-0.0820637 0.0885989 0
-0.0521552 0.0918081 0
-0.0192756 0.0932972 0
0.0167642 0.0928258 0
0.0564993 0.0901801 0
0.10096 0.0851896 0
0.151828 0.0777616 0
0.211555 0.067943 0
0.283361 0.0560119 0
0.370972 0.0425921 0
0.477928 0.0287568 0
0.606311 0.016052 0
0.754957 0.00632752 0
0.917618 0.0012256 0
-0.00912702 -0.000770491 0
-0.0275504 -0.00172286 0
-0.0438877 -0.00223759 0
-0.058708 -0.00303883 0
-0.0724646 -0.00408089 0
-0.0855119 -0.00529371 0
-0.0981174 -0.00659137 0
-0.110468 -0.00787683 0
-0.122676 -0.00904472 0
-0.134775 -0.00998346 0
-0.146725 -0.0105773 0
-0.158408 -0.0107094 0
-0.169628 -0.0102654 0
-0.180117 -0.00913895 0
-0.189537 -0.00723807 0
-0.197496 -0.00449237 0
-0.203564 -0.000861055 0
-0.207293 0.00365956 0
-0.208247 0.00902958 0
-0.206028 0.0151611 0
-0.200308 0.0219169 0
-0.190851 0.0291118 0
-0.177529 0.036519 0
-0.160326 0.0438777 0
-0.139328 0.0509039 0
-0.114698 0.0573017 0
-0.0866275 0.0627736 0
-0.0552762 0.0670292 0
-0.0206908 0.0697921 0
0.0172963 0.0708062 0
0.0591878 0.0698455 0
0.105958 0.0667326 0
0.159184 0.0613735 0
0.221144 0.0538153 0
0.294779 0.044329 0
0.383426 0.0335057 0
0.490164 0.0223326 0
0.616671 0.0121818 0
0.76169 0.00461 0
0.9196 0.000832345 0
-0.00895963 -0.00233823 0
-0.0269524 -0.00506982 0
-0.0428698 -0.00611547 0
-0.0573212 -0.00764221 0
-0.0707827 -0.00956854 0
-0.083623 -0.0118007 0
-0.096119 -0.0142376 0
-0.108466 -0.0167729 0
-0.12078 -0.0192945 0
-0.133104 -0.021685 0
-0.145401 -0.0238212 0
-0.157555 -0.0255754 0
-0.169368 -0.026818 0
-0.180564 -0.0274215 0
-0.190794 -0.0272662 0
-0.199642 -0.0262482 0
-0.206647 -0.0242871 0
-0.211325 -0.0213357 0
-0.213192 -0.0173878 0
-0.211801 -0.012486 0