# vtk DataFile Version 2.0
Presion
ASCII

DATASET STRUCTURED_GRID
DIMENSIONS   40   40   20

POINTS   32000   double
0.0125   0.0125   0.025
0.0375   0.0125   0.025
0.0625   0.0125   0.025
0.0875   0.0125   0.025
0.1125   0.0125   0.025
0.1375   0.0125   0.025
0.1625   0.0125   0.025
0.1875   0.0125   0.025
0.2125   0.0125   0.025
0.2375   0.0125   0.025
0.2625   0.0125   0.025
0.2875   0.0125   0.025
0.3125   0.0125   0.025
0.3375   0.0125   0.025
0.3625   0.0125   0.025
0.3875   0.0125   0.025
0.4125   0.0125   0.025
0.4375   0.0125   0.025
0.4625   0.0125   0.025
0.4875   0.0125   0.025
0.5125   0.0125   0.025
0.5375   0.0125   0.025
0.5625   0.0125   0.025
0.5875   0.0125   0.025
0.6125   0.0125   0.025
0.6375   0.0125   0.025
0.6625   0.0125   0.025
0.6875   0.0125   0.025
0.7125   0.0125   0.025
0.7375   0.0125   0.025
0.7625   0.0125   0.025
0.7875   0.0125   0.025
0.8125   0.0125   0.025
0.8375   0.0125   0.025
0.8625   0.0125   0.025
0.8875   0.0125   0.025
0.9125   0.0125   0.025
0.9375   0.0125   0.025
0.9625   0.0125   0.025
0.9875   0.0125   0.025
0.0125   0.0375   0.025
0.0375   0.0375   0.025
0.0625   0.0375   0.025
0.0875   0.0375   0.025
0.1125   0.0375   0.025
0.1375   0.0375   0.025
0.1625   0.0375   0.025
0.1875   0.0375   0.025
0.2125   0.0375   0.025
0.2375   0.0375   0.025
0.2625   0.0375   0.025
0.2875   0.0375   0.025
0.3125   0.0375   0.025
0.3375   0.0375   0.025
0.3625   0.0375   0.025
0.3875   0.0375   0.025
0.4125   0.0375   0.025
0.4375   0.0375   0.025
0.4625   0.0375   0.025
0.4875   0.0375   0.025
0.5125   0.0375   0.025
0.5375   0.0375   0.025
0.5625   0.0375   0.025
0.5875   0.0375   0.025
0.6125   0.0375   0.025
0.6375   0.0375   0.025
0.6625   0.0375   0.025
0.6875   0.0375   0.025
0.7125   0.0375   0.025
0.7375   0.0375   0.025
0.7625   0.0375   0.025
0.7875   0.0375   0.025
0.8125   0.0375   0.025
0.8375   0.0375   0.025
0.8625   0.0375   0.025
0.8875   0.0375   0.025
0.9125   0.0375   0.025
0.9375   0.0375   0.025
0.9625   0.0375   0.025
0.9875   0.0375   0.025
0.0125   0.0625   0.025
0.0375   0.0625   0.025
0.0625   0.0625   0.025
0.0875   0.0625   0.025
0.1125   0.0625   0.025
0.1375   0.0625   0.025
0.1625   0.0625   0.025
0.1875   0.0625   0.025
0.2125   0.0625   0.025
0.2375   0.0625   0.025
0.2625   0.0625   0.025
0.2875   0.0625   0.025
0.3125   0.0625   0.025
0.3375   0.0625   0.025
0.3625   0.0625   0.025
0.3875   0.0625   0.025
0.4125   0.0625   0.025
0.4375   0.0625   0.025
0.4625   0.0625   0.025
0.4875   0.0625   0.025
0.5125   0.0625   0.025
0.5375   0.0625   0.025
0.5625   0.0625   0.025
0.5875   0.0625   0.025
0.6125   0.0625   0.025
0.6375   0.0625   0.025
0.6625   0.0625   0.025
0.6875   0.0625   0.025
0.7125   0.0625   0.025
0.7375   0.0625   0.025
0.7625   0.0625   0.025
0.7875   0.0625   0.025
0.8125   0.0625   0.025
0.8375   0.0625   0.025
0.8625   0.0625   0.025
0.8875   0.0625   0.025
0.9125   0.0625   0.025
0.9375   0.0625   0.025
0.9625   0.0625   0.025
0.9875   0.0625   0.025
0.0125   0.0875   0.025
0.0375   0.0875   0.025
0.0625   0.0875   0.025
0.0875   0.0875   0.025
0.1125   0.0875   0.025
0.1375   0.0875   0.025
0.1625   0.0875   0.025
0.1875   0.0875   0.025
0.2125   0.0875   0.025
0.2375   0.0875   0.025
0.2625   0.0875   0.025
0.2875   0.0875   0.025
0.3125   0.0875   0.025
0.3375   0.0875   0.025
0.3625   0.0875   0.025
0.3875   0.0875   0.025
0.4125   0.0875   0.025
0.4375   0.0875   0.025
0.4625   0.0875   0.025
0.4875   0.0875   0.025
0.5125   0.0875   0.025
0.5375   0.0875   0.025
0.5625   0.0875   0.025
0.5875   0.0875   0.025
0.6125   0.0875   0.025
0.6375   0.0875   0.025
0.6625   0.0875   0.025
0.6875   0.0875   0.025
0.7125   0.0875   0.025
0.7375   0.0875   0.025
0.7625   0.0875   0.025
0.7875   0.0875   0.025
0.8125   0.0875   0.025
0.8375   0.0875   0.025
0.8625   0.0875   0.025
0.8875   0.0875   0.025
0.9125   0.0875   0.025
0.9375   0.0875   0.025
0.9625   0.0875   0.025
0.9875   0.0875   0.025
0.0125   0.1125   0.025
0.0375   0.1125   0.025
0.0625   0.1125   0.025
0.0875   0.1125   0.025
0.1125   0.1125   0.025
0.1375   0.1125   0.025
0.1625   0.1125   0.025
0.1875   0.1125   0.025
0.2125   0.1125   0.025
0.2375   0.1125   0.025
0.2625   0.1125   0.025
0.2875   0.1125   0.025
0.3125   0.1125   0.025
0.3375   0.1125   0.025
0.3625   0.1125   0.025
0.3875   0.1125   0.025
0.4125   0.1125   0.025
0.4375   0.1125   0.025
0.4625   0.1125   0.025
0.4875   0.1125   0.025
0.5125   0.1125   0.025
0.5375   0.1125   0.025
0.5625   0.1125   0.025
0.5875   0.1125   0.025
0.6125   0.1125   0.025
0.6375   0.1125   0.025
0.6625   0.1125   0.025
0.6875   0.1125   0.025
0.7125   0.1125   0.025
0.7375   0.1125   0.025
0.7625   0.1125   0.025
0.7875   0.1125   0.025
0.8125   0.1125   0.025
0.8375   0.1125   0.025
0.8625   0.1125   0.025
0.8875   0.1125   0.025
0.9125   0.1125   0.025
0.9375   0.1125   0.025
0.9625   0.1125   0.025
0.9875   0.1125   0.025
0.0125   0.1375   0.025
0.0375   0.1375   0.025
0.0625   0.1375   0.025
0.0875   0.1375   0.025
0.1125   0.1375   0.025
0.1375   0.1375   0.025
0.1625   0.1375   0.025
0.1875   0.1375   0.025
0.2125   0.1375   0.025
0.2375   0.1375   0.025
0.2625   0.1375   0.025
0.2875   0.1375   0.025
0.3125   0.1375   0.025
0.3375   0.1375   0.025
0.3625   0.1375   0.025
0.3875   0.1375   0.025
0.4125   0.1375   0.025
0.4375   0.1375   0.025
0.4625   0.1375   0.025
0.4875   0.1375   0.025
0.5125   0.1375   0.025
0.5375   0.1375   0.025
0.5625   0.1375   0.025
0.5875   0.1375   0.025
0.6125   0.1375   0.025
0.6375   0.1375   0.025
0.6625   0.1375   0.025
0.6875   0.1375   0.025
0.7125   0.1375   0.025
0.7375   0.1375   0.025
0.7625   0.1375   0.025
0.7875   0.1375   0.025
0.8125   0.1375   0.025
0.8375   0.1375   0.025
0.8625   0.1375   0.025
0.8875   0.1375   0.025
0.9125   0.1375   0.025
0.9375   0.1375   0.025
0.9625   0.1375   0.025
0.9875   0.1375   0.025
0.0125   0.1625   0.025
0.0375   0.1625   0.025
0.0625   0.1625   0.025
0.0875   0.1625   0.025
0.1125   0.1625   0.025
0.1375   0.1625   0.025
0.1625   0.1625   0.025
0.1875   0.1625   0.025
0.2125   0.1625   0.025
0.2375   0.1625   0.025
0.2625   0.1625   0.025
0.2875   0.1625   0.025
0.3125   0.1625   0.025
0.3375   0.1625   0.025
0.3625   0.1625   0.025
0.3875   0.1625   0.025
0.4125   0.1625   0.025
0.4375   0.1625   0.025
0.4625   0.1625   0.025
0.4875   0.1625   0.025
0.5125   0.1625   0.025
0.5375   0.1625   0.025
0.5625   0.1625   0.025
0.5875   0.1625   0.025
0.6125   0.1625   0.025
0.6375   0.1625   0.025
0.6625   0.1625   0.025
0.6875   0.1625   0.025
0.7125   0.1625   0.025
0.7375   0.1625   0.025
0.7625   0.1625   0.025
0.7875   0.1625   0.025
0.8125   0.1625   0.025
0.8375   0.1625   0.025
0.8625   0.1625   0.025
0.8875   0.1625   0.025
0.9125   0.1625   0.025
0.9375   0.1625   0.025
0.9625   0.1625   0.025
0.9875   0.1625   0.025
0.0125   0.1875   0.025
0.0375   0.1875   0.025
0.0625   0.1875   0.025
0.0875   0.1875   0.025
0.1125   0.1875   0.025
0.1375   0.1875   0.025
0.1625   0.1875   0.025
0.1875   0.1875   0.025
0.2125   0.1875   0.025
0.2375   0.1875   0.025
0.2625   0.1875   0.025
0.2875   0.1875   0.025
0.3125   0.1875   0.025
0.3375   0.1875   0.025
0.3625   0.1875   0.025
0.3875   0.1875   0.025
0.4125   0.1875   0.025
0.4375   0.1875   0.025
0.4625   0.1875   0.025
0.4875   0.1875   0.025
0.5125   0.1875   0.025
0.5375   0.1875   0.025
0.5625   0.1875   0.025
0.5875   0.1875   0.025
0.6125   0.1875   0.025
0.6375   0.1875   0.025
0.6625   0.1875   0.025
0.6875   0.1875   0.025
0.7125   0.1875   0.025
0.7375   0.1875   0.025
0.7625   0.1875   0.025
0.7875   0.1875   0.025
0.8125   0.1875   0.025
0.8375   0.1875   0.025
0.8625   0.1875   0.025
0.8875   0.1875   0.025
0.9125   0.1875   0.025
0.9375   0.1875   0.025
0.9625   0.1875   0.025
0.9875   0.1875   0.025
0.0125   0.2125   0.025
0.0375   0.2125   0.025
0.0625   0.2125   0.025
0.0875   0.2125   0.025
0.1125   0.2125   0.025
0.1375   0.2125   0.025
0.1625   0.2125   0.025
0.1875   0.2125   0.025
0.2125   0.2125   0.025
0.2375   0.2125   0.025
0.2625   0.2125   0.025
0.2875   0.2125   0.025
0.3125   0.2125   0.025
0.3375   0.2125   0.025
0.3625   0.2125   0.025
0.3875   0.2125   0.025
0.4125   0.2125   0.025
0.4375   0.2125   0.025
0.4625   0.2125   0.025
0.4875   0.2125   0.025
0.5125   0.2125   0.025
0.5375   0.2125   0.025
0.5625   0.2125   0.025
0.5875   0.2125   0.025
0.6125   0.2125   0.025
0.6375   0.2125   0.025
0.6625   0.2125   0.025
0.6875   0.2125   0.025
0.7125   0.2125   0.025
0.7375   0.2125   0.025
0.7625   0.2125   0.025
0.7875   0.2125   0.025
0.8125   0.2125   0.025
0.8375   0.2125   0.025
0.8625   0.2125   0.025
0.8875   0.2125   0.025
0.9125   0.2125   0.025
0.9375   0.2125   0.025
0.9625   0.2125   0.025
0.9875   0.2125   0.025
0.0125   0.2375   0.025
0.0375   0.2375   0.025
0.0625   0.2375   0.025
0.0875   0.2375   0.025
0.1125   0.2375   0.025
0.1375   0.2375   0.025
0.1625   0.2375   0.025
0.1875   0.2375   0.025
0.2125   0.2375   0.025
0.2375   0.2375   0.025
0.2625   0.2375   0.025
0.2875   0.2375   0.025
0.3125   0.2375   0.025
0.3375   0.2375   0.025
0.3625   0.2375   0.025
0.3875   0.2375   0.025
0.4125   0.2375   0.025
0.4375   0.2375   0.025
0.4625   0.2375   0.025
0.4875   0.2375   0.025
0.5125   0.2375   0.025
0.5375   0.2375   0.025
0.5625   0.2375   0.025
0.5875   0.2375   0.025
0.6125   0.2375   0.025
0.6375   0.2375   0.025
0.6625   0.2375   0.025
0.6875   0.2375   0.025
0.7125   0.2375   0.025
0.7375   0.2375   0.025
0.7625   0.2375   0.025
0.7875   0.2375   0.025
0.8125   0.2375   0.025
0.8375   0.2375   0.025
0.8625   0.2375   0.025
0.8875   0.2375   0.025
0.9125   0.2375   0.025
0.9375   0.2375   0.025
0.9625   0.2375   0.025
0.9875   0.2375   0.025
0.0125   0.2625   0.025
0.0375   0.2625   0.025
0.0625   0.2625   0.025
0.0875   0.2625   0.025
0.1125   0.2625   0.025
0.1375   0.2625   0.025
0.1625   0.2625   0.025
0.1875   0.2625   0.025
0.2125   0.2625   0.025
0.2375   0.2625   0.025
0.2625   0.2625   0.025
[...]
POINT_DATA   32000
SCALARS Presion double
LOOKUP_TABLE   Presion

0 0 0 0 0 0 0 0 0 0 0 0 0 0 0 0 0 0 0 0 0 0 0 0 0 0 0 0 0 0 0 0 0 0 0 0 0 0 0 0 -0.00200996 -0.00238775 -0.00302921 -0.00376322 -0.0045109 -0.00522115 -0.00585646 -0.00638904 -0.0067988 -0.00707188 -0.00719937 -0.00717633 -0.00700115 -0.00667518 -0.00620264 -0.00559071 -0.00484964 -0.00399287 -0.00303715 -0.0020024 -0.000911412 0.000210523 0.00133632 0.00243784 0.00348684 0.00445589 0.00531942 0.00605464 0.00664254 0.00706866 0.00732395 0.00740529 0.00731598 0.00706587 0.00667109 0.0061533 0.00553878 0.0048599 0.00417246 0.00366197 -0.00217772 -0.00239769 -0.00290066 -0.00354173 -0.0042296 -0.00490347 -0.00552082 -0.0060512 -0.00647295 -0.00677093 -0.00693505 -0.00695918 -0.00684044 -0.00657885 -0.00617716 -0.00564089 -0.00497841 -0.00420109 -0.00332333 -0.00236254 -0.00133891 -0.000275106 0.000804224 0.0018731 0.00290497 0.00387354 0.0047537 0.00552246 0.0061599 0.00665014 0.00698216 0.00715068 0.00715683 0.00700874 0.00672208 0.00632087 0.00583951 0.00532934 0.0048788 0.0046706 -0.00185768 -0.00214417 -0.00264219 -0.00326151 -0.00392915 -0.00459047 -0.00520543 -0.0057449 -0.00618782 -0.00651918 -0.00672848 -0.00680875 -0.00675588 -0.00656829 -0.00624683 -0.00579479 -0.00521806 -0.00452531 -0.00372806 -0.0028408 -0.0018809 -0.000868432 0.000174174 0.00122261 0.00225133 0.0032343 0.00414592 0.00496199 0.00566075 0.00622398 0.0066381 0.00689517 0.00699385 0.00694029 0.00674898 0.006444 0.00606122 0.00565335 0.00530086 0.00513097 -0.00126681 -0.00169967 -0.00227132 -0.0029265 -0.00361329 -0.00428905 -0.0049208 -0.00548376 -0.00595949 -0.0063343 -0.00659807 -0.00674337 -0.00676497 -0.0066596 -0.00642589 -0.00606457 -0.00557864 -0.00497363 -0.00425789 -0.00344276 -0.00254269 -0.00157518 -0.000560679 0.000477819 0.00151527 0.00252529 0.00348107 0.00435642 0.00512698 0.00577145 0.00627293 0.00662016 0.00680867 0.00684185 0.00673186 0.00650072 0.00618182 0.0058226 0.00548892 0.00526878 -0.000546098 -0.0011483 -0.00183233 -0.00256088 -0.00329788 -0.00401254 -0.0046803 -0.00528215 -0.00580342 -0.00623265 -0.00656065 -0.00677987 -0.00688408 -0.00686828 -0.00672881 -0.0064636 -0.00607252 -0.00555777 -0.00492431 -0.00418018 -0.00333683 -0.00240925 -0.00141597 -0.0003789 0.000677124 0.00172498 0.00273616 0.00368191 0.0045346 0.00526911 0.00586445 0.00630521 0.00658295 0.00669736 0.00665728 0.00648149 0.00619957 0.00585301 0.00549637 0.00519633 0.000206968 -0.000565147 -0.0013769 -0.00219962 -0.00300787 -0.00378061 -0.00450113 -0.00515635 -0.00573575 -0.00623044 -0.00663246 -0.00693436 -0.00712903 -0.0072098 -0.00717065 -0.00700666 -0.00671446 -0.00629278 -0.00574307 -0.00506996 -0.0042818 -0.00339098 -0.00241412 -0.00137204 -0.000289468 0.000805538 0.00188248 0.00290962 0.00385545 0.00469032 0.00538828 0.00592884 0.0062986 0.00649264 0.00651564 0.00638258 0.00611924 0.0057625 0.00536024 0.0049694 0.000919643 -1.40917e-05 -0.000956007 -0.00188195 -0.0027737 -0.00361777 -0.00440414 -0.00512508 -0.00577399 -0.00634451 -0.00682997 -0.00722307 -0.00751591 -0.00770018 -0.00776756 -0.00771025 -0.00752162 -0.00719686 -0.00673378 -0.00613349 -0.00540106 -0.00454611 -0.00358313 -0.00253171 -0.00141636 -0.000266056 0.000886568 0.00200647 0.00305773 0.00400545 0.00481781 0.00546814 0.00593698 0.00621379 0.0062983 0.00620133 0.00594526 0.00556402 0.00510249 0.00461489 0.00153384 0.000450369 -0.000617166 -0.00164768 -0.00262835 -0.00355163 -0.00441302 -0.00520931 -0.00593729 -0.00659285 -0.00717044 -0.00766289 -0.00806152 -0.00835643 -0.00853704 -0.00859273 -0.00851355 -0.00829114 -0.00791954 -0.00739613 -0.00672244 -0.00590499 -0.00495582 -0.0038929 -0.00274024 -0.00152755 -0.00028955 0.000935188 0.00210589 0.00318164 0.00412369 0.00489803 0.00547786 0.0058458 0.0059957 0.00593381 0.00567939 0.0052647 0.00473438 0.00414399 0.00200075 0.000780979 -0.000403768 -0.00153528 -0.00260532 -0.00361131 -0.00455326 -0.00543173 -0.00624629 -0.00699466 -0.00767218 -0.00827168 -0.00878367 -0.00919672 -0.00949804 -0.0096742 -0.00971198 -0.00959934 -0.00932641 -0.00888654 -0.00827741 -0.00750193 -0.00656916 -0.00549495 -0.00430226 -0.00302115 -0.00168827 -0.000345779 0.000960287 0.0021822 0.00327321 0.00419058 0.00489862 0.00537165 0.00559644 0.00557395 0.00532031 0.00486695 0.00426001 0.00355907 0.002278 0.000936144 -0.000355177 -0.00158096 -0.00273734 -0.0038261 -0.00485112 -0.00581603 -0.00672264 -0.00757009 -0.00835434 -0.00906809 -0.00970102 -0.0102402 -0.0106706 -0.0109761 -0.0111402 -0.011147 -0.0109826 -0.0106359 -0.0101002 -0.00937424 -0.00846345 -0.00738076 -0.00614741 -0.0047932 -0.00335631 -0.00188241 -0.000423128 0.000966247 0.00222976 0.00331435 0.00417364 0.00477181 0.00508693 0.00511354 0.00486419 0.00436981 0.00367918 0.00285753 0.00232807 0.000878925 -0.000506952 -0.00181826 -0.0030555 -0.00422454 -0.00533265 -0.00638603 -0.00738831 -0.00833966 -0.00923646 -0.0100712 -0.0108326 -0.0115063 -0.0120753 -0.0125205 -0.0128222 -0.0129606 -0.0129172 -0.0126764 -0.0122263 -0.0115609 -0.010681 -0.0095957 -0.00832359 -0.00689338 -0.00534415 -0.00372481 -0.00209273 -0.00051147 0.000952538 0.00223411 0.00327406 0.00402411 0.0044515 0.00454267 0.0043056 0.00377059 0.00298958 0.00203458 0.0021176 0.000576501 -0.000890984 -0.00227773 -0.00358868 -0.00483361 -0.00602286 -0.00716487 -0.00826473 -0.00932345 -0.0103376 -0.0112995 -0.0121969 -0.0130141 -0.0137318 -0.0143286 -0.0147811 -0.0150655 -0.0151587 -0.0150396 -0.0146909 -0.0141007 -0.0132642 -0.0121857 -0.0108799 -0.00937324 -0.00770484 -0.00592627 -0.00410061 -0.00230022 -0.000603301 0.000910892 0.0021678 0.00310389 0.00367276 0.00385039 0.00363859 0.00306627 0.00218869 0.00108529 0.00161716 -2.84027e-08 -0.00153551 -0.00298669 -0.00436301 -0.00567801 -0.00694488 -0.00817405 -0.00937189 -0.0105401 -0.0116754 -0.0127698 -0.0138105 -0.0147801 -0.0156577 -0.016419 -0.0170372 -0.0174843 -0.0177321 -0.0177538 -0.0175257 -0.0170291 -0.0162528 -0.0151945 -0.0138639 -0.0122837 -0.0104917 -0.00854143 -0.00650105 -0.00445215 -0.00248583 -0.000697508 0.000820005 0.00198444 0.00273221 0.00302561 0.00285786 0.00225514 0.00127567 6.64374e-06 0.000801339 -0.000875584 -0.002465 -0.00396901 -0.0054015 -0.00677959 -0.00811917 -0.00943251 -0.0107272 -0.0120055 -0.0132646 -0.0144961 -0.0156865 -0.0168175 -0.0178661 -0.0188056 -0.0196056 -0.0202337 -0.0206564 -0.0208406 -0.0207556 -0.0203751 -0.0196797 -0.0186597 -0.0173177 -0.0156711 -0.013755 -0.011623 -0.00934787 -0.0070201 -0.00474468 -0.00263522 -0.000806011 0.000637887 0.00161119 0.00205822 0.00196019 0.00133842 0.000253238 -0.00120043 -0.000350932 -0.00207091 -0.00369994 -0.00524479 -0.00672354 -0.00815672 -0.00956274 -0.0109557 -0.0123443 -0.0137317 -0.0151153 -0.016487 -0.0178327 -0.019133 -0.0203635 -0.0214947 -0.022493 -0.0233215 -0.0239409 -0.0243116 -0.0243951 -0.0241563 -0.0235669 -0.0226078 -0.0212729 -0.0195727 -0.0175368 -0.0152174 -0.0126902 -0.010054 -0.0074281 -0.00494606 -0.00274696 -0.000963379 0.000292174 0.000940508 0.0009461 0.000322235 -0.000870166 -0.0025288 -0.00185598 -0.00360228 -0.00525662 -0.00683009 -0.00834458 -0.00982374 -0.0112884 -0.0127544 -0.0142319 -0.0157251 -0.0172321 -0.0187448 -0.0202493 -0.0217255 -0.0231472 -0.0244828 -0.0256953 -0.0267433 -0.0275817 -0.0281638 -0.0284428 -0.0283742 -0.0279193 -0.0270483 -0.0257448 -0.0240093 -0.0218644 -0.0193581 -0.0165667 -0.0135959 -0.0105786 -0.00766987 -0.00503676 -0.00284446 -0.00123925 -0.000330943 -0.000178122 -0.00078014 -0.00207789 -0.00396249 -0.00372496 -0.00548126 -0.00714694 -0.00873674 -0.0102758 -0.0117905 -0.013304 -0.0148341 -0.0163928 -0.0179855 -0.0196115 -0.0212634 -0.0229274 -0.024583 -0.026203 -0.0277534 -0.0291942 -0.0304792 -0.0315579 -0.0323759 -0.0328778 -0.0330091 -0.0327197 -0.0319679 -0.0307247 -0.0289791 -0.0267433 -0.0240583 -0.020998 -0.0176723 -0.0142266 -0.0108374 -0.00770236 -0.0050246 -0.0029917 -0.00175278 -0.00139792 -0.00194558 -0.00334213 -0.00547361 -0.0059635 -0.00771449 -0.00937831 -0.0109722 -0.0125238 -0.0140619 -0.0156119 -0.0171941 -0.0188225 -0.0205047 -0.0222413 -0.0240264 -0.0258466 -0.0276816 -0.029503 -0.0312751 -0.0329548 -0.0344915 -0.0358287 -0.0369049 -0.0376556 -0.0380159 -0.0379238 -0.0373243 -0.0361746 -0.0344496 -0.0321487 -0.0293022 -0.0259781 -0.0222866 -0.0183826 -0.0144631 -0.0107579 -0.00751253 -0.00496413 -0.0033116 -0.00268733 -0.00313781 -0.00462046 -0.00701864 -0.00857151 -0.0103037 -0.0119538 -0.0135398 -0.0150909 -0.0166378 -0.0182087 -0.0198266 -0.0215087 -0.023265 -0.0250989 -0.027006 -0.0289742 -0.0309833 -0.0330044 -0.0350002 -0.0369243 -0.0387223 -0.0403319 -0.0416842 -0.0427058 -0.0433213 -0.0434563 -0.0430421 -0.0420207 -0.0403514 -0.0380178 -0.0350364 -0.0314646 -0.0274083 -0.0230277 -0.0185367 -0.0141969 -0.0103001 -0.00714085 -0.00497971 -0.00400502 -0.00430348 -0.00585167 -0.00853411 -0.0115433 -0.0132462 -0.0148724 -0.016439 -0.017975 -0.0195131 -0.0210846 -0.0227165 -0.02443 -0.0262392 -0.0281506 -0.0301623 -0.032264 -0.0344359 -0.0366489 -0.0388639 -0.0410321 -0.0430947 -0.0449838 -0.0466236 -0.0479321 -0.0488232 -0.0492105 -0.0490112 -0.0481517 -0.0465743 -0.044245 -0.0411629 -0.0373706 -0.0329644 -0.028103 -0.0230126 -0.0179833 -0.0133544 -0.00948486 -0.00670966 -0.00528948 -0.00536738 -0.00695079 -0.00993143 -0.0148677 -0.0165349 -0.01813 -0.0196659 -0.0211703 -0.0226778 -0.0242238 -0.0258411 -0.0275565 -0.0293897 -0.0313514 -0.0334432 -0.0356567 -0.0379732 -0.0403633 -0.0427863 -0.0451905 -0.0475132 -0.0496812 -0.0516117 -0.0532144 -0.0543932 -0.05505 -0.0550883 -0.054419 -0.0529669 -0.0506792 -0.0475352 -0.0435585 -0.03883 -0.0335002 -0.0277995 -0.0220405 -0.016608 -0.0119297 -0.00842744 -0.00645307 -0.00622673 -0.00780332 -0.0110909 -0.0185294 -0.0201604 -0.0217206 -0.0232148 -0.0246681 -0.0261174 -0.0276044 -0.0291699 -0.0308489 -0.0326684 -0.034645 -0.0367845 -0.0390809 -0.0415167 -0.0440618 -0.046674 -0.0492986 -0.0518688 -0.0543059 -0.0565207 -0.0584147 -0.0598825 -0.060815 -0.0611028 -0.0606421 -0.0593407 -0.0571267 -0.0539584 -0.0498377 -0.0448244 -0.0390536 -0.0327505 -0.026241 -0.0199484 -0.0143699 -0.0100243 -0.00737486 -0.00674447 -0.00825836 -0.0118548 -0.0225097 -0.024112 -0.0256379 -0.0270796 -0.028458 -0.029814 -0.0311989 -0.032665 -0.0342591 -0.0360177 -0.0379651 -0.0401119 -0.0424551 -0.0449777 -0.0476491 -0.0504248 -0.0532467 -0.0560435 -0.058731 -0.0612135 -0.0633847 -0.0651305 -0.0663314 -0.0668666 -0.0666185 -0.0654796 -0.0633596 -0.0601962 -0.0559681 -0.0507109 -0.0445368 -0.0376563 -0.030396 -0.0232069 -0.0166501 -0.0113471 -0.00789221 -0.00674128 -0.0081206 -0.0120192 -0.0267891 -0.0283806 -0.0298783 -0.0312558 -0.0325292 -0.0337468 -0.0349744 -0.0362814 -0.0377305 -0.039371 -0.0412364 -0.043343 -0.0456904 -0.0482619 -0.0510253 -0.053933 -0.0569228 -0.0599182 -0.0628291 -0.0655529 -0.0679759 -0.0699756 -0.0714229 -0.0721867 -0.0721374 -0.0711536 -0.0691292 -0.0659829 -0.0616708 -0.056203 -0.0496648 -0.042242 -0.034249 -0.0261488 -0.018554 -0.0121875 -0.00779088 -0.00598628 -0.00714088 -0.0113243 -0.0313503 -0.0329627 -0.0344444 -0.0357435 -0.0368723 -0.0378926 -0.0388929 -0.039967 -0.0411988 -0.0426541 -0.0443771 -0.0463901 -0.0486948 -0.0512735 -0.0540912 -0.0570957 -0.0602197 -0.0633803 -0.0664808 -0.0694113 -0.0720505 -0.0742672 -0.075924 -0.0768798 -0.0769948 -0.0761359 -0.0741836 -0.0710406 -0.0666437 -0.060979 -0.0541031 -0.0461717 -0.0374736 -0.0284659 -0.0197936 -0.0122704 -0.00679379 -0.00418602 -0.00500487 -0.0094433 -0.0361831 -0.037866 -0.03935 -0.0405507 -0.041481 -0.042227 -0.0429117 -0.0436629 -0.0445928 -0.0457871 -0.0473018 -0.0491647 -0.0513779 -0.0539213 -0.0567547 -0.05982 -0.0630425 -0.0663321 -0.0695839 -0.0726802 -0.0754912 -0.0778774 -0.0796924 -0.0807862 -0.0810097 -0.0802199 -0.0782865 -0.0751003 -0.0705829 -0.0647009 -0.0574853 -0.0490594 -0.0396781 -0.0297742 -0.020001 -0.0112421 -0.00454822 -0.000971374 -0.00131914 -0.00596807 -0.0412924 -0.0431183 -0.0446277 -0.0456982 -0.0463544 -0.0467244 -0.0469827 -0.047304 -0.0478359 -0.0486869 -0.0499248 -0.0515812 -0.0536563 -0.0561244 -0.0589377 -0.0620295 -0.065316 -0.0686978 -0.0720609 -0.0752781 -0.0782106 -0.0807098 -0.0826199 -0.0837819 -0.0840377 -0.0832355 -0.0812365 -0.0779227 -0.0732058 -0.0670394 -0.0594353 -0.0504889 -0.040418 -0.0296175 -0.0187236 -0.00865925 -0.000611411 0.0041185 0.0044067 -0.000390642 -0.0467105 -0.0487811 -0.0503394 -0.0512256 -0.0514989 -0.051358 -0.0510526 -0.0508193 -0.0508478 -0.0512705 -0.0521653 -0.0535637 -0.05546 -0.0578191 -0.0605822 -0.0636711 -0.0669906 -0.07043 -0.0738645 -0.0771564 -0.0801564 -0.0827057 -0.0846386 -0.085786 -0.0859803 -0.085061 -0.0828816 -0.0793174 -0.0742745 -0.0677004 -0.059597 -0.050041 -0.0392184 -0.0274808 -0.0154255 -0.00397975 0.00556563 0.0116566 0.0127843 0.00792291 -0.0525191 -0.0549717 -0.056592 -0.0571989 -0.0569303 -0.0560999 -0.055063 -0.0541336 -0.053548 -0.0534603 -0.0539531 -0.0550518 -0.0567389 -0.0589649 -0.0616563 -0.06472 -0.0680469 -0.071513 -0.0749813 -0.0783018 -0.0813138 -0.0838469 -0.0857239 -0.0867646 -0.0867904 -0.0856307 -0.0831302 -0.0791579 -0.0736164 -0.0664521 -0.0576658 -0.0473284 -0.0356067 -0.0228144 -0.0094989 0.00344168 0.0146561 0.0223554 0.0245818 0.0197721 -0.0588876 -0.061899 -0.0635606 -0.063721 -0.0626768 -0.0609208 -0.0589508 -0.0571704 -0.055861 -0.0551905 -0.055236 -0.0560078 -0.0574691 -0.0595504 -0.0621586 -0.0651829 -0.0684977 -0.0719642 -0.0754312 -0.0787358 -0.0817041 -0.084153 -0.0858926 -0.0867295 -0.086472 -0.0849368 -0.0819574 -0.0773935 -0.0711428 -0.0631514 -0.0534248 -0.042039 -0.0291587 -0.0150756 -0.000290341 0.0143487 0.0274756 0.0371042 0.0407771 0.0361866 -0.0661427 -0.0699245 -0.0715244 -0.0709456 -0.0687809 -0.0657907 -0.0626507 -0.0598572 -0.0577236 -0.0564148 -0.0559871 -0.0564233 -0.0576583 -0.059596 -0.0621197 -0.0650979 -0.0683866 -0.0718306 -0.0752639 -0.0785093 -0.0813794 -0.083677 -0.0851979 -0.0857339 -0.0850777 -0.0830299 -0.0794081 -0.0740579 -0.0668655 -0.0577718 -0.0467845 -0.0339893 -0.0195618 -0.00379243 0.0128467 0.0295589 0.0449965 0.0570211 0.0626432 0.0585388 -0.0748985 -0.079663 -0.0809163 -0.0790912 -0.0753005 -0.0706783 -0.0660987 -0.0621312 -0.0590913 -0.0571127 -0.0562093 -0.0563213 -0.0573451 -0.0591522 -0.0615983 -0.064529 -0.0677809 -0.0711819 -0.0745505 -0.0776954 -0.0804146 -0.0824969 -0.0837226 -0.0838672 -0.0827053 -0.080018 -0.0756015 -0.0692793 -0.0609161 -0.0504346 -0.0378316 -0.0231924 -0.00670268 0.0113356 0.0304567 0.0498994 0.0683415 0.0835211 0.0918881 0.0887471 -0.0863067 -0.0921535 -0.0923891 -0.0884489 -0.0823001 -0.0755439 -0.0692286 -0.0639389 -0.059938 -0.0572872 -0.0559307 -0.055749 -0.0565905 -0.0582884 -0.0606688 -0.0635534 -0.0667592 -0.0700975 -0.073372 -0.0763774 -0.0788981 -0.0807085 -0.0815737 -0.0812518 -0.0794981 -0.0760706 -0.0707391 -0.0632958 -0.0535704 -0.0414476 -0.0268872 -0.00994408 0.00921337 0.0302876 0.0528172 0.0760633 0.0987196 0.118387 0.13088 0.129655 -0.102562 -0.109134 -0.106876 -0.0993563 -0.0898094 -0.0803039 -0.0719431 -0.0652101 -0.0602306 -0.0569392 -0.0551785 -0.0547518 -0.0554509 -0.0570677 -0.0593975 -0.0622389 -0.0653907 -0.0686489 -0.0718039 -0.0746378 -0.0769229 -0.0784203 -0.0788809 -0.0780462 -0.0756513 -0.07143 -0.0651211 -0.0564778 -0.04528 -0.0313506 -0.0145754 0.00507277 0.0275081 0.0525059 0.0796681 0.108323 0.137215 0.16378 0.182992 0.185736 -0.127981 -0.133443 -0.125566 -0.112056 -0.0976805 -0.0847074 -0.0740096 -0.065769 -0.0598524 -0.0560002 -0.0539187 -0.0533188 -0.0539303 -0.0555033 -0.0578045 -0.0606117 -0.0637083 -0.0668781 -0.0699007 -0.0725483 -0.0745829 -0.0757554 -0.0758042 -0.0744564 -0.0714289 -0.0664316 -0.059171 -0.0493562 -0.0367062 -0.0209596 -0.00188825 0.0206843 0.0468572 0.0766196 0.109807 0.146011 0.184255 0.221996 0.253049 0.264388 -0.171449 -0.169436 -0.149522 -0.126211 -0.105161 -0.0879956 -0.0748006 -0.0651389 -0.0584528 -0.0542127 -0.0519586 -0.0513017 -0.0519117 -0.053502 -0.0558167 -0.0586187 -0.0616808 -0.0647786 -0.0676851 -0.0701659 -0.0719767 -0.0728611 -0.0725492 -0.070757 -0.0671871 -0.0615289 -0.0534597 -0.0426452 -0.0287401 -0.0113866 0.00978667 0.0351668 0.0651553 0.100158 0.14056 0.186671 0.23848 0.294445 0.347582 0.378287 -0.252266 -0.222589 -0.178107 -0.139427 -0.109792 -0.0881812 -0.0728472 -0.0622591 -0.0552565 -0.0509911 -0.0488391 -0.0483284 -0.0490872 -0.0508085 -0.053226 -0.0560974 -0.0591925 -0.0622851 -0.0651463 -0.0675402 -0.0692205 -0.0699279 -0.0693885 -0.0673129 -0.0633947 -0.0573097 -0.0487131 -0.0372364 -0.0224786 -0.00399353 0.0187329 0.0463189 0.0795403 0.119407 0.167259 0.224891 0.294643 0.37876 0.47356 0.550053 -0.413213 -0.294638 -0.202854 -0.143116 -0.105344 -0.0811775 -0.0654935 -0.0553381 -0.0489819 -0.0453624 -0.043785 -0.0437625 -0.0449279 -0.0469847 -0.0496772 -0.0527724 -0.0560479 -0.0592832 -0.0622545 -0.0647296 -0.0664651 -0.067204 -0.0666737 -0.0645849 -0.0606293 -0.0544776 -0.0457752 -0.0341351 -0.0191244 -0.000241652 0.0231237 0.0517601 0.0867558 0.129712 0.18312 0.251034 0.340237 0.462023 0.630253 0.823279 -0.752817 -0.345318 -0.186294 -0.116544 -0.0812949 -0.0614276 -0.0495004 -0.0422534 -0.038087 -0.0361215 -0.0358137 -0.0367877 -0.0387547 -0.0414729 -0.0447255 -0.0483071 -0.0520158 -0.0556469 -0.0589886 -0.0618188 -0.0639024 -0.0649896 -0.0648144 -0.0630929 -0.059522 -0.0537768 -0.0455066 -0.034327 -0.0198068 -0.00144378 0.0213781 0.0494647 0.0839548 0.126603 0.180389 0.250958 0.35027 0.505473 0.774777 1.27439 0 0 0 0 0 0 0 0 0 0 0 0 0 0 0 0 0 0 0 0 0 0 0 0 0 0 0 0 0 0 0 0 0 0 0 0 0 0 0 0 -0.00204561 -0.00240867 -0.00293556 -0.00348682 -0.00401157 -0.00448091 -0.00487422 -0.00517617 -0.00537574 -0.00546557 -0.00544137 -0.00530153 -0.00504682 -0.00468034 -0.00420757 -0.00363641 -0.00297738 -0.00224363 -0.00145092 -0.000617428 0.000236641 0.00108954 0.00191867 0.00270139 0.00341589 0.00404206 0.00456246 0.00496304 0.00523395 0.00537005 0.00537135 0.00524324 0.00499646 0.00464681 0.00421459 0.00372375 0.00320123 0.00267838 0.00220357 0.00190796 -0.00234784 -0.00254203 -0.00291627 -0.00335282 -0.00378833 -0.00418586 -0.00452177 -0.00477995 -0.00494935 -0.00502258 -0.00499515 -0.00486502 -0.00463233 -0.0042994 -0.00387072 -0.0033531 -0.00275577 -0.00209045 -0.0013713 -0.000614753 0.000160818 0.00093555 0.00168873 0.00239952 0.0030478 0.00361506 0.00408522 0.00444552 0.00468717 0.004806 0.00480281 0.0046836 0.00445954 0.0041468 0.00376631 0.00334376 0.00291072 0.00250876 0.00220162 0.0021025 -0.00227204 -0.00249555 -0.00283329 -0.00321768 -0.00360079 -0.0039509 -0.00424696 -0.00447478 -0.00462466 -0.00469005 -0.00466675 -0.0045525 -0.00434682 -0.00405102 -0.00366829 -0.00320392 -0.00266545 -0.00206275 -0.00140811 -0.000716118 -3.40434e-06 0.000711715 0.00140981 0.00207104 0.00267594 0.00320638 0.00364643 0.00398335 0.00420835 0.0043173 0.00431119 0.00419634 0.00398438 0.00369207 0.00334104 0.00295773 0.00257424 0.00223045 0.00197833 0.001885 -0.00201541 -0.00233626 -0.00270351 -0.00308394 -0.00344846 -0.00377556 -0.00405027 -0.00426231 -0.00440456 -0.00447201 -0.00446117 -0.00436971 -0.00419652 -0.00394174 -0.00360705 -0.0031959 -0.00271381 -0.00216858 -0.00157043 -0.000932068 -0.000268505 0.00040319 0.00106439 0.00169554 0.00227705 0.00279018 0.00321818 0.0035473 0.00376779 0.00387476 0.00386872 0.00375588 0.00354811 0.00326253 0.00292107 0.00254992 0.00217923 0.00184307 0.00157897 0.00142424 -0.00169694 -0.00213527 -0.00256448 -0.00297178 -0.00334348 -0.00366857 -0.0039392 -0.00414995 -0.00429692 -0.00437706 -0.00438775 -0.00432672 -0.00419214 -0.00398289 -0.0036989 -0.00334158 -0.00291422 -0.00242234 -0.00187399 -0.00127994 -0.000653693 -1.12912e-05 0.000629055 0.0012476 0.00182391 0.00233794 0.00277121 0.00310807 0.00333694 0.00345131 0.00345051 0.00334006 0.00313159 0.00284231 0.00249411 0.0021125 0.00172533 0.00136141 0.00104832 0.000808551 -0.00139502 -0.00195306 -0.00245803 -0.00290979 -0.0033063 -0.00364577 -0.00392723 -0.00415016 -0.004314 -0.00441768 -0.0044595 -0.00443716 -0.00434806 -0.00418964 -0.00395994 -0.00365814 -0.00328509 -0.00284388 -