# vtk DataFile Version 2.0
Presion
ASCII

DATASET STRUCTURED_GRID
DIMENSIONS   40   40   20

POINTS   32000   double
0.0125   0.0125   0.025
0.0375   0.0125   0.025
0.0625   0.0125   0.025
0.0875   0.0125   0.025
0.1125   0.0125   0.025
0.1375   0.0125   0.025
0.1625   0.0125   0.025
0.1875   0.0125   0.025
0.2125   0.0125   0.025
0.2375   0.0125   0.025
0.2625   0.0125   0.025
0.2875   0.0125   0.025
0.3125   0.0125   0.025
0.3375   0.0125   0.025
0.3625   0.0125   0.025
0.3875   0.0125   0.025
0.4125   0.0125   0.025
0.4375   0.0125   0.025
0.4625   0.0125   0.025
0.4875   0.0125   0.025
0.5125   0.0125   0.025
0.5375   0.0125   0.025
0.5625   0.0125   0.025
0.5875   0.0125   0.025
0.6125   0.0125   0.025
0.6375   0.0125   0.025
0.6625   0.0125   0.025
0.6875   0.0125   0.025
0.7125   0.0125   0.025
0.7375   0.0125   0.025
0.7625   0.0125   0.025
0.7875   0.0125   0.025
0.8125   0.0125   0.025
0.8375   0.0125   0.025
0.8625   0.0125   0.025
0.8875   0.0125   0.025
0.9125   0.0125   0.025
0.9375   0.0125   0.025
0.9625   0.0125   0.025
0.9875   0.0125   0.025
0.0125   0.0375   0.025
0.0375   0.0375   0.025
0.0625   0.0375   0.025
0.0875   0.0375   0.025
0.1125   0.0375   0.025
0.1375   0.0375   0.025
0.1625   0.0375   0.025
0.1875   0.0375   0.025
0.2125   0.0375   0.025
0.2375   0.0375   0.025
0.2625   0.0375   0.025
0.2875   0.0375   0.025
0.3125   0.0375   0.025
0.3375   0.0375   0.025
0.3625   0.0375   0.025
0.3875   0.0375   0.025
0.4125   0.0375   0.025
0.4375   0.0375   0.025
0.4625   0.0375   0.025
0.4875   0.0375   0.025
0.5125   0.0375   0.025
0.5375   0.0375   0.025
0.5625   0.0375   0.025
0.5875   0.0375   0.025
0.6125   0.0375   0.025
0.6375   0.0375   0.025
0.6625   0.0375   0.025
0.6875   0.0375   0.025
0.7125   0.0375   0.025
0.7375   0.0375   0.025
0.7625   0.0375   0.025
0.7875   0.0375   0.025
0.8125   0.0375   0.025
0.8375   0.0375   0.025
0.8625   0.0375   0.025
0.8875   0.0375   0.025
0.9125   0.0375   0.025
0.9375   0.0375   0.025
0.9625   0.0375   0.025
0.9875   0.0375   0.025
0.0125   0.0625   0.025
0.0375   0.0625   0.025
0.0625   0.0625   0.025
0.0875   0.0625   0.025
0.1125   0.0625   0.025
0.1375   0.0625   0.025
0.1625   0.0625   0.025
0.1875   0.0625   0.025
0.2125   0.0625   0.025
0.2375   0.0625   0.025
0.2625   0.0625   0.025
0.2875   0.0625   0.025
0.3125   0.0625   0.025
0.3375   0.0625   0.025
0.3625   0.0625   0.025
0.3875   0.0625   0.025
0.4125   0.0625   0.025
0.4375   0.0625   0.025
0.4625   0.0625   0.025
0.4875   0.0625   0.025
0.5125   0.0625   0.025
0.5375   0.0625   0.025
0.5625   0.0625   0.025
0.5875   0.0625   0.025
0.6125   0.0625   0.025
0.6375   0.0625   0.025
0.6625   0.0625   0.025
0.6875   0.0625   0.025
0.7125   0.0625   0.025
0.7375   0.0625   0.025
0.7625   0.0625   0.025
0.7875   0.0625   0.025
0.8125   0.0625   0.025
0.8375   0.0625   0.025
0.8625   0.0625   0.025
0.8875   0.0625   0.025
0.9125   0.0625   0.025
0.9375   0.0625   0.025
0.9625   0.0625   0.025
0.9875   0.0625   0.025
0.0125   0.0875   0.025
0.0375   0.0875   0.025
0.0625   0.0875   0.025
0.0875   0.0875   0.025
0.1125   0.0875   0.025
0.1375   0.0875   0.025
0.1625   0.0875   0.025
0.1875   0.0875   0.025
0.2125   0.0875   0.025
0.2375   0.0875   0.025
0.2625   0.0875   0.025
0.2875   0.0875   0.025
0.3125   0.0875   0.025
0.3375   0.0875   0.025
0.3625   0.0875   0.025
0.3875   0.0875   0.025
0.4125   0.0875   0.025
0.4375   0.0875   0.025
0.4625   0.0875   0.025
0.4875   0.0875   0.025
0.5125   0.0875   0.025
0.5375   0.0875   0.025
0.5625   0.0875   0.025
0.5875   0.0875   0.025
0.6125   0.0875   0.025
0.6375   0.0875   0.025
0.6625   0.0875   0.025
0.6875   0.0875   0.025
0.7125   0.0875   0.025
0.7375   0.0875   0.025
0.7625   0.0875   0.025
0.7875   0.0875   0.025
0.8125   0.0875   0.025
0.8375   0.0875   0.025
0.8625   0.0875   0.025
0.8875   0.0875   0.025
0.9125   0.0875   0.025
0.9375   0.0875   0.025
0.9625   0.0875   0.025
0.9875   0.0875   0.025
0.0125   0.1125   0.025
0.0375   0.1125   0.025
0.0625   0.1125   0.025
0.0875   0.1125   0.025
0.1125   0.1125   0.025
0.1375   0.1125   0.025
0.1625   0.1125   0.025
0.1875   0.1125   0.025
0.2125   0.1125   0.025
0.2375   0.1125   0.025
0.2625   0.1125   0.025
0.2875   0.1125   0.025
0.3125   0.1125   0.025
0.3375   0.1125   0.025
0.3625   0.1125   0.025
0.3875   0.1125   0.025
0.4125   0.1125   0.025
0.4375   0.1125   0.025
0.4625   0.1125   0.025
0.4875   0.1125   0.025
0.5125   0.1125   0.025
0.5375   0.1125   0.025
0.5625   0.1125   0.025
0.5875   0.1125   0.025
0.6125   0.1125   0.025
0.6375   0.1125   0.025
0.6625   0.1125   0.025
0.6875   0.1125   0.025
0.7125   0.1125   0.025
0.7375   0.1125   0.025
0.7625   0.1125   0.025
0.7875   0.1125   0.025
0.8125   0.1125   0.025
0.8375   0.1125   0.025
0.8625   0.1125   0.025
0.8875   0.1125   0.025
0.9125   0.1125   0.025
0.9375   0.1125   0.025
0.9625   0.1125   0.025
0.9875   0.1125   0.025
0.0125   0.1375   0.025
0.0375   0.1375   0.025
0.0625   0.1375   0.025
0.0875   0.1375   0.025
0.1125   0.1375   0.025
0.1375   0.1375   0.025
0.1625   0.1375   0.025
0.1875   0.1375   0.025
0.2125   0.1375   0.025
0.2375   0.1375   0.025
0.2625   0.1375   0.025
0.2875   0.1375   0.025
0.3125   0.1375   0.025
0.3375   0.1375   0.025
0.3625   0.1375   0.025
0.3875   0.1375   0.025
0.4125   0.1375   0.025
0.4375   0.1375   0.025
0.4625   0.1375   0.025
0.4875   0.1375   0.025
0.5125   0.1375   0.025
0.5375   0.1375   0.025
0.5625   0.1375   0.025
0.5875   0.1375   0.025
0.6125   0.1375   0.025
0.6375   0.1375   0.025
0.6625   0.1375   0.025
0.6875   0.1375   0.025
0.7125   0.1375   0.025
0.7375   0.1375   0.025
0.7625   0.1375   0.025
0.7875   0.1375   0.025
0.8125   0.1375   0.025
0.8375   0.1375   0.025
0.8625   0.1375   0.025
0.8875   0.1375   0.025
0.9125   0.1375   0.025
0.9375   0.1375   0.025
0.9625   0.1375   0.025
0.9875   0.1375   0.025
0.0125   0.1625   0.025
0.0375   0.1625   0.025
0.0625   0.1625   0.025
0.0875   0.1625   0.025
0.1125   0.1625   0.025
0.1375   0.1625   0.025
0.1625   0.1625   0.025
0.1875   0.1625   0.025
0.2125   0.1625   0.025
0.2375   0.1625   0.025
0.2625   0.1625   0.025
0.2875   0.1625   0.025
0.3125   0.1625   0.025
0.3375   0.1625   0.025
0.3625   0.1625   0.025
0.3875   0.1625   0.025
0.4125   0.1625   0.025
0.4375   0.1625   0.025
0.4625   0.1625   0.025
0.4875   0.1625   0.025
0.5125   0.1625   0.025
0.5375   0.1625   0.025
0.5625   0.1625   0.025
0.5875   0.1625   0.025
0.6125   0.1625   0.025
0.6375   0.1625   0.025
0.6625   0.1625   0.025
0.6875   0.1625   0.025
0.7125   0.1625   0.025
0.7375   0.1625   0.025
0.7625   0.1625   0.025
0.7875   0.1625   0.025
0.8125   0.1625   0.025
0.8375   0.1625   0.025
0.8625   0.1625   0.025
0.8875   0.1625   0.025
0.9125   0.1625   0.025
0.9375   0.1625   0.025
0.9625   0.1625   0.025
0.9875   0.1625   0.025
0.0125   0.1875   0.025
0.0375   0.1875   0.025
0.0625   0.1875   0.025
0.0875   0.1875   0.025
0.1125   0.1875   0.025
0.1375   0.1875   0.025
0.1625   0.1875   0.025
0.1875   0.1875   0.025
0.2125   0.1875   0.025
0.2375   0.1875   0.025
0.2625   0.1875   0.025
0.2875   0.1875   0.025
0.3125   0.1875   0.025
0.3375   0.1875   0.025
0.3625   0.1875   0.025
0.3875   0.1875   0.025
0.4125   0.1875   0.025
0.4375   0.1875   0.025
0.4625   0.1875   0.025
0.4875   0.1875   0.025
0.5125   0.1875   0.025
0.5375   0.1875   0.025
0.5625   0.1875   0.025
0.5875   0.1875   0.025
0.6125   0.1875   0.025
0.6375   0.1875   0.025
0.6625   0.1875   0.025
0.6875   0.1875   0.025
0.7125   0.1875   0.025
0.7375   0.1875   0.025
0.7625   0.1875   0.025
0.7875   0.1875   0.025
0.8125   0.1875   0.025
0.8375   0.1875   0.025
0.8625   0.1875   0.025
0.8875   0.1875   0.025
0.9125   0.1875   0.025
0.9375   0.1875   0.025
0.9625   0.1875   0.025
0.9875   0.1875   0.025
0.0125   0.2125   0.025
0.0375   0.2125   0.025
0.0625   0.2125   0.025
0.0875   0.2125   0.025
0.1125   0.2125   0.025
0.1375   0.2125   0.025
0.1625   0.2125   0.025
0.1875   0.2125   0.025
0.2125   0.2125   0.025
0.2375   0.2125   0.025
0.2625   0.2125   0.025
0.2875   0.2125   0.025
0.3125   0.2125   0.025
0.3375   0.2125   0.025
0.3625   0.2125   0.025
0.3875   0.2125   0.025
0.4125   0.2125   0.025
0.4375   0.2125   0.025
0.4625   0.2125   0.025
0.4875   0.2125   0.025
0.5125   0.2125   0.025
0.5375   0.2125   0.025
0.5625   0.2125   0.025
0.5875   0.2125   0.025
0.6125   0.2125   0.025
0.6375   0.2125   0.025
0.6625   0.2125   0.025
0.6875   0.2125   0.025
0.7125   0.2125   0.025
0.7375   0.2125   0.025
0.7625   0.2125   0.025
0.7875   0.2125   0.025
0.8125   0.2125   0.025
0.8375   0.2125   0.025
0.8625   0.2125   0.025
0.8875   0.2125   0.025
0.9125   0.2125   0.025
0.9375   0.2125   0.025
0.9625   0.2125   0.025
0.9875   0.2125   0.025
0.0125   0.2375   0.025
0.0375   0.2375   0.025
0.0625   0.2375   0.025
0.0875   0.2375   0.025
0.1125   0.2375   0.025
0.1375   0.2375   0.025
0.1625   0.2375   0.025
0.1875   0.2375   0.025
0.2125   0.2375   0.025
0.2375   0.2375   0.025
0.2625   0.2375   0.025
0.2875   0.2375   0.025
0.3125   0.2375   0.025
0.3375   0.2375   0.025
0.3625   0.2375   0.025
0.3875   0.2375   0.025
0.4125   0.2375   0.025
0.4375   0.2375   0.025
0.4625   0.2375   0.025
0.4875   0.2375   0.025
0.5125   0.2375   0.025
0.5375   0.2375   0.025
0.5625   0.2375   0.025
0.5875   0.2375   0.025
0.6125   0.2375   0.025
0.6375   0.2375   0.025
0.6625   0.2375   0.025
0.6875   0.2375   0.025
0.7125   0.2375   0.025
0.7375   0.2375   0.025
0.7625   0.2375   0.025
0.7875   0.2375   0.025
0.8125   0.2375   0.025
0.8375   0.2375   0.025
0.8625   0.2375   0.025
0.8875   0.2375   0.025
0.9125   0.2375   0.025
0.9375   0.2375   0.025
0.9625   0.2375   0.025
0.9875   0.2375   0.025
0.0125   0.2625   0.025
0.0375   0.2625   0.025
0.0625   0.2625   0.025
0.0875   0.2625   0.025
0.1125   0.2625   0.025
0.1375   0.2625   0.025
0.1625   0.2625   0.025
0.1875   0.2625   0.025
0.2125   0.2625   0.025
0.2375   0.2625   0.025
0.2625   0.2625   0.025
[...]
POINT_DATA   32000
SCALARS Presion double
LOOKUP_TABLE   Presion

0 0 0 0 0 0 0 0 0 0 0 0 0 0 0 0 0 0 0 0 0 0 0 0 0 0 0 0 0 0 0 0 0 0 0 0 0 0 0 0 -5.17619e-06 -5.1326e-06 -5.0527e-06 -4.9404e-06 -4.79821e-06 -4.62801e-06 -4.43136e-06 -4.20963e-06 -3.96398e-06 -3.69541e-06 -3.40468e-06 -3.09239e-06 -2.75874e-06 -2.40376e-06 -2.02721e-06 -1.62865e-06 -1.20747e-06 -7.62975e-07 -2.94447e-07 1.98738e-07 7.16997e-07 1.26039e-06 1.82854e-06 2.42041e-06 3.03416e-06 3.66702e-06 4.3151e-06 4.9733e-06 5.63524e-06 6.29323e-06 6.93834e-06 7.56064e-06 8.14927e-06 8.69303e-06 9.18079e-06 9.60207e-06 9.94767e-06 1.02103e-05 1.03853e-05 1.04713e-05 -1.03423e-05 -1.02561e-05 -1.00971e-05 -9.87287e-06 -9.5886e-06 -9.2481e-06 -8.85461e-06 -8.41094e-06 -7.91955e-06 -7.38248e-06 -6.80135e-06 -6.17737e-06 -5.51101e-06 -4.80232e-06 -4.05083e-06 -3.25563e-06 -2.41549e-06 -1.52895e-06 -5.94507e-07 3.8915e-07 1.42295e-06 2.50711e-06 3.641e-06 4.82265e-06 6.04854e-06 7.31323e-06 8.60908e-06 9.926e-06 1.12513e-05 1.25696e-05 1.38631e-05 1.51118e-05 1.62939e-05 1.73867e-05 1.83677e-05 1.92157e-05 1.99119e-05 2.04416e-05 2.0795e-05 2.09691e-05 -1.55077e-05 -1.53789e-05 -1.51406e-05 -1.48039e-05 -1.43767e-05 -1.38649e-05 -1.32734e-05 -1.26068e-05 -1.18689e-05 -1.1063e-05 -1.01916e-05 -9.25667e-06 -8.25898e-06 -7.19862e-06 -6.07488e-06 -4.88633e-06 -3.63103e-06 -2.30663e-06 -9.10752e-07 5.58809e-07 2.10367e-06 3.72444e-06 5.42043e-06 7.18904e-06 9.02529e-06 1.09213e-05 1.28661e-05 1.48445e-05 1.68379e-05 1.88232e-05 2.07736e-05 2.26588e-05 2.44456e-05 2.60995e-05 2.75859e-05 2.88722e-05 2.99294e-05 3.07344e-05 3.12721e-05 3.15374e-05 -2.06814e-05 -2.05095e-05 -2.01909e-05 -1.97403e-05 -1.91682e-05 -1.84828e-05 -1.76912e-05 -1.67997e-05 -1.58137e-05 -1.4738e-05 -1.35762e-05 -1.23311e-05 -1.10038e-05 -9.59458e-06 -8.10237e-06 -6.52517e-06 -4.86015e-06 -3.10395e-06 -1.25305e-06 6.95874e-07 2.74542e-06 4.8969e-06 7.14997e-06 9.50173e-06 1.19462e-05 1.44734e-05 1.70693e-05 1.97142e-05 2.23835e-05 2.50466e-05 2.76674e-05 3.02051e-05 3.26146e-05 3.48486e-05 3.68595e-05 3.86022e-05 4.00362e-05 4.11294e-05 4.18603e-05 4.22212e-05 -2.58724e-05 -2.56566e-05 -2.52558e-05 -2.46886e-05 -2.39685e-05 -2.31061e-05 -2.21109e-05 -2.09912e-05 -1.97545e-05 -1.84073e-05 -1.69545e-05 -1.53999e-05 -1.37452e-05 -1.19906e-05 -1.01349e-05 -8.17516e-06 -6.10763e-06 -3.92765e-06 -1.63027e-06 7.89286e-07 3.335e-06 6.00933e-06 8.81271e-06 1.17425e-05 1.47922e-05 1.79505e-05 2.12005e-05 2.45186e-05 2.78745e-05 3.12301e-05 3.45399e-05 3.77523e-05 4.08092e-05 4.36496e-05 4.62115e-05 4.84356e-05 5.02686e-05 5.16677e-05 5.2604e-05 5.30667e-05 -3.10906e-05 -3.08293e-05 -3.03436e-05 -2.96561e-05 -2.87832e-05 -2.77387e-05 -2.65346e-05 -2.5182e-05 -2.36907e-05 -2.20691e-05 -2.03241e-05 -1.84605e-05 -1.64808e-05 -1.43852e-05 -1.21719e-05 -9.83744e-06 -7.37653e-06 -4.78298e-06 -2.05003e-06 8.28979e-07 3.85989e-06 7.04683e-06 1.03917e-05 1.38927e-05 1.75435e-05 2.13321e-05 2.52396e-05 2.9239e-05 3.32946e-05 3.73612e-05 4.13838e-05 4.52991e-05 4.90353e-05 5.25162e-05 5.56636e-05 5.84019e-05 6.0663e-05 6.23914e-05 6.35492e-05 6.41216e-05 -3.63465e-05 -3.60377e-05 -3.54632e-05 -3.46499e-05 -3.36178e-05 -3.2384e-05 -3.09637e-05 -2.93714e-05 -2.76196e-05 -2.57196e-05 -2.36802e-05 -2.15078e-05 -1.92056e-05 -1.67739e-05 -1.42106e-05 -1.15108e-05 -8.66777e-06 -5.67329e-06 -2.51836e-06 8.06099e-07 4.30836e-06 7.99489e-06 1.18697e-05 1.59327e-05 2.01786e-05 2.45957e-05 2.91638e-05 3.38534e-05 3.86241e-05 4.34236e-05 4.81876e-05 5.28404e-05 5.72955e-05 6.14594e-05 6.52357e-05 6.85298e-05 7.12559e-05 7.33434e-05 7.47434e-05 7.5436e-05 -4.16521e-05 -4.12931e-05 -4.06246e-05 -3.96781e-05 -3.84779e-05 -3.70449e-05 -3.53985e-05 -3.35569e-05 -3.15367e-05 -2.93522e-05 -2.70148e-05 -2.45332e-05 -2.19111e-05 -1.91493e-05 -1.62447e-05 -1.31911e-05 -9.97965e-06 -6.59969e-06 -3.03941e-06 7.13246e-07 4.66967e-06 8.8394e-06 1.32294e-05 1.78422e-05 2.26748e-05 2.77164e-05 3.29472e-05 3.83359e-05 4.38384e-05 4.93961e-05 5.4935e-05 6.03666e-05 6.55883e-05 7.04873e-05 7.49459e-05 7.88474e-05 8.20847e-05 8.45686e-05 8.62369e-05 8.70627e-05 -4.70215e-05 -4.66085e-05 -4.5839e-05 -4.47495e-05 -4.33692e-05 -4.17237e-05 -3.98376e-05 -3.77339e-05 -3.54341e-05 -3.29565e-05 -3.03162e-05 -2.7524e-05 -2.45849e-05 -2.14997e-05 -1.82643e-05 -1.48707e-05 -1.13073e-05 -7.56057e-06 -3.61511e-06 5.44752e-07 4.93424e-06 9.56676e-06 1.44532e-05 1.95998e-05 2.50069e-05 3.06664e-05 3.65598e-05 4.26559e-05 4.89079e-05 5.52515e-05 6.16036e-05 6.78622e-05 7.39071e-05 7.96038e-05 8.48097e-05 8.93819e-05 9.31875e-05 9.61143e-05 9.80833e-05 9.90586e-05 -5.2471e-05 -5.19993e-05 -5.11195e-05 -4.98742e-05 -4.82978e-05 -4.64223e-05 -4.42782e-05 -4.18952e-05 -3.93005e-05 -3.65181e-05 -3.35675e-05 -3.04622e-05 -2.72091e-05 -2.38084e-05 -2.02549e-05 -1.65377e-05 -1.26424e-05 -8.55118e-06 -4.24476e-06 2.97004e-07 5.0939e-06 1.01641e-05 1.55234e-05 2.1183e-05 2.71479e-05 3.34143e-05 3.99673e-05 4.67769e-05 5.37956e-05 6.0955e-05 6.81632e-05 7.53044e-05 8.2239e-05 8.8808e-05 9.48398e-05 0.00010016 0.000104604 0.000108031 0.000110341 0.000111486 -5.80209e-05 -5.74841e-05 -5.6482e-05 -5.50638e-05 -5.32707e-05 -5.11417e-05 -4.87156e-05 -4.60298e-05 -4.31198e-05 -4.00167e-05 -3.67454e-05 -3.33236e-05 -2.97593e-05 -2.60528e-05 -2.21962e-05 -1.81756e-05 -1.3972e-05 -9.56317e-06 -4.92463e-06 -3.1191e-08 5.14228e-06 1.06195e-05 1.64223e-05 2.2568e-05 2.90681e-05 3.5925e-05 4.31293e-05 5.06551e-05 5.84566e-05 6.64627e-05 7.45741e-05 8.26613e-05 9.05632e-05 9.8093e-05 0.000105045 0.000111206 0.000116374 0.000120373 0.000123073 0.000124414 -6.36958e-05 -6.30858e-05 -6.19459e-05 -6.03328e-05 -5.82957e-05 -5.58827e-05 -5.31424e-05 -5.01229e-05 -4.68702e-05 -4.34247e-05 -3.98188e-05 -3.60751e-05 -3.22034e-05 -2.82026e-05 -2.40618e-05 -1.97621e-05 -1.52789e-05 -1.05841e-05 -5.6476e-06 -4.38191e-07 5.07517e-06 1.09226e-05 1.71326e-05 2.37304e-05 3.07354e-05 3.81588e-05 4.59993e-05 5.42385e-05 6.28352e-05 7.17189e-05 8.07846e-05 8.98892e-05 9.88487e-05 0.000107444 0.000115429 0.000122546 0.000128543 0.0001332 0.000136353 0.00013792 -6.95264e-05 -6.8833e-05 -6.75355e-05 -6.56991e-05 -6.33827e-05 -6.06455e-05 -5.75488e-05 -5.41544e-05 -5.05221e-05 -4.67051e-05 -4.2746e-05 -3.86734e-05 -3.44989e-05 -3.02191e-05 -2.58176e-05 -2.12687e-05 -1.65404e-05 -1.15974e-05 -6.40274e-06 -9.19051e-07 4.89115e-06 1.10648e-05 1.76381e-05 2.46451e-05 3.21154e-05 4.00713e-05 4.85234e-05 5.74647e-05 6.68632e-05 7.66534e-05 8.67276e-05 9.693e-05 0.000107052 0.000116837 0.000125992 0.000134202 0.000141156 0.000146578 0.00015026 0.000152093 -7.55516e-05 -7.47617e-05 -7.32813e-05 -7.11855e-05 -6.85444e-05 -6.54309e-05 -6.1922e-05 -5.80977e-05 -5.40362e-05 -4.98086e-05 -4.54714e-05 -4.10613e-05 -3.65912e-05 -3.20528e-05 -2.74211e-05 -2.26604e-05 -1.77285e-05 -1.25816e-05 -7.17504e-06 -1.46501e-06 4.59228e-06 1.10406e-05 1.79244e-05 2.52875e-05 3.31718e-05 4.16135e-05 5.06394e-05 6.02592e-05 7.04565e-05 8.11771e-05 9.2316e-05 0.000103707 0.000115114 0.000126237 0.000136726 0.000146196 0.000154264 0.000160585 0.00016489 0.000167036 -8.18201e-05 -8.09175e-05 -7.92228e-05 -7.68219e-05 -7.37982e-05 -7.02406e-05 -6.62462e-05 -6.19182e-05 -5.73605e-05 -5.26692e-05 -4.79209e-05 -4.31634e-05 -3.84096e-05 -3.36417e-05 -2.88207e-05 -2.38953e-05 -1.88104e-05 -1.35111e-05 -7.94529e-06 -2.0629e-06 4.18516e-06 1.08488e-05 1.79806e-05 2.5635e-05 3.38677e-05 4.27324e-05 5.22762e-05 6.25329e-05 7.35106e-05 8.51765e-05 9.74365e-05 0.000110117 0.000122954 0.000135594 0.000147615 0.00015855 0.000167926 0.000175307 0.000180352 0.000182872 -8.83935e-05 -8.73584e-05 -8.54105e-05 -8.26479e-05 -7.91682e-05 -7.50795e-05 -7.05029e-05 -6.55721e-05 -6.04263e-05 -5.51977e-05 -4.99942e-05 -4.48798e-05 -3.98636e-05 -3.49098e-05 -2.99553e-05 -2.49261e-05 -1.97491e-05 -1.4357e-05 -8.69021e-06 -2.69451e-06 3.68228e-06 1.04943e-05 1.78014e-05 2.56691e-05 3.41682e-05 4.33721e-05 5.33542e-05 6.41802e-05 7.58957e-05 8.85047e-05 0.000101939 0.000116026 0.000130466 0.000144841 0.000158638 0.000171288 0.000182206 0.000190847 0.000196777 0.000199744 -9.5349e-05 -9.41576e-05 -9.19098e-05 -8.87159e-05 -8.46893e-05 -7.99584e-05 -7.46732e-05 -6.90054e-05 -6.31425e-05 -5.72725e-05 -5.15535e-05 -4.6076e-05 -4.08373e-05 -3.57654e-05 -3.07563e-05 -2.57022e-05 -2.05063e-05 -1.50883e-05 -9.38294e-06 -3.33573e-06 3.10398e-06 9.99088e-06 1.73905e-05 2.53792e-05 3.40434e-05 4.34782e-05 5.37869e-05 6.50771e-05 7.7449e-05 9.0969e-05 0.000105623 0.000121253 0.000137513 0.000153893 0.000169767 0.000184437 0.000197184 0.000207329 0.000214319 0.000217824 -0.000102782 -0.000101407 -9.88043e-05 -9.50966e-05 -9.04121e-05 -8.49003e-05 -7.87418e-05 -7.2154e-05 -6.53902e-05 -5.87237e-05 -5.24025e-05 -4.65681e-05 -4.11831e-05 -3.61019e-05 -3.11514e-05 -2.61748e-05 -2.10471e-05 -1.56755e-05 -9.9941e-06 -3.9553e-06 2.48152e-06 9.36473e-06 1.67641e-05 2.47672e-05 3.34751e-05 4.30036e-05 5.34871e-05 6.50827e-05 7.79668e-05 9.23092e-05 0.000108204 0.000125546 0.000143912 0.000162649 0.000180975 0.000198037 0.000212958 0.0002249 0.000233165 0.000237319 -0.000110812 -0.000109221 -0.000106201 -0.000101884 -9.64109e-05 -8.9949e-05 -8.27071e-05 -7.49509e-05 -6.70164e-05 -5.93086e-05 -5.22472e-05 -4.60974e-05 -4.07163e-05 -3.58045e-05 -3.10751e-05 -2.63073e-05 -2.13472e-05 -1.60952e-05 -1.04934e-05 -4.51267e-06 1.86225e-06 8.65972e-06 1.59562e-05 2.38532e-05 3.24649e-05 4.19208e-05 5.23796e-05 6.40475e-05 7.71973e-05 9.21647e-05 0.000109268 0.000128558 0.000149437 0.000170999 0.000192246 0.000212147 0.000229653 0.000243742 0.000253537 0.000258475 -0.000119578 -0.000117738 -0.000114232 -0.000109201 -0.000102793 -9.51841e-05 -8.66003e-05 -7.73442e-05 -6.78374e-05 -5.86714e-05 -5.06085e-05 -4.42908e-05 -3.92184e-05 -3.47691e-05 -3.04886e-05 -2.60903e-05 -2.14043e-05 -1.63377e-05 -1.08526e-05 -4.95416e-06 1.32031e-06 7.94396e-06 1.50218e-05 2.26811e-05 3.10442e-05 4.02396e-05 5.04277e-05 6.18415e-05 7.48474e-05 9.00193e-05 0.00010814 0.000129782 0.000153816 0.000178851 0.000203606 0.000226871 0.000247431 0.000264071 0.000275699 0.00028158 -0.000129249 -0.000127124 -0.000123061 -0.000117206 -0.000109708 -0.00010074 -9.05192e-05 -7.93462e-05 -6.7678e-05 -5.62938e-05 -4.65915e-05 -4.06111e-05 -3.6477e-05 -3.29517e-05 -2.94144e-05 -2.55634e-05 -2.12522e-05 -1.64172e-05 -1.10518e-05 -5.20751e-06 9.83399e-07 7.31713e-06 1.40359e-05 2.1319e-05 2.92845e-05 3.80317e-05 4.76797e-05 5.8423e-05 7.06409e-05 8.51357e-05 0.000103566 0.000128494 0.000156799 0.000186204 0.000215162 0.000242371 0.000266502 0.000286146 0.000299957 0.00030697 -0.000140016 -0.000137571 -0.00013288 -0.000126094 -0.000117358 -0.000106825 -9.46754e-05 -8.11325e-05 -6.65262e-05 -5.15268e-05 -3.81491e-05 -3.43894e-05 -3.244e-05 -3.04687e-05 -2.79855e-05 -2.48374e-05 -2.09734e-05 -1.63855e-05 -1.10972e-05 -5.18434e-06 1.11666e-06 6.90752e-06 1.30758e-05 1.98495e-05 2.72998e-05 3.54551e-05 4.43355e-05 5.39825e-05 6.45445e-05 7.66093e-05 9.26535e-05 0.0001238 0.000158378 0.000193289 0.000227178 0.000258902 0.000287127 0.000310263 0.000326653 0.000335021 -0.000152094 -0.000149293 -0.000143907 -0.000136092 -0.000125987 -0.000113726 -9.94319e-05 -8.31937e-05 -6.49801e-05 -4.43501e-05 -1.93042e-05 -2.55843e-05 -2.76636e-05 -2.77481e-05 -2.64828e-05 -2.40988e-05 -2.07003e-05 -1.6346e-05 -1.10693e-05 -4.86174e-06 2.43652e-06 6.7867e-06 1.21652e-05 1.83446e-05 2.52341e-05 3.27557e-05 4.07969e-05 4.91572e-05 5.74141e-05 6.44818e-05 6.68897e-05 0.000115757 0.000159435 0.000200783 0.000240114 0.000276802 0.000309601 0.000336737 0.000356159 0.000366147 -0.000165715 -0.000162523 -0.000156378 -0.000147445 -0.000135866 -0.000121768 -0.00010525 -8.63524e-05 -6.49733e-05 -4.07091e-05 -1.2604e-05 -2.01195e-05 -2.40372e-05 -2.5546e-05 -2.52807e-05 -2.35687e-05 -2.05892e-05 -1.64469e-05 -1.12019e-05 -4.87149e-06 2.58632e-06 6.37317e-06 1.11788e-05 1.68419e-05 2.3233e-05 3.02133e-05 3.75893e-05 4.50471e-05 5.20279e-05 5.748e-05 5.9482e-05 0.000113105 0.000162775 0.000209826 0.000254551 0.000296434 0.000334216 0.000365877 0.000388849 0.00040078 -0.000181126 -0.000177508 -0.000170537 -0.000160398 -0.000147249 -0.000131232 -0.000112462 -9.10116e-05 -6.68716e-05 -3.99253e-05 -1.00098e-05 -1.72926e-05 -2.18791e-05 -2.41943e-05 -2.46168e-05 -2.34127e-05 -2.07613e-05 -1.67847e-05 -1.15679e-05 -5.17051e-06 2.35757e-06 5.75408e-06 1.01374e-05 1.5401e-05 2.14178e-05 2.80317e-05 3.50317e-05 4.21119e-05 4.88167e-05 5.44937e-05 5.83788e-05 0.000114746 0.000168852 0.000220909 0.000270848 0.000318062 0.000361199 0.000397946 0.00042508 0.000439363 -0.000198584 -0.000194498 -0.000186627 -0.000175184 -0.000160359 -0.000142326 -0.000121246 -9.72592e-05 -7.04776e-05 -4.10092e-05 -9.04395e-06 -1.60893e-05 -2.09418e-05 -2.37055e-05 -2.45683e-05 -2.37106e-05 -2.12819e-05 -1.74024e-05 -1.21701e-05 -5.67204e-06 2.00022e-06 5.04808e-06 9.10382e-06 1.40817e-05 1.9865e-05 2.63056e-05 3.32131e-05 4.03408e-05 4.73771e-05 5.39716e-05 5.98573e-05 0.000119137 0.000177277 0.000234042 0.00028912 0.000341809 0.000390679 0.000433127 0.000465163 0.000482324 -0.000218355 -0.000213751 -0.000204888 -0.000192021 -0.000175384 -0.000155199 -0.000131686 -0.000105058 -7.5533e-05 -4.33521e-05 -8.84479e-06 -1.58762e-05 -2.0917e-05 -2.39656e-05 -2.5111e-05 -2.44713e-05 -2.2166e-05 -1.8305e-05 -1.29896e-05 -6.3179e-06 1.60465e-06 4.33092e-06 8.13094e-06 1.29249e-05 1.86069e-05 2.50463e-05 3.20867e-05 3.95455e-05 4.72242e-05 5.49426e-05 6.26134e-05 0.000125306 0.000187568 0.000249041 0.000309318 0.000367677 0.000422678 0.000471509 0.000509342 0.000530072 -0.000240713 -0.000235525 -0.000225553 -0.000211108 -0.000192479 -0.000169952 -0.000143812 -0.000114345 -8.18422e-05 -4.66238e-05 -9.07147e-06 -1.63003e-05 -2.15618e-05 -2.4836e-05 -2.61728e-05 -2.56582e-05 -2.3391e-05 -1.94714e-05 -1.39981e-05 -7.06991e-06 1.20817e-06 3.64496e-06 7.25237e-06 1.19511e-05 1.76442e-05 2.42197e-05 3.15537e-05 3.95158e-05 4.79821e-05 5.68589e-05 6.61183e-05 0.000132698 0.000199332 0.000265671 0.000331309 0.000395579 0.000457126 0.000513069 0.000557765 0.000582976 -0.00026594 -0.000260083 -0.000248848 -0.000232622 -0.000211769 -0.000186653 -0.000157631 -0.000125053 -8.92692e-05 -5.06424e-05 -9.57002e-06 -1.71609e-05 -2.2701e-05 -2.61862e-05 -2.76626e-05 -2.72063e-05 -2.49076e-05 -2.08606e-05 -1.51592e-05 -7.89722e-06 8.28741e-07 3.01436e-06 6.48795e-06 1.11677e-05 1.69625e-05 2.37761e-05 3.15109e-05 4.00742e-05 4.93887e-05 5.94055e-05 7.01164e-05 0.00014097 0.000212257 0.000283686 0.000354909 0.000425359 0.000493863 0.000557658 0.000610456 0.000641348 -0.000294326 -0.000287685 -0.000274984 -0.000256714 -0.000233342 -0.000205327 -0.00017311 -0.000137105 -9.77048e-05 -5.52923e-05 -1.02591e-05 -1.83326e-05 -2.42021e-05 -2.78963e-05 -2.94779e-05 -2.90299e-05 -2.66441e-05 -2.24128e-05 -1.64254e-05 -8.76736e-06 4.78201e-07 2.45667e-06 5.8528e-06 1.05788e-05 1.65463e-05 2.367e-05 3.18718e-05 4.10858e-05 5.12647e-05 6.23862e-05 7.44533e-05 0.00014988 0.000226075 0.000302828 0.000379876 0.000456788 0.000532636 0.000604992 0.000667265 0.000705412 -0.000326172 -0.000318588 -0.000304147 -0.000283486 -0.00025722 -0.000225933 -0.000190163 -0.000150387 -0.00010703 -6.04745e-05 -1.1085e-05 -1.97209e-05 -2.59496e-05 -2.98457e-05 -3.15027e-05 -3.10223e-05 -2.85055e-05 -2.40474e-05 -1.77336e-05 -9.63963e-06 1.68987e-07 1.99137e-06 5.36578e-06 1.01946e-05 1.63886e-05 2.38696e-05 3.25736e-05 4.24539e-05 5.34852e-05 6.56651e-05 7.90103e-05 0.000159216 0.000240515 0.000322795 0.0004059 0.000489548 0.000573092 0.000654629 0.000727812 0.000775255 -0.000361785 -0.000353033 -0.00033647 -0.00031296 -0.000283328 -0.000248324 -0.000208603 -0.000164706 -0.000117075 -6.60709e-05 -1.19996e-05 -2.12348e-05 -2.78236e-05 -3.18999e-05 -3.35992e-05 -3.30502e-05 -3.03696e-05 -2.56585e-05 -1.90003e-05 -1.04596e-05 -8.13574e-08 1.64615e-06 5.05603e-06 1.00372e-05 1.64968e-05 2.43611e-05 3.35768e-05 4.41122e-05 5.59597e-05 6.91358e-05 8.36765e-05 0.000168764 0.000255276 0.000343218 0.000432561 0.000523188 0.000614737 0.000705945 0.000791407 0.000850753 -0.000401475 -0.000391219 -0.000371992 -0.000345015 -0.00031142 -0.000272183 -0.000228091 -0.000179745 -0.000127582 -7.19114e-05 -1.29452e-05 -2.27665e-05 -2.96809e-05 -3.38959e-05 -3.55979e-05 -3.49484e-05 -3.2083e-05 -2.71116e-05 -2.01174e-05 -1.11548e-05 -2.46878e-07 1.46106e-06 4.96652e-06 1.0143e-05 1.68935e-05 2.51478e-05 3.48616e-05 4.6016e-05 5.86189e-05 7.27058e-05 8.83367e-05 0.000178292 0.00027001 0.000363638 0.000459306 0.000557085 0.000656889 0.000758108 0.000856951 0.000931451 -0.000445536 -0.000433254 -0.000410566 -0.000379281 -0.000340982 -0.00029693 -0.000248055 -0.000194994 -0.00013815 -7.77408e-05 -1.38418e-05 -2.41733e-05 -3.13389e-05 -3.56316e-05 -3.72926e-05 -3.65171e-05 -3.3461e-05 -2.82444e-05 -2.09526e-05 -1.16336e-05 -2.91412e-07 1.48938e-06 5.15288e-06 1.05597e-05 1.76114e-05 2.62429e-05 3.64189e-05 4.8132e-05 6.14035e-05 7.62863e-05 9.28659e-05 0.000187537 0.000284306 0.000383493 0.00048542 0.000590387 0.00069859 0.000810019 0.00092282 0.00101639 -0.000494214 -0.000479039 -0.000451688 -0.000414955 -0.000371064 -0.000321599 -0.000267599 -0.00020969 -0.00014819 -8.31861e-05 -1.45726e-05 -2.52639e-05 -3.25686e-05 -3.68658e-05 -3.8446e-05 -3.75332e-05 -3.43004e-05 -2.88787e-05 -2.13594e-05 -1.17914e-05 -1.70155e-07 1.79169e-06 5.67339e-06 1.13331e-05 1.86784e-05 2.76537e-05 3.8234e-05 5.04221e-05 6.42501e-05 7.9783e-05 9.71273e-05 0.000196204 0.000297692 0.00040211 0.00051001 0.000621977 0.000738522 0.000860234 0.000986748 0.00110383 -0.000547598 -0.000528001 -0.000494157 -0.000450506 -0.000400068 -0.000344694 -0.000285424 -0.000222772 -0.000156905 -8.77396e-05 -1.49745e-05 -2.57996e-05 -3.31095e-05 -3.7345e-05 -3.88246e-05 -3.77878e-05 -3.44184e-05 -2.88575e-05 -2.12079e-05 -1.15321e-05 1.6107e-07 2.41713e-06 6.56372e-06 1.24783e-05 2.00875e-05 2.93518e-05 4.0258e-05 5.28179e-05 6.70699e-05 8.30825e-05 0.00010097 0.000203964 0.000309635 0.000418718 0.00053202 0.000650475 0.000774924 0.000906844 0.00104574 0.00119084 -0.000605297 -0.000578424 -0.000535423 -0.000483211 -0.000425497 -0.000364101 -0.000299826 -0.000232926 -0.000163343 -9.08057e-05 -1.4854e-05 -2.55433e-05 -3.27434e-05 -3.68883e-05 -3.82869e-05 -3.71741e-05 -3.3736e-05 -2.8122e-05 -2.04524e-05 -1.08194e-05 7.20417e-07 3.36115e-06 7.7872e-06 1.39286e-05 2.17472e-05 3.12255e-05 4.23639e-05 5.51811e-05 6.97161e-05 8.60299e-05 0.000104224 0.000210453 0.000319545 0.000432464 0.000550265 0.000674279 0.000805616 0.000947287 0.00109618 0.00127253 -0.000665206 -0.000625751 -0.000570453 -0.000508701 -0.000443933 -0.000377289 -0.000308999 -0.000238911 -0.000166696 -9.19263e-05 -1.40906e-05 -2.44322e-05 -3.14888e-05 -3.5581e-05 -3.6965e-05 -3.58543e-05 -3.24302e-05 -2.68494e-05 -1.92527e-05 -9.77451e-06 1.44521e-06 4.48802e-06 9.1538e-06 1.54588e-05 2.34107e-05 3.30163e-05 4.42887e-05 5.72507e-05 7.19378e-05 8.83945e-05 0.000106687 0.000215261 0.000326795 0.000442456 0.000563507 0.00069166 0.000828195 0.000978094 0.00113435 0.00134082 -0.000718049 -0.000658809 -0.000590823 -0.000521549 -0.000452164 -0.000382516 -0.000312142 -0.000240513 -0.000167102 -9.14006e-05 -1.2975e-05 -2.29925e-05 -2.99889e-05 -3.411e-05 -3.55506e-05 -3.45034e-05 -3.11455e-05 -2.5639e-05 -1.81407e-05 -8.82155e-06 2.09326e-06 5.41737e-06 1.02186e-05 1.65991e-05 2.46037e-05 3.42565e-05 4.55781e-05 5.85933e-05 7.3333e-05 8.98272e-05 0.0001081 0.000217926 0.000330736 0.000447824 0.000570593 0.00070094 0.000840459 0.00099483 0.0011574 0.00138257 0 0 0 0 0 0 0 0 0 0 0 0 0 0 0 0 0 0 0 0 0 0 0 0 0 0 0 0 0 0 0 0 0 0 0 0 0 0 0 0 -5.13883e-06 -5.10066e-06 -5.02671e-06 -4.91962e-06 -4.78171e-06 -4.61499e-06 -4.42123e-06 -4.20193e-06 -3.9584e-06 -3.69172e-06 -3.40273e-06 -3.09208e-06 -2.76001e-06 -2.40659e-06 -2.0316e-06 -1.63463e-06 -1.21509e-06 -7.72278e-07 -3.05487e-07 1.85912e-07 7.02356e-07 1.24393e-06 1.81031e-06 2.40051e-06 3.0128e-06 3.64448e-06 4.2918e-06 4.94981e-06 5.61228e-06 6.27165e-06 6.91916e-06 7.54496e-06 8.13828e-06 8.68791e-06 9.18265e-06 9.61186e-06 9.