# vtk DataFile Version 2.0
Presion
ASCII

DATASET STRUCTURED_GRID
DIMENSIONS   40   40   20

POINTS   32000   double
0.0125   0.0125   0.025
0.0375   0.0125   0.025
0.0625   0.0125   0.025
0.0875   0.0125   0.025
0.1125   0.0125   0.025
0.1375   0.0125   0.025
0.1625   0.0125   0.025
0.1875   0.0125   0.025
0.2125   0.0125   0.025
0.2375   0.0125   0.025
0.2625   0.0125   0.025
0.2875   0.0125   0.025
0.3125   0.0125   0.025
0.3375   0.0125   0.025
0.3625   0.0125   0.025
0.3875   0.0125   0.025
0.4125   0.0125   0.025
0.4375   0.0125   0.025
0.4625   0.0125   0.025
0.4875   0.0125   0.025
0.5125   0.0125   0.025
0.5375   0.0125   0.025
0.5625   0.0125   0.025
0.5875   0.0125   0.025
0.6125   0.0125   0.025
0.6375   0.0125   0.025
0.6625   0.0125   0.025
0.6875   0.0125   0.025
0.7125   0.0125   0.025
0.7375   0.0125   0.025
0.7625   0.0125   0.025
0.7875   0.0125   0.025
0.8125   0.0125   0.025
0.8375   0.0125   0.025
0.8625   0.0125   0.025
0.8875   0.0125   0.025
0.9125   0.0125   0.025
0.9375   0.0125   0.025
0.9625   0.0125   0.025
0.9875   0.0125   0.025
0.0125   0.0375   0.025
0.0375   0.0375   0.025
0.0625   0.0375   0.025
0.0875   0.0375   0.025
0.1125   0.0375   0.025
0.1375   0.0375   0.025
0.1625   0.0375   0.025
0.1875   0.0375   0.025
0.2125   0.0375   0.025
0.2375   0.0375   0.025
0.2625   0.0375   0.025
0.2875   0.0375   0.025
0.3125   0.0375   0.025
0.3375   0.0375   0.025
0.3625   0.0375   0.025
0.3875   0.0375   0.025
0.4125   0.0375   0.025
0.4375   0.0375   0.025
0.4625   0.0375   0.025
0.4875   0.0375   0.025
0.5125   0.0375   0.025
0.5375   0.0375   0.025
0.5625   0.0375   0.025
0.5875   0.0375   0.025
0.6125   0.0375   0.025
0.6375   0.0375   0.025
0.6625   0.0375   0.025
0.6875   0.0375   0.025
0.7125   0.0375   0.025
0.7375   0.0375   0.025
0.7625   0.0375   0.025
0.7875   0.0375   0.025
0.8125   0.0375   0.025
0.8375   0.0375   0.025
0.8625   0.0375   0.025
0.8875   0.0375   0.025
0.9125   0.0375   0.025
0.9375   0.0375   0.025
0.9625   0.0375   0.025
0.9875   0.0375   0.025
0.0125   0.0625   0.025
0.0375   0.0625   0.025
0.0625   0.0625   0.025
0.0875   0.0625   0.025
0.1125   0.0625   0.025
0.1375   0.0625   0.025
0.1625   0.0625   0.025
0.1875   0.0625   0.025
0.2125   0.0625   0.025
0.2375   0.0625   0.025
0.2625   0.0625   0.025
0.2875   0.0625   0.025
0.3125   0.0625   0.025
0.3375   0.0625   0.025
0.3625   0.0625   0.025
0.3875   0.0625   0.025
0.4125   0.0625   0.025
0.4375   0.0625   0.025
0.4625   0.0625   0.025
0.4875   0.0625   0.025
0.5125   0.0625   0.025
0.5375   0.0625   0.025
0.5625   0.0625   0.025
0.5875   0.0625   0.025
0.6125   0.0625   0.025
0.6375   0.0625   0.025
0.6625   0.0625   0.025
0.6875   0.0625   0.025
0.7125   0.0625   0.025
0.7375   0.0625   0.025
0.7625   0.0625   0.025
0.7875   0.0625   0.025
0.8125   0.0625   0.025
0.8375   0.0625   0.025
0.8625   0.0625   0.025
0.8875   0.0625   0.025
0.9125   0.0625   0.025
0.9375   0.0625   0.025
0.9625   0.0625   0.025
0.9875   0.0625   0.025
0.0125   0.0875   0.025
0.0375   0.0875   0.025
0.0625   0.0875   0.025
0.0875   0.0875   0.025
0.1125   0.0875   0.025
0.1375   0.0875   0.025
0.1625   0.0875   0.025
0.1875   0.0875   0.025
0.2125   0.0875   0.025
0.2375   0.0875   0.025
0.2625   0.0875   0.025
0.2875   0.0875   0.025
0.3125   0.0875   0.025
0.3375   0.0875   0.025
0.3625   0.0875   0.025
0.3875   0.0875   0.025
0.4125   0.0875   0.025
0.4375   0.0875   0.025
0.4625   0.0875   0.025
0.4875   0.0875   0.025
0.5125   0.0875   0.025
0.5375   0.0875   0.025
0.5625   0.0875   0.025
0.5875   0.0875   0.025
0.6125   0.0875   0.025
0.6375   0.0875   0.025
0.6625   0.0875   0.025
0.6875   0.0875   0.025
0.7125   0.0875   0.025
0.7375   0.0875   0.025
0.7625   0.0875   0.025
0.7875   0.0875   0.025
0.8125   0.0875   0.025
0.8375   0.0875   0.025
0.8625   0.0875   0.025
0.8875   0.0875   0.025
0.9125   0.0875   0.025
0.9375   0.0875   0.025
0.9625   0.0875   0.025
0.9875   0.0875   0.025
0.0125   0.1125   0.025
0.0375   0.1125   0.025
0.0625   0.1125   0.025
0.0875   0.1125   0.025
0.1125   0.1125   0.025
0.1375   0.1125   0.025
0.1625   0.1125   0.025
0.1875   0.1125   0.025
0.2125   0.1125   0.025
0.2375   0.1125   0.025
0.2625   0.1125   0.025
0.2875   0.1125   0.025
0.3125   0.1125   0.025
0.3375   0.1125   0.025
0.3625   0.1125   0.025
0.3875   0.1125   0.025
0.4125   0.1125   0.025
0.4375   0.1125   0.025
0.4625   0.1125   0.025
0.4875   0.1125   0.025
0.5125   0.1125   0.025
0.5375   0.1125   0.025
0.5625   0.1125   0.025
0.5875   0.1125   0.025
0.6125   0.1125   0.025
0.6375   0.1125   0.025
0.6625   0.1125   0.025
0.6875   0.1125   0.025
0.7125   0.1125   0.025
0.7375   0.1125   0.025
0.7625   0.1125   0.025
0.7875   0.1125   0.025
0.8125   0.1125   0.025
0.8375   0.1125   0.025
0.8625   0.1125   0.025
0.8875   0.1125   0.025
0.9125   0.1125   0.025
0.9375   0.1125   0.025
0.9625   0.1125   0.025
0.9875   0.1125   0.025
0.0125   0.1375   0.025
0.0375   0.1375   0.025
0.0625   0.1375   0.025
0.0875   0.1375   0.025
0.1125   0.1375   0.025
0.1375   0.1375   0.025
0.1625   0.1375   0.025
0.1875   0.1375   0.025
0.2125   0.1375   0.025
0.2375   0.1375   0.025
0.2625   0.1375   0.025
0.2875   0.1375   0.025
0.3125   0.1375   0.025
0.3375   0.1375   0.025
0.3625   0.1375   0.025
0.3875   0.1375   0.025
0.4125   0.1375   0.025
0.4375   0.1375   0.025
0.4625   0.1375   0.025
0.4875   0.1375   0.025
0.5125   0.1375   0.025
0.5375   0.1375   0.025
0.5625   0.1375   0.025
0.5875   0.1375   0.025
0.6125   0.1375   0.025
0.6375   0.1375   0.025
0.6625   0.1375   0.025
0.6875   0.1375   0.025
0.7125   0.1375   0.025
0.7375   0.1375   0.025
0.7625   0.1375   0.025
0.7875   0.1375   0.025
0.8125   0.1375   0.025
0.8375   0.1375   0.025
0.8625   0.1375   0.025
0.8875   0.1375   0.025
0.9125   0.1375   0.025
0.9375   0.1375   0.025
0.9625   0.1375   0.025
0.9875   0.1375   0.025
0.0125   0.1625   0.025
0.0375   0.1625   0.025
0.0625   0.1625   0.025
0.0875   0.1625   0.025
0.1125   0.1625   0.025
0.1375   0.1625   0.025
0.1625   0.1625   0.025
0.1875   0.1625   0.025
0.2125   0.1625   0.025
0.2375   0.1625   0.025
0.2625   0.1625   0.025
0.2875   0.1625   0.025
0.3125   0.1625   0.025
0.3375   0.1625   0.025
0.3625   0.1625   0.025
0.3875   0.1625   0.025
0.4125   0.1625   0.025
0.4375   0.1625   0.025
0.4625   0.1625   0.025
0.4875   0.1625   0.025
0.5125   0.1625   0.025
0.5375   0.1625   0.025
0.5625   0.1625   0.025
0.5875   0.1625   0.025
0.6125   0.1625   0.025
0.6375   0.1625   0.025
0.6625   0.1625   0.025
0.6875   0.1625   0.025
0.7125   0.1625   0.025
0.7375   0.1625   0.025
0.7625   0.1625   0.025
0.7875   0.1625   0.025
0.8125   0.1625   0.025
0.8375   0.1625   0.025
0.8625   0.1625   0.025
0.8875   0.1625   0.025
0.9125   0.1625   0.025
0.9375   0.1625   0.025
0.9625   0.1625   0.025
0.9875   0.1625   0.025
0.0125   0.1875   0.025
0.0375   0.1875   0.025
0.0625   0.1875   0.025
0.0875   0.1875   0.025
0.1125   0.1875   0.025
0.1375   0.1875   0.025
0.1625   0.1875   0.025
0.1875   0.1875   0.025
0.2125   0.1875   0.025
0.2375   0.1875   0.025
0.2625   0.1875   0.025
0.2875   0.1875   0.025
0.3125   0.1875   0.025
0.3375   0.1875   0.025
0.3625   0.1875   0.025
0.3875   0.1875   0.025
0.4125   0.1875   0.025
0.4375   0.1875   0.025
0.4625   0.1875   0.025
0.4875   0.1875   0.025
0.5125   0.1875   0.025
0.5375   0.1875   0.025
0.5625   0.1875   0.025
0.5875   0.1875   0.025
0.6125   0.1875   0.025
0.6375   0.1875   0.025
0.6625   0.1875   0.025
0.6875   0.1875   0.025
0.7125   0.1875   0.025
0.7375   0.1875   0.025
0.7625   0.1875   0.025
0.7875   0.1875   0.025
0.8125   0.1875   0.025
0.8375   0.1875   0.025
0.8625   0.1875   0.025
0.8875   0.1875   0.025
0.9125   0.1875   0.025
0.9375   0.1875   0.025
0.9625   0.1875   0.025
0.9875   0.1875   0.025
0.0125   0.2125   0.025
0.0375   0.2125   0.025
0.0625   0.2125   0.025
0.0875   0.2125   0.025
0.1125   0.2125   0.025
0.1375   0.2125   0.025
0.1625   0.2125   0.025
0.1875   0.2125   0.025
0.2125   0.2125   0.025
0.2375   0.2125   0.025
0.2625   0.2125   0.025
0.2875   0.2125   0.025
0.3125   0.2125   0.025
0.3375   0.2125   0.025
0.3625   0.2125   0.025
0.3875   0.2125   0.025
0.4125   0.2125   0.025
0.4375   0.2125   0.025
0.4625   0.2125   0.025
0.4875   0.2125   0.025
0.5125   0.2125   0.025
0.5375   0.2125   0.025
0.5625   0.2125   0.025
0.5875   0.2125   0.025
0.6125   0.2125   0.025
0.6375   0.2125   0.025
0.6625   0.2125   0.025
0.6875   0.2125   0.025
0.7125   0.2125   0.025
0.7375   0.2125   0.025
0.7625   0.2125   0.025
0.7875   0.2125   0.025
0.8125   0.2125   0.025
0.8375   0.2125   0.025
0.8625   0.2125   0.025
0.8875   0.2125   0.025
0.9125   0.2125   0.025
0.9375   0.2125   0.025
0.9625   0.2125   0.025
0.9875   0.2125   0.025
0.0125   0.2375   0.025
0.0375   0.2375   0.025
0.0625   0.2375   0.025
0.0875   0.2375   0.025
0.1125   0.2375   0.025
0.1375   0.2375   0.025
0.1625   0.2375   0.025
0.1875   0.2375   0.025
0.2125   0.2375   0.025
0.2375   0.2375   0.025
0.2625   0.2375   0.025
0.2875   0.2375   0.025
0.3125   0.2375   0.025
0.3375   0.2375   0.025
0.3625   0.2375   0.025
0.3875   0.2375   0.025
0.4125   0.2375   0.025
0.4375   0.2375   0.025
0.4625   0.2375   0.025
0.4875   0.2375   0.025
0.5125   0.2375   0.025
0.5375   0.2375   0.025
0.5625   0.2375   0.025
0.5875   0.2375   0.025
0.6125   0.2375   0.025
0.6375   0.2375   0.025
0.6625   0.2375   0.025
0.6875   0.2375   0.025
0.7125   0.2375   0.025
0.7375   0.2375   0.025
0.7625   0.2375   0.025
0.7875   0.2375   0.025
0.8125   0.2375   0.025
0.8375   0.2375   0.025
0.8625   0.2375   0.025
0.8875   0.2375   0.025
0.9125   0.2375   0.025
0.9375   0.2375   0.025
0.9625   0.2375   0.025
0.9875   0.2375   0.025
0.0125   0.2625   0.025
0.0375   0.2625   0.025
0.0625   0.2625   0.025
0.0875   0.2625   0.025
0.1125   0.2625   0.025
0.1375   0.2625   0.025
0.1625   0.2625   0.025
0.1875   0.2625   0.025
0.2125   0.2625   0.025
0.2375   0.2625   0.025
0.2625   0.2625   0.025
[...]
POINT_DATA   32000
SCALARS Presion double
LOOKUP_TABLE   Presion

0 0 0 0 0 0 0 0 0 0 0 0 0 0 0 0 0 0 0 0 0 0 0 0 0 0 0 0 0 0 0 0 0 0 0 0 0 0 0 0 -0.00201 -0.0023878 -0.00302925 -0.00376326 -0.00451093 -0.00522116 -0.00585647 -0.00638904 -0.00679879 -0.00707186 -0.00719934 -0.0071763 -0.00700111 -0.00667514 -0.00620261 -0.00559068 -0.00484961 -0.00399285 -0.00303714 -0.00200239 -0.00091141 0.000210519 0.00133631 0.00243783 0.00348682 0.00445587 0.0053194 0.00605462 0.00664252 0.00706865 0.00732394 0.00740528 0.00731598 0.00706588 0.00667111 0.00615332 0.00553881 0.00485993 0.00417249 0.00366199 -0.00217779 -0.00239775 -0.00290072 -0.00354178 -0.00422963 -0.0049035 -0.00552083 -0.00605121 -0.00647294 -0.00677092 -0.00693503 -0.00695915 -0.00684041 -0.00657882 -0.00617713 -0.00564085 -0.00497838 -0.00420106 -0.00332331 -0.00236252 -0.0013389 -0.000275101 0.000804223 0.0018731 0.00290497 0.00387353 0.00475369 0.00552245 0.00615989 0.00665013 0.00698215 0.00715068 0.00715684 0.00700875 0.0067221 0.00632089 0.00583954 0.00532937 0.00487883 0.00467063 -0.00185776 -0.00214425 -0.00264226 -0.00326157 -0.0039292 -0.0045905 -0.00520545 -0.00574491 -0.00618783 -0.00651918 -0.00672847 -0.00680873 -0.00675585 -0.00656826 -0.0062468 -0.00579476 -0.00521803 -0.00452528 -0.00372803 -0.00284077 -0.00188088 -0.000868417 0.000174184 0.00122262 0.00225133 0.0032343 0.00414592 0.00496199 0.00566075 0.00622398 0.00663811 0.00689518 0.00699387 0.0069403 0.006749 0.00644402 0.00606125 0.00565338 0.00530089 0.00513101 -0.00126691 -0.00169977 -0.0022714 -0.00292657 -0.00361335 -0.00428909 -0.00492084 -0.00548378 -0.0059595 -0.0063343 -0.00659806 -0.00674335 -0.00676495 -0.00665957 -0.00642586 -0.00606454 -0.0055786 -0.00497359 -0.00425785 -0.00344273 -0.00254266 -0.00157515 -0.000560655 0.00047784 0.00151528 0.0025253 0.00348108 0.00435643 0.00512699 0.00577146 0.00627295 0.00662018 0.00680869 0.00684187 0.00673189 0.00650075 0.00618185 0.00582264 0.00548896 0.00526883 -0.000546225 -0.00114841 -0.00183243 -0.00256097 -0.00329795 -0.0040126 -0.00468035 -0.00528218 -0.00580344 -0.00623266 -0.00656064 -0.00677985 -0.00688405 -0.00686824 -0.00672877 -0.00646355 -0.00607247 -0.00555772 -0.00492426 -0.00418013 -0.00333679 -0.00240921 -0.00141593 -0.000378862 0.000677159 0.00172501 0.00273618 0.00368194 0.00453462 0.00526914 0.00586448 0.00630524 0.00658298 0.00669739 0.00665732 0.00648153 0.00619962 0.00585307 0.00549643 0.00519639 0.000206822 -0.000565278 -0.00137701 -0.00219972 -0.00300796 -0.00378067 -0.00450118 -0.00515639 -0.00573577 -0.00623045 -0.00663246 -0.00693434 -0.007129 -0.00720976 -0.0071706 -0.00700661 -0.00671439 -0.00629272 -0.005743 -0.00506989 -0.00428173 -0.00339092 -0.00241406 -0.00137198 -0.000289412 0.000805589 0.00188253 0.00290967 0.00385549 0.00469036 0.00538832 0.00592888 0.00629864 0.00649269 0.00651569 0.00638263 0.00611929 0.00576257 0.0053603 0.00496947 0.000919478 -1.42381e-05 -0.000956135 -0.00188206 -0.0027738 -0.00361784 -0.00440419 -0.00512512 -0.00577401 -0.00634452 -0.00682996 -0.00722305 -0.00751587 -0.00770013 -0.0077675 -0.00771018 -0.00752154 -0.00719678 -0.00673369 -0.0061334 -0.00540097 -0.00454602 -0.00358304 -0.00253162 -0.00141628 -0.000265981 0.000886638 0.00200653 0.00305779 0.00400551 0.00481786 0.00546819 0.00593703 0.00621385 0.00629836 0.00620139 0.00594533 0.00556409 0.00510257 0.00461497 0.00153365 0.000450209 -0.000617306 -0.0016478 -0.00262845 -0.00355172 -0.00441308 -0.00520935 -0.00593732 -0.00659286 -0.00717043 -0.00766287 -0.00806148 -0.00835637 -0.00853697 -0.00859264 -0.00851346 -0.00829104 -0.00791943 -0.00739601 -0.00672232 -0.00590487 -0.0049557 -0.00389279 -0.00274013 -0.00152744 -0.000289452 0.000935279 0.00210598 0.00318172 0.00412377 0.00489811 0.00547794 0.00584588 0.00599578 0.00593389 0.00567948 0.00526479 0.00473447 0.00414409 0.00200056 0.000780809 -0.000403916 -0.0015354 -0.00260543 -0.00361139 -0.00455333 -0.00543178 -0.00624632 -0.00699467 -0.00767216 -0.00827164 -0.00878361 -0.00919664 -0.00949795 -0.00967409 -0.00971186 -0.00959921 -0.00932626 -0.00888639 -0.00827726 -0.00750177 -0.00656901 -0.0054948 -0.00430211 -0.00302101 -0.00168814 -0.000345658 0.000960401 0.00218231 0.00327331 0.00419068 0.00489871 0.00537175 0.00559653 0.00557404 0.00532041 0.00486705 0.00426012 0.00355919 0.0022778 0.000935969 -0.00035533 -0.00158109 -0.00273745 -0.00382619 -0.00485119 -0.00581607 -0.00672266 -0.00757009 -0.00835431 -0.00906804 -0.00970095 -0.0102401 -0.0106705 -0.010976 -0.0111401 -0.0111469 -0.0109824 -0.0106357 -0.0101 -0.00937404 -0.00846325 -0.00738057 -0.00614722 -0.00479303 -0.00335615 -0.00188225 -0.000422982 0.000966385 0.00222989 0.00331447 0.00417376 0.00477192 0.00508704 0.00511366 0.0048643 0.00436994 0.00367931 0.00285767 0.00232787 0.00087875 -0.000507105 -0.00181839 -0.00305561 -0.00422463 -0.00533271 -0.00638607 -0.00738832 -0.00833965 -0.00923642 -0.0100711 -0.0108325 -0.0115062 -0.0120751 -0.0125204 -0.012822 -0.0129604 -0.012917 -0.0126761 -0.0122261 -0.0115607 -0.0106808 -0.00959547 -0.00832336 -0.00689317 -0.00534395 -0.00372461 -0.00209255 -0.000511298 0.000952699 0.00223426 0.0032742 0.00402425 0.00445163 0.00454281 0.00430574 0.00377073 0.00298973 0.00203473 0.00211741 0.00057633 -0.000891131 -0.00227785 -0.00358878 -0.00483369 -0.00602292 -0.0071649 -0.00826473 -0.00932342 -0.0103376 -0.0112994 -0.0121968 -0.0130139 -0.0137317 -0.0143284 -0.0147809 -0.0150653 -0.0151584 -0.0150393 -0.0146906 -0.0141004 -0.0132639 -0.0121854 -0.0108796 -0.00937297 -0.00770459 -0.00592603 -0.00410038 -0.00230001 -0.000603104 0.000911076 0.00216798 0.00310405 0.00367292 0.00385055 0.00363875 0.00306644 0.00218886 0.00108547 0.00161698 -1.87334e-07 -0.00153565 -0.00298681 -0.0043631 -0.00567808 -0.00694492 -0.00817407 -0.00937187 -0.01054 -0.0116754 -0.0127697 -0.0138103 -0.0147799 -0.0156575 -0.0164188 -0.017037 -0.017484 -0.0177318 -0.0177534 -0.0175253 -0.0170288 -0.0162524 -0.0151942 -0.0138635 -0.0122833 -0.0104914 -0.00854113 -0.00650078 -0.00445189 -0.00248559 -0.000697289 0.00082021 0.00198463 0.0027324 0.0030258 0.00285804 0.00225533 0.00127587 6.84682e-06 0.000801174 -0.000875725 -0.00246512 -0.00396911 -0.00540157 -0.00677964 -0.0081192 -0.00943251 -0.0107271 -0.0120054 -0.0132645 -0.0144959 -0.0156863 -0.0168173 -0.0178659 -0.0188053 -0.0196052 -0.0202333 -0.020656 -0.0208403 -0.0207552 -0.0203747 -0.0196793 -0.0186593 -0.0173173 -0.0156708 -0.0137547 -0.0116227 -0.00934755 -0.0070198 -0.0047444 -0.00263497 -0.00080577 0.000638113 0.0016114 0.00205843 0.00196039 0.00133863 0.000253455 -0.0012002 -0.000351071 -0.00207103 -0.00370003 -0.00524486 -0.00672359 -0.00815675 -0.00956274 -0.0109556 -0.0123442 -0.0137316 -0.0151152 -0.0164868 -0.0178324 -0.0191328 -0.0203632 -0.0214944 -0.0224926 -0.0233211 -0.0239405 -0.0243112 -0.0243946 -0.0241558 -0.0235664 -0.0226073 -0.0212725 -0.0195722 -0.0175364 -0.015217 -0.0126898 -0.0100537 -0.00742778 -0.00494575 -0.00274668 -0.00096312 0.00029242 0.000940744 0.000946333 0.000322469 -0.000869926 -0.00252855 -0.00185609 -0.00360237 -0.00525669 -0.00683014 -0.00834461 -0.00982374 -0.0112883 -0.0127543 -0.0142318 -0.015725 -0.0172319 -0.0187446 -0.0202491 -0.0217251 -0.0231468 -0.0244824 -0.0256949 -0.0267428 -0.0275813 -0.0281633 -0.0284422 -0.0283736 -0.0279187 -0.0270478 -0.0257443 -0.0240088 -0.021864 -0.0193577 -0.0165663 -0.0135954 -0.0105782 -0.00766952 -0.00503644 -0.00284416 -0.00123898 -0.000330679 -0.000177864 -0.000779882 -0.00207762 -0.00396222 -0.00372503 -0.00548131 -0.00714698 -0.00873676 -0.0102758 -0.0117904 -0.0133039 -0.014834 -0.0163927 -0.0179854 -0.0196113 -0.0212632 -0.0229271 -0.0245827 -0.0262026 -0.027753 -0.0291937 -0.0304787 -0.0315573 -0.0323754 -0.0328772 -0.0330085 -0.0327191 -0.0319673 -0.0307242 -0.0289786 -0.0267428 -0.0240578 -0.0209976 -0.0176719 -0.0142262 -0.010837 -0.00770201 -0.00502427 -0.00299139 -0.00175249 -0.00139764 -0.0019453 -0.00334184 -0.00547332 -0.00596352 -0.0077145 -0.00937831 -0.0109722 -0.0125238 -0.0140618 -0.0156118 -0.017194 -0.0188224 -0.0205045 -0.0222411 -0.0240261 -0.0258463 -0.0276812 -0.0295025 -0.0312747 -0.0329542 -0.0344909 -0.0358281 -0.0369043 -0.037655 -0.0380153 -0.0379231 -0.0373237 -0.0361739 -0.034449 -0.0321481 -0.0293016 -0.0259775 -0.0222861 -0.0183822 -0.0144627 -0.0107575 -0.00751216 -0.0049638 -0.00331128 -0.00268702 -0.00313751 -0.00462016 -0.00701833 -0.00857149 -0.0103037 -0.0119537 -0.0135398 -0.0150908 -0.0166377 -0.0182086 -0.0198265 -0.0215085 -0.0232648 -0.0250986 -0.0270057 -0.0289738 -0.0309828 -0.0330039 -0.0349996 -0.0369238 -0.0387217 -0.0403313 -0.0416835 -0.0427052 -0.0433206 -0.0434556 -0.0430414 -0.0420201 -0.0403507 -0.0380172 -0.0350358 -0.031464 -0.0274078 -0.0230272 -0.0185362 -0.0141965 -0.0102997 -0.00714049 -0.00497937 -0.00400469 -0.00430316 -0.00585135 -0.00853378 -0.0115432 -0.0132461 -0.0148723 -0.0164389 -0.0179749 -0.019513 -0.0210844 -0.0227163 -0.0244298 -0.026239 -0.0281503 -0.030162 -0.0322636 -0.0344354 -0.0366484 -0.0388634 -0.0410315 -0.043094 -0.0449831 -0.0466229 -0.0479314 -0.0488225 -0.0492098 -0.0490105 -0.048151 -0.0465736 -0.0442443 -0.0411623 -0.03737 -0.0329638 -0.0281024 -0.0230121 -0.0179828 -0.013354 -0.00948447 -0.00670929 -0.00528913 -0.00536704 -0.00695046 -0.00993109 -0.0148676 -0.0165348 -0.0181299 -0.0196657 -0.0211702 -0.0226776 -0.0242236 -0.0258408 -0.0275563 -0.0293894 -0.031351 -0.0334428 -0.0356562 -0.0379727 -0.0403627 -0.0427857 -0.0451899 -0.0475126 -0.0496805 -0.051611 -0.0532137 -0.0543925 -0.0550492 -0.0550875 -0.0544183 -0.0529662 -0.0506785 -0.0475345 -0.0435579 -0.0388294 -0.0334996 -0.0277989 -0.0220401 -0.0166076 -0.0119293 -0.00842706 -0.00645271 -0.00622638 -0.00780298 -0.0110906 -0.0185292 -0.0201603 -0.0217204 -0.0232147 -0.0246679 -0.0261172 -0.0276042 -0.0291696 -0.0308486 -0.0326681 -0.0346446 -0.036784 -0.0390805 -0.0415161 -0.0440612 -0.0466733 -0.0492979 -0.0518681 -0.0543052 -0.05652 -0.058414 -0.0598818 -0.0608142 -0.061102 -0.0606413 -0.05934 -0.057126 -0.0539578 -0.049837 -0.0448239 -0.0390531 -0.03275 -0.0262405 -0.019948 -0.0143695 -0.0100239 -0.0073745 -0.00674412 -0.00825801 -0.0118545 -0.0225094 -0.0241118 -0.0256377 -0.0270794 -0.0284578 -0.0298138 -0.0311987 -0.0326647 -0.0342588 -0.0360173 -0.0379647 -0.0401114 -0.0424546 -0.0449772 -0.0476485 -0.0504241 -0.053246 -0.0560428 -0.0587303 -0.0612127 -0.063384 -0.0651298 -0.0663307 -0.0668658 -0.0666178 -0.0654789 -0.0633589 -0.0601956 -0.0559675 -0.0507103 -0.0445363 -0.0376558 -0.0303955 -0.0232065 -0.0166497 -0.0113467 -0.00789185 -0.00674093 -0.00812026 -0.0120189 -0.0267888 -0.0283803 -0.0298781 -0.0312556 -0.032529 -0.0337465 -0.0349741 -0.0362811 -0.0377301 -0.0393706 -0.041236 -0.0433425 -0.0456899 -0.0482614 -0.0510247 -0.0539323 -0.0569221 -0.0599175 -0.0628284 -0.0655522 -0.0679752 -0.0699748 -0.0714222 -0.072186 -0.0721367 -0.071153 -0.0691286 -0.0659823 -0.0616702 -0.0562025 -0.0496643 -0.0422415 -0.0342485 -0.0261484 -0.0185536 -0.0121871 -0.00779053 -0.00598594 -0.00714055 -0.011324 -0.03135 -0.0329624 -0.0344441 -0.0357432 -0.036872 -0.0378923 -0.0388926 -0.0399667 -0.0411985 -0.0426537 -0.0443767 -0.0463897 -0.0486943 -0.051273 -0.0540906 -0.0570951 -0.060219 -0.0633796 -0.0664801 -0.0694106 -0.0720497 -0.0742665 -0.0759233 -0.0768791 -0.0769941 -0.0761353 -0.074183 -0.07104 -0.0666432 -0.0609785 -0.0541027 -0.0461713 -0.0374732 -0.0284655 -0.0197932 -0.0122701 -0.00679345 -0.0041857 -0.00500456 -0.009443 -0.0361828 -0.0378656 -0.0393497 -0.0405504 -0.0414807 -0.0422267 -0.0429114 -0.0436626 -0.0445925 -0.0457867 -0.0473014 -0.0491642 -0.0513774 -0.0539208 -0.0567542 -0.0598194 -0.0630419 -0.0663314 -0.0695833 -0.0726796 -0.0754905 -0.0778767 -0.0796918 -0.0807856 -0.0810091 -0.0802193 -0.078286 -0.0750998 -0.0705824 -0.0647005 -0.0574848 -0.049059 -0.0396777 -0.0297738 -0.0200007 -0.0112418 -0.00454791 -0.000971086 -0.00131887 -0.0059678 -0.0412921 -0.0431179 -0.0446274 -0.0456979 -0.0463541 -0.0467241 -0.0469824 -0.0473037 -0.0478356 -0.0486865 -0.0499244 -0.0515808 -0.0536559 -0.0561239 -0.0589372 -0.0620289 -0.0653154 -0.0686971 -0.0720602 -0.0752775 -0.07821 -0.0807091 -0.0826193 -0.0837813 -0.0840371 -0.083235 -0.0812361 -0.0779223 -0.0732054 -0.0670391 -0.059435 -0.0504886 -0.0404177 -0.0296172 -0.0187233 -0.00865898 -0.000611149 0.00411875 0.00440693 -0.000390416 -0.0467101 -0.0487807 -0.0503391 -0.0512253 -0.0514985 -0.0513577 -0.0510524 -0.050819 -0.0508475 -0.0512702 -0.052165 -0.0535633 -0.0554596 -0.0578186 -0.0605817 -0.0636706 -0.06699 -0.0704294 -0.0738639 -0.0771558 -0.0801558 -0.0827051 -0.084638 -0.0857855 -0.0859798 -0.0850606 -0.0828812 -0.079317 -0.0742742 -0.0677002 -0.0595968 -0.0500408 -0.0392181 -0.0274806 -0.0154253 -0.00397953 0.00556584 0.0116568 0.0127845 0.00792308 -0.0525187 -0.0549713 -0.0565916 -0.0571985 -0.05693 -0.0560996 -0.0550627 -0.0541333 -0.0535477 -0.05346 -0.0539528 -0.0550514 -0.0567385 -0.0589645 -0.0616558 -0.0647195 -0.0680463 -0.0715125 -0.0749807 -0.0783013 -0.0813132 -0.0838463 -0.0857234 -0.0867641 -0.08679 -0.0856303 -0.0831299 -0.0791576 -0.0736162 -0.0664519 -0.0576657 -0.0473282 -0.0356066 -0.0228143 -0.00949876 0.00344183 0.0146562 0.0223556 0.024582 0.0197722 -0.0588872 -0.0618986 -0.0635603 -0.0637207 -0.0626765 -0.0609205 -0.0589505 -0.0571701 -0.0558608 -0.0551903 -0.0552357 -0.0560075 -0.0574688 -0.05955 -0.0621582 -0.0651824 -0.0684972 -0.0719637 -0.0754307 -0.0787352 -0.0817036 -0.0841526 -0.0858922 -0.0867291 -0.0864716 -0.0849365 -0.0819571 -0.0773933 -0.0711426 -0.0631512 -0.0534247 -0.042039 -0.0291586 -0.0150755 -0.00029028 0.0143488 0.0274757 0.0371043 0.0407772 0.0361867 -0.0661423 -0.0699241 -0.071524 -0.0709453 -0.0687806 -0.0657905 -0.0626505 -0.059857 -0.0577234 -0.0564146 -0.0559868 -0.056423 -0.0576579 -0.0595956 -0.0621193 -0.0650975 -0.0683861 -0.0718302 -0.0752634 -0.0785089 -0.0813789 -0.0836766 -0.0851975 -0.0857336 -0.0850774 -0.0830297 -0.0794079 -0.0740577 -0.0668654 -0.0577717 -0.0467845 -0.0339894 -0.0195618 -0.00379246 0.0128467 0.0295589 0.0449965 0.0570211 0.0626432 0.0585388 -0.0748981 -0.0796627 -0.080916 -0.0790909 -0.0753002 -0.0706781 -0.0660985 -0.062131 -0.0590912 -0.0571125 -0.0562091 -0.056321 -0.0573449 -0.0591519 -0.061598 -0.0645286 -0.0677805 -0.0711815 -0.0745501 -0.0776949 -0.0804142 -0.0824965 -0.0837223 -0.0838669 -0.0827051 -0.0800178 -0.0756014 -0.0692792 -0.0609161 -0.0504346 -0.0378316 -0.0231924 -0.00670278 0.0113355 0.0304566 0.0498993 0.0683415 0.0835211 0.091888 0.0887471 -0.0863063 -0.0921532 -0.0923888 -0.0884486 -0.0822999 -0.0755437 -0.0692285 -0.0639388 -0.0599379 -0.0572871 -0.0559306 -0.0557488 -0.0565903 -0.0582882 -0.0606685 -0.0635531 -0.0667588 -0.0700971 -0.0733716 -0.076377 -0.0788977 -0.0807081 -0.0815733 -0.0812515 -0.0794978 -0.0760705 -0.070739 -0.0632957 -0.0535704 -0.0414477 -0.0268872 -0.00994421 0.00921321 0.0302874 0.052817 0.0760631 0.0987194 0.118387 0.13088 0.129655 -0.102562 -0.109133 -0.106876 -0.0993561 -0.0898093 -0.0803038 -0.071943 -0.0652101 -0.0602305 -0.0569392 -0.0551784 -0.0547517 -0.0554507 -0.0570674 -0.0593973 -0.0622386 -0.0653903 -0.0686485 -0.0718035 -0.0746375 -0.0769225 -0.07842 -0.0788806 -0.0780459 -0.0756511 -0.0714299 -0.065121 -0.0564777 -0.04528 -0.0313506 -0.0145755 0.00507261 0.0275079 0.0525057 0.0796679 0.108323 0.137214 0.16378 0.182992 0.185736 -0.12798 -0.133443 -0.125566 -0.112055 -0.0976803 -0.0847073 -0.0740095 -0.065769 -0.0598523 -0.0560002 -0.0539186 -0.0533187 -0.0539302 -0.0555031 -0.0578042 -0.0606114 -0.063708 -0.0668778 -0.0699004 -0.0725479 -0.0745826 -0.0757551 -0.0758039 -0.0744562 -0.0714287 -0.0664315 -0.0591709 -0.0493562 -0.0367062 -0.0209597 -0.0018884 0.0206841 0.046857 0.0766193 0.109807 0.146011 0.184255 0.221996 0.253049 0.264388 -0.171449 -0.169436 -0.149521 -0.126211 -0.105161 -0.0879955 -0.0748006 -0.0651389 -0.0584528 -0.0542127 -0.0519586 -0.0513017 -0.0519115 -0.0535018 -0.0558165 -0.0586184 -0.0616805 -0.0647783 -0.0676847 -0.0701655 -0.0719764 -0.0728609 -0.0725489 -0.0707568 -0.067187 -0.0615288 -0.0534596 -0.0426453 -0.0287401 -0.0113867 0.00978651 0.0351667 0.065155 0.100157 0.14056 0.186671 0.23848 0.294445 0.347582 0.378286 -0.252266 -0.222589 -0.178107 -0.139427 -0.109792 -0.0881812 -0.0728472 -0.0622592 -0.0552565 -0.0509911 -0.048839 -0.0483283 -0.0490871 -0.0508084 -0.0532258 -0.0560971 -0.0591922 -0.0622848 -0.065146 -0.0675399 -0.0692202 -0.0699276 -0.0693883 -0.0673127 -0.0633946 -0.0573096 -0.0487131 -0.0372364 -0.0224786 -0.00399364 0.0187328 0.0463187 0.07954 0.119406 0.167259 0.22489 0.294643 0.37876 0.47356 0.550053 -0.413213 -0.294638 -0.202854 -0.143116 -0.105344 -0.0811775 -0.0654935 -0.0553381 -0.0489819 -0.0453624 -0.043785 -0.0437624 -0.0449278 -0.0469845 -0.049677 -0.0527722 -0.0560476 -0.059283 -0.0622542 -0.0647293 -0.0664648 -0.0672037 -0.0666735 -0.0645847 -0.0606291 -0.0544775 -0.0457752 -0.0341351 -0.0191245 -0.000241752 0.0231235 0.0517599 0.0867556 0.129711 0.18312 0.251034 0.340237 0.462023 0.630253 0.823279 -0.752817 -0.345318 -0.186294 -0.116544 -0.0812948 -0.0614276 -0.0495004 -0.0422534 -0.038087 -0.0361215 -0.0358137 -0.0367877 -0.0387546 -0.0414728 -0.0447253 -0.0483069 -0.0520156 -0.0556467 -0.0589884 -0.0618185 -0.0639021 -0.0649894 -0.0648142 -0.0630927 -0.0595218 -0.0537767 -0.0455065 -0.034327 -0.0198069 -0.00144386 0.0213779 0.0494645 0.0839546 0.126603 0.180389 0.250958 0.35027 0.505473 0.774777 1.27439 0 0 0 0 0 0 0 0 0 0 0 0 0 0 0 0 0 0 0 0 0 0 0 0 0 0 0 0 0 0 0 0 0 0 0 0 0 0 0 0 -0.00204565 -0.00240871 -0.0029356 -0.00348686 -0.00401161 -0.00448094 -0.00487424 -0.00517619 -0.00537575 -0.00546557 -0.00544137 -0.00530152 -0.00504681 -0.00468033 -0.00420755 -0.0036364 -0.00297737 -0.00224362 -0.00145092 -0.000617426 0.000236639 0.00108953 0.00191866 0.00270138 0.00341588 0.00404205 0.00456245 0.00496304 0.00523395 0.00537005 0.00537136 0.00524326 0.00499649 0.00464684 0.00421462 0.00372379 0.00320127 0.00267842 0.00220361 0.001908 -0.0023479 -0.00254209 -0.00291632 -0.00335287 -0.00378837 -0.0041859 -0.0045218 -0.00477997 -0.00494937 -0.00502259 -0.00499516 -0.00486502 -0.00463233 -0.0042994 -0.00387071 -0.00335309 -0.00275576 -0.00209045 -0.0013713 -0.000614749 0.000160821 0.000935551 0.00168873 0.00239951 0.0030478 0.00361506 0.00408523 0.00444552 0.00468718 0.00480601 0.00480283 0.00468362 0.00445957 0.00414684 0.00376635 0.00334381 0.00291077 0.00250882 0.00220167 0.00210256 -0.00227212 -0.00249562 -0.00283335 -0.00321773 -0.00360084 -0.00395094 -0.004247 -0.00447481 -0.00462468 -0.00469007 -0.00466676 -0.00455251 -0.00434682 -0.00405101 -0.00366828 -0.00320391 -0.00266544 -0.00206274 -0.0014081 -0.000716108 -3.3958e-06 0.000711723 0.00140982 0.00207104 0.00267595 0.00320639 0.00364644 0.00398336 0.00420837 0.00431733 0.00431122 0.00419637 0.00398442 0.00369212 0.00334109 0.00295779 0.00257429 0.00223052 0.00197839 0.00188507 -0.0020155 -0.00233634 -0.00270359 -0.003084 -0.00344852 -0.00377562 -0.00405031 -0.00426234 -0.00440459 -0.00447204 -0.00446118 -0.00436972 -0.00419653 -0.00394174 -0.00360705 -0.00319589 -0.0027138 -0.00216856 -0.00157042 -0.000932051 -0.000268488 0.000403207 0.0010644 0.00169556 0.00227706 0.0027902 0.0032182 0.00354732 0.00376782 0.00387479 0.00386875 0.00375593 0.00354815 0.00326258 0.00292113 0.00254998 0.00217929 0.00184314 0.00157905 0.00142431 -0.00169705 -0.00213537 -0.00256456 -0.00297186 -0.00334355 -0.00366863 -0.00393925 -0.00414999 -0.00429696 -0.00437709 -0.00438777 -0.00432673 -0.00419214 -0.00398288 -0.00369889 -0.00334157 -0.0029142 -0.00242231 -0.00187396 -0.00127991 -0.000653664 -1.12618e-05 0.000629085 0.00124763 0.00182394 0.00233797 0.00277124 0.00310811 0.00333698 0.00345135 0.00345055 0.00334011 0.00313165 0.00284237 0.00249417 0.00211257 0.00172541 0.00136149 0.00104841 0.000808639 -0.00139513 -0.00195316 -0.00245812 -0.00290988 -0.00330638 -0.00364584 -0.00392729 -0.00415021 -0.00431403 -0.00441771 -0.00445952 -0.00443717 -0.00434806 -0.00418963 -0.00395993 -0.00365812 -0.00328506 -0.002843