# vtk DataFile Version 2.0
Velocidades
ASCII

DATASET STRUCTURED_GRID
DIMENSIONS   40   40   20

POINTS   32000   double
0.0125   0.0125   0.025
0.0125   0.0375   0.025
0.0125   0.0625   0.025
0.0125   0.0875   0.025
0.0125   0.1125   0.025
0.0125   0.1375   0.025
0.0125   0.1625   0.025
0.0125   0.1875   0.025
0.0125   0.2125   0.025
0.0125   0.2375   0.025
0.0125   0.2625   0.025
0.0125   0.2875   0.025
0.0125   0.3125   0.025
0.0125   0.3375   0.025
0.0125   0.3625   0.025
0.0125   0.3875   0.025
0.0125   0.4125   0.025
0.0125   0.4375   0.025
0.0125   0.4625   0.025
0.0125   0.4875   0.025
0.0125   0.5125   0.025
0.0125   0.5375   0.025
0.0125   0.5625   0.025
0.0125   0.5875   0.025
0.0125   0.6125   0.025
0.0125   0.6375   0.025
0.0125   0.6625   0.025
0.0125   0.6875   0.025
0.0125   0.7125   0.025
0.0125   0.7375   0.025
0.0125   0.7625   0.025
0.0125   0.7875   0.025
0.0125   0.8125   0.025
0.0125   0.8375   0.025
0.0125   0.8625   0.025
0.0125   0.8875   0.025
0.0125   0.9125   0.025
0.0125   0.9375   0.025
0.0125   0.9625   0.025
0.0125   0.9875   0.025
0.0375   0.0125   0.025
0.0375   0.0375   0.025
0.0375   0.0625   0.025
0.0375   0.0875   0.025
0.0375   0.1125   0.025
0.0375   0.1375   0.025
0.0375   0.1625   0.025
0.0375   0.1875   0.025
0.0375   0.2125   0.025
0.0375   0.2375   0.025
0.0375   0.2625   0.025
0.0375   0.2875   0.025
0.0375   0.3125   0.025
0.0375   0.3375   0.025
0.0375   0.3625   0.025
0.0375   0.3875   0.025
0.0375   0.4125   0.025
0.0375   0.4375   0.025
0.0375   0.4625   0.025
0.0375   0.4875   0.025
0.0375   0.5125   0.025
0.0375   0.5375   0.025
0.0375   0.5625   0.025
0.0375   0.5875   0.025
0.0375   0.6125   0.025
0.0375   0.6375   0.025
0.0375   0.6625   0.025
0.0375   0.6875   0.025
0.0375   0.7125   0.025
0.0375   0.7375   0.025
0.0375   0.7625   0.025
0.0375   0.7875   0.025
0.0375   0.8125   0.025
0.0375   0.8375   0.025
0.0375   0.8625   0.025
0.0375   0.8875   0.025
0.0375   0.9125   0.025
0.0375   0.9375   0.025
0.0375   0.9625   0.025
0.0375   0.9875   0.025
0.0625   0.0125   0.025
0.0625   0.0375   0.025
0.0625   0.0625   0.025
0.0625   0.0875   0.025
0.0625   0.1125   0.025
0.0625   0.1375   0.025
0.0625   0.1625   0.025
0.0625   0.1875   0.025
0.0625   0.2125   0.025
0.0625   0.2375   0.025
0.0625   0.2625   0.025
0.0625   0.2875   0.025
0.0625   0.3125   0.025
0.0625   0.3375   0.025
0.0625   0.3625   0.025
0.0625   0.3875   0.025
0.0625   0.4125   0.025
0.0625   0.4375   0.025
0.0625   0.4625   0.025
0.0625   0.4875   0.025
0.0625   0.5125   0.025
0.0625   0.5375   0.025
0.0625   0.5625   0.025
0.0625   0.5875   0.025
0.0625   0.6125   0.025
0.0625   0.6375   0.025
0.0625   0.6625   0.025
0.0625   0.6875   0.025
0.0625   0.7125   0.025
0.0625   0.7375   0.025
0.0625   0.7625   0.025
0.0625   0.7875   0.025
0.0625   0.8125   0.025
0.0625   0.8375   0.025
0.0625   0.8625   0.025
0.0625   0.8875   0.025
0.0625   0.9125   0.025
0.0625   0.9375   0.025
0.0625   0.9625   0.025
0.0625   0.9875   0.025
0.0875   0.0125   0.025
0.0875   0.0375   0.025
0.0875   0.0625   0.025
0.0875   0.0875   0.025
0.0875   0.1125   0.025
0.0875   0.1375   0.025
0.0875   0.1625   0.025
0.0875   0.1875   0.025
0.0875   0.2125   0.025
0.0875   0.2375   0.025
0.0875   0.2625   0.025
0.0875   0.2875   0.025
0.0875   0.3125   0.025
0.0875   0.3375   0.025
0.0875   0.3625   0.025
0.0875   0.3875   0.025
0.0875   0.4125   0.025
0.0875   0.4375   0.025
0.0875   0.4625   0.025
0.0875   0.4875   0.025
0.0875   0.5125   0.025
0.0875   0.5375   0.025
0.0875   0.5625   0.025
0.0875   0.5875   0.025
0.0875   0.6125   0.025
0.0875   0.6375   0.025
0.0875   0.6625   0.025
0.0875   0.6875   0.025
0.0875   0.7125   0.025
0.0875   0.7375   0.025
0.0875   0.7625   0.025
0.0875   0.7875   0.025
0.0875   0.8125   0.025
0.0875   0.8375   0.025
0.0875   0.8625   0.025
0.0875   0.8875   0.025
0.0875   0.9125   0.025
0.0875   0.9375   0.025
0.0875   0.9625   0.025
0.0875   0.9875   0.025
0.1125   0.0125   0.025
0.1125   0.0375   0.025
0.1125   0.0625   0.025
0.1125   0.0875   0.025
0.1125   0.1125   0.025
0.1125   0.1375   0.025
0.1125   0.1625   0.025
0.1125   0.1875   0.025
0.1125   0.2125   0.025
0.1125   0.2375   0.025
0.1125   0.2625   0.025
0.1125   0.2875   0.025
0.1125   0.3125   0.025
0.1125   0.3375   0.025
0.1125   0.3625   0.025
0.1125   0.3875   0.025
0.1125   0.4125   0.025
0.1125   0.4375   0.025
0.1125   0.4625   0.025
0.1125   0.4875   0.025
0.1125   0.5125   0.025
0.1125   0.5375   0.025
0.1125   0.5625   0.025
0.1125   0.5875   0.025
0.1125   0.6125   0.025
0.1125   0.6375   0.025
0.1125   0.6625   0.025
0.1125   0.6875   0.025
0.1125   0.7125   0.025
0.1125   0.7375   0.025
0.1125   0.7625   0.025
0.1125   0.7875   0.025
0.1125   0.8125   0.025
0.1125   0.8375   0.025
0.1125   0.8625   0.025
0.1125   0.8875   0.025
0.1125   0.9125   0.025
0.1125   0.9375   0.025
0.1125   0.9625   0.025
0.1125   0.9875   0.025
0.1375   0.0125   0.025
0.1375   0.0375   0.025
0.1375   0.0625   0.025
0.1375   0.0875   0.025
0.1375   0.1125   0.025
0.1375   0.1375   0.025
0.1375   0.1625   0.025
0.1375   0.1875   0.025
0.1375   0.2125   0.025
0.1375   0.2375   0.025
0.1375   0.2625   0.025
0.1375   0.2875   0.025
0.1375   0.3125   0.025
0.1375   0.3375   0.025
0.1375   0.3625   0.025
0.1375   0.3875   0.025
0.1375   0.4125   0.025
0.1375   0.4375   0.025
0.1375   0.4625   0.025
0.1375   0.4875   0.025
0.1375   0.5125   0.025
0.1375   0.5375   0.025
0.1375   0.5625   0.025
0.1375   0.5875   0.025
0.1375   0.6125   0.025
0.1375   0.6375   0.025
0.1375   0.6625   0.025
0.1375   0.6875   0.025
0.1375   0.7125   0.025
0.1375   0.7375   0.025
0.1375   0.7625   0.025
0.1375   0.7875   0.025
0.1375   0.8125   0.025
0.1375   0.8375   0.025
0.1375   0.8625   0.025
0.1375   0.8875   0.025
0.1375   0.9125   0.025
0.1375   0.9375   0.025
0.1375   0.9625   0.025
0.1375   0.9875   0.025
0.1625   0.0125   0.025
0.1625   0.0375   0.025
0.1625   0.0625   0.025
0.1625   0.0875   0.025
0.1625   0.1125   0.025
0.1625   0.1375   0.025
0.1625   0.1625   0.025
0.1625   0.1875   0.025
0.1625   0.2125   0.025
0.1625   0.2375   0.025
0.1625   0.2625   0.025
0.1625   0.2875   0.025
0.1625   0.3125   0.025
0.1625   0.3375   0.025
0.1625   0.3625   0.025
0.1625   0.3875   0.025
0.1625   0.4125   0.025
0.1625   0.4375   0.025
0.1625   0.4625   0.025
0.1625   0.4875   0.025
0.1625   0.5125   0.025
0.1625   0.5375   0.025
0.1625   0.5625   0.025
0.1625   0.5875   0.025
0.1625   0.6125   0.025
0.1625   0.6375   0.025
0.1625   0.6625   0.025
0.1625   0.6875   0.025
0.1625   0.7125   0.025
0.1625   0.7375   0.025
0.1625   0.7625   0.025
0.1625   0.7875   0.025
0.1625   0.8125   0.025
0.1625   0.8375   0.025
0.1625   0.8625   0.025
0.1625   0.8875   0.025
0.1625   0.9125   0.025
0.1625   0.9375   0.025
0.1625   0.9625   0.025
0.1625   0.9875   0.025
0.1875   0.0125   0.025
0.1875   0.0375   0.025
0.1875   0.0625   0.025
0.1875   0.0875   0.025
0.1875   0.1125   0.025
0.1875   0.1375   0.025
0.1875   0.1625   0.025
0.1875   0.1875   0.025
0.1875   0.2125   0.025
0.1875   0.2375   0.025
0.1875   0.2625   0.025
0.1875   0.2875   0.025
0.1875   0.3125   0.025
0.1875   0.3375   0.025
0.1875   0.3625   0.025
0.1875   0.3875   0.025
0.1875   0.4125   0.025
0.1875   0.4375   0.025
0.1875   0.4625   0.025
0.1875   0.4875   0.025
0.1875   0.5125   0.025
0.1875   0.5375   0.025
0.1875   0.5625   0.025
0.1875   0.5875   0.025
0.1875   0.6125   0.025
0.1875   0.6375   0.025
0.1875   0.6625   0.025
0.1875   0.6875   0.025
0.1875   0.7125   0.025
0.1875   0.7375   0.025
0.1875   0.7625   0.025
0.1875   0.7875   0.025
0.1875   0.8125   0.025
0.1875   0.8375   0.025
0.1875   0.8625   0.025
0.1875   0.8875   0.025
0.1875   0.9125   0.025
0.1875   0.9375   0.025
0.1875   0.9625   0.025
0.1875   0.9875   0.025
0.2125   0.0125   0.025
0.2125   0.0375   0.025
0.2125   0.0625   0.025
0.2125   0.0875   0.025
0.2125   0.1125   0.025
0.2125   0.1375   0.025
0.2125   0.1625   0.025
0.2125   0.1875   0.025
0.2125   0.2125   0.025
0.2125   0.2375   0.025
0.2125   0.2625   0.025
0.2125   0.2875   0.025
0.2125   0.3125   0.025
0.2125   0.3375   0.025
0.2125   0.3625   0.025
0.2125   0.3875   0.025
0.2125   0.4125   0.025
0.2125   0.4375   0.025
0.2125   0.4625   0.025
0.2125   0.4875   0.025
0.2125   0.5125   0.025
0.2125   0.5375   0.025
0.2125   0.5625   0.025
0.2125   0.5875   0.025
0.2125   0.6125   0.025
0.2125   0.6375   0.025
0.2125   0.6625   0.025
0.2125   0.6875   0.025
0.2125   0.7125   0.025
0.2125   0.7375   0.025
0.2125   0.7625   0.025
0.2125   0.7875   0.025
0.2125   0.8125   0.025
0.2125   0.8375   0.025
0.2125   0.8625   0.025
0.2125   0.8875   0.025
0.2125   0.9125   0.025
0.2125   0.9375   0.025
0.2125   0.9625   0.025
0.2125   0.9875   0.025
0.2375   0.0125   0.025
0.2375   0.0375   0.025
0.2375   0.0625   0.025
0.2375   0.0875   0.025
0.2375   0.1125   0.025
0.2375   0.1375   0.025
0.2375   0.1625   0.025
0.2375   0.1875   0.025
0.2375   0.2125   0.025
0.2375   0.2375   0.025
0.2375   0.2625   0.025
0.2375   0.2875   0.025
0.2375   0.3125   0.025
0.2375   0.3375   0.025
0.2375   0.3625   0.025
0.2375   0.3875   0.025
0.2375   0.4125   0.025
0.2375   0.4375   0.025
0.2375   0.4625   0.025
0.2375   0.4875   0.025
0.2375   0.5125   0.025
0.2375   0.5375   0.025
0.2375   0.5625   0.025
0.2375   0.5875   0.025
0.2375   0.6125   0.025
0.2375   0.6375   0.025
0.2375   0.6625   0.025
0.2375   0.6875   0.025
0.2375   0.7125   0.025
0.2375   0.7375   0.025
0.2375   0.7625   0.025
0.2375   0.7875   0.025
0.2375   0.8125   0.025
0.2375   0.8375   0.025
0.2375   0.8625   0.025
0.2375   0.8875   0.025
0.2375   0.9125   0.025
0.2375   0.9375   0.025
0.2375   0.9625   0.025
0.2375   0.9875   0.025
0.2625   0.0125   0.025
0.2625   0.0375   0.025
0.2625   0.0625   0.025
0.2625   0.0875   0.025
0.2625   0.1125   0.025
0.2625   0.1375   0.025
0.2625   0.1625   0.025
0.2625   0.1875   0.025
0.2625   0.2125   0.025
0.2625   0.2375   0.025
0.2625   0.2625   0.025
[...]
POINT_DATA   32000
VECTORS Velocidades double

0 0.327627 0
0 0.745581 0
0 0.867166 0
0 0.912117 0
0 0.933063 0
0 0.944685 0
0 0.951915 0
0 0.956748 0
0 0.960133 0
0 0.962574 0
0 0.964367 0
0 0.965693 0
0 0.966671 0
0 0.967379 0
0 0.967873 0
0 0.968188 0
0 0.968349 0
0 0.968373 0
0 0.968267 0
0 0.968035 0
0 0.967674 0
0 0.967177 0
0 0.96653 0
0 0.965715 0
0 0.964704 0
0 0.963463 0
0 0.961943 0
0 0.960081 0
0 0.957789 0
0 0.954946 0
0 0.951379 0
0 0.946829 0
0 0.940893 0
0 0.932903 0
0 0.921643 0
0 0.90464 0
0 0.876081 0
0 0.820006 0
0 0.685871 0
0 0.294805 0
0 0.199618 0
0 0.506369 0
0 0.669703 0
0 0.757144 0
0 0.80708 0
0 0.837737 0
0 0.857767 0
0 0.871498 0
0 0.881248 0
0 0.888339 0
0 0.893575 0
0 0.897463 0
0 0.900337 0
0 0.902424 0
0 0.903879 0
0 0.904808 0
0 0.905283 0
0 0.905351 0
0 0.905037 0
0 0.904349 0
0 0.90328 0
0 0.901809 0
0 0.899895 0
0 0.897486 0
0 0.894502 0
0 0.890844 0
0 0.886373 0
0 0.880908 0
0 0.874202 0
0 0.865919 0
0 0.855582 0
0 0.842501 0
0 0.82564 0
0 0.803375 0
0 0.773035 0
0 0.73001 0
0 0.665991 0
0 0.565809 0
0 0.403719 0
0 0.151605 0
0 0.141045 0
0 0.377225 0
0 0.533044 0
0 0.632521 0
0 0.696776 0
0 0.739516 0
0 0.76889 0
0 0.789683 0
0 0.804756 0
0 0.815874 0
0 0.824161 0
0 0.830356 0
0 0.834958 0
0 0.838311 0
0 0.840653 0
0 0.84215 0
0 0.842915 0
0 0.84302 0
0 0.842506 0
0 0.841386 0
0 0.839649 0
0 0.837261 0
0 0.834161 0
0 0.830263 0
0 0.825449 0
0 0.819561 0
0 0.812391 0
0 0.803666 0
0 0.793023 0
0 0.779972 0
0 0.763848 0
0 0.743718 0
0 0.718261 0
0 0.685557 0
0 0.642777 0
0 0.585746 0
0 0.508469 0
0 0.403192 0
0 0.262961 0
0 0.091716 0
0 0.108749 0
0 0.298332 0
0 0.43666 0
0 0.534487 0
0 0.603255 0
0 0.652015 0
0 0.687112 0
0 0.712786 0
0 0.731837 0
0 0.746125 0
0 0.756903 0
0 0.765033 0
0 0.77111 0
0 0.775558 0
0 0.778675 0
0 0.780669 0
0 0.781685 0
0 0.781817 0
0 0.781117 0
0 0.779603 0
0 0.77726 0
0 0.774045 0
0 0.769882 0
0 0.764661 0
0 0.758234 0
0 0.750404 0
0 0.740916 0
0 0.729441 0
0 0.715552 0
0 0.698689 0
0 0.678119 0
0 0.652868 0
0 0.62164 0
0 0.582713 0
0 0.533835 0
0 0.472194 0
0 0.39466 0
0 0.298745 0
0 0.185092 0
0 0.0621077 0
0 0.0881961 0
0 0.245082 0
0 0.365849 0
0 0.456823 0
0 0.524658 0
0 0.5752 0
0 0.61304 0
0 0.641573 0
0 0.663239 0
0 0.679774 0
0 0.692413 0
0 0.70204 0
0 0.709292 0
0 0.714626 0
0 0.718377 0
0 0.72078 0
0 0.722 0
0 0.722146 0
0 0.721278 0
0 0.719418 0
0 0.716551 0
0 0.712626 0
0 0.707557 0
0 0.701222 0
0 0.693453 0
0 0.684034 0
0 0.672689 0
0 0.659069 0
0 0.642732 0
0 0.623121 0
0 0.599539 0
0 0.571108 0
0 0.536746 0
0 0.49515 0
0 0.444831 0
0 0.384281 0
0 0.312391 0
0 0.229308 0
0 0.137873 0
0 0.0453232 0
0 0.0737228 0
0 0.206314 0
0 0.311596 0
0 0.394192 0
0 0.458398 0
0 0.508085 0
0 0.546507 0
0 0.576259 0
0 0.599338 0
0 0.61725 0
0 0.631125 0
0 0.641802 0
0 0.649907 0
0 0.655904 0
0 0.660135 0
0 0.662849 0
0 0.664221 0
0 0.664367 0
0 0.663354 0
0 0.661205 0
0 0.657906 0
0 0.653403 0
0 0.647608 0
0 0.640391 0
0 0.631581 0
0 0.620958 0
0 0.608249 0
0 0.593112 0
0 0.575134 0
0 0.55381 0
0 0.528541 0
0 0.498618 0
0 0.463239 0
0 0.421542 0
0 0.372706 0
0 0.316154 0
0 0.251912 0
0 0.181167 0
0 0.10697 0
0 0.0347638 0
0 0.0627944 0
0 0.17647 0
0 0.268488 0
0 0.342663 0
0 0.402068 0
0 0.44939 0
0 0.486954 0
0 0.516705 0
0 0.540225 0
0 0.558767 0
0 0.573312 0
0 0.584617 0
0 0.593266 0
0 0.599703 0
0 0.60426 0
0 0.607187 0
0 0.608658 0
0 0.608792 0
0 0.607658 0
0 0.605283 0
0 0.60165 0
0 0.596711 0
0 0.590375 0
0 0.582518 0
0 0.572973 0
0 0.561532 0
0 0.547938 0
0 0.531884 0
0 0.513005 0
0 0.490882 0
0 0.465035 0
0 0.434945 0
0 0.400076 0
0 0.359939 0
0 0.314197 0
0 0.262836 0
0 0.206421 0
0 0.14641 0
0 0.0854641 0
0 0.0275868 0
0 0.0541336 0
0 0.152538 0
0 0.233211 0
0 0.299471 0
0 0.353704 0
0 0.397875 0
0 0.433681 0
0 0.462582 0
0 0.485809 0
0 0.504379 0
0 0.519115 0
0 0.530679 0
0 0.539592 0
0 0.546262 0
0 0.551001 0
0 0.554046 0
0 0.555566 0
0 0.555678 0
0 0.55445 0
0 0.55191 0
0 0.548045 0
0 0.542807 0
0 0.536116 0
0 0.527853 0
0 0.517865 0
0 0.505966 0
0 0.491927 0
0 0.475486 0
0 0.456343 0
0 0.434166 0
0 0.408604 0
0 0.379305 0
0 0.345956 0
0 0.308342 0
0 0.266436 0
0 0.220528 0
0 0.171379 0
0 0.120396 0
0 0.0697526 0
0 0.0224193 0
0 0.0470316 0
0 0.132766 0
0 0.203667 0
0 0.262686 0
0 0.311779 0
0 0.352455 0
0 0.385987 0
0 0.413482 0
0 0.435892 0
0 0.45403 0
0 0.468576 0
0 0.480091 0
0 0.489027 0
0 0.495749 0
0 0.500541 0
0 0.503619 0
0 0.505144 0
0 0.505226 0
0 0.503932 0
0 0.501288 0
0 0.497285 0
0 0.491883 0
0 0.485007 0
0 0.476554 0
0 0.466389 0
0 0.45435 0
0 0.440247 0
0 0.423864 0
0 0.404967 0
0 0.383311 0
0 0.358657 0
0 0.330791 0
0 0.299568 0
0 0.264957 0
0 0.227111 0
0 0.186455 0
0 0.143779 0
0 0.100322 0
0 0.0578243 0
0 0.0185328 0
0 0.0410641 0
0 0.116068 0
0 0.178483 0
0 0.230952 0
0 0.275132 0
0 0.312229 0
0 0.343229 0
0 0.368979 0
0 0.390219 0
0 0.407596 0
0 0.421661 0
0 0.432883 0
0 0.441647 0
0 0.44827 0
0 0.453005 0
0 0.456045 0
0 0.457538 0
0 0.457586 0
0 0.456251 0
0 0.45356 0
0 0.449508 0
0 0.44406 0
0 0.437154 0
0 0.428701 0
0 0.418587 0
0 0.406679 0
0 0.392822 0
0 0.37685 0
0 0.358588 0
0 0.337869 0
0 0.314543 0
0 0.288504 0
0 0.259722 0
0 0.22828 0
0 0.194424 0
0 0.15862 0
0 0.121605 0
0 0.0844307 0
0 0.0484883 0
0 0.0155101 0
0 0.0359606 0
0 0.101738 0
0 0.156727 0
0 0.203297 0
0 0.242879 0
0 0.276468 0
0 0.304843 0
0 0.328667 0
0 0.348519 0
0 0.36491 0
0 0.378286 0
0 0.389032 0
0 0.397472 0
0 0.403877 0
0 0.408465 0
0 0.41141 0
0 0.412842 0
0 0.412853 0
0 0.411502 0
0 0.408815 0
0 0.404792 0
0 0.399403 0
0 0.392599 0
0 0.384305 0
0 0.374431 0
0 0.36287 0
0 0.349503 0
0 0.334207 0
0 0.31686 0
0 0.297356 0
0 0.275617 0
0 0.251614 0
0 0.22539 0
0 0.197092 0
0 0.167005 0
0 0.135584 0
0 0.103484 0
0 0.0715856 0
0 0.0410026 0
0 0.0130971 0
0 0.0315404 0
0 0.0892945 0
0 0.137746 0
0 0.179011 0
0 0.214343 0
0 0.244577 0
0 0.270347 0
0 0.292175 0
0 0.31052 0
0 0.325786 0
0 0.338332 0
0 0.348472 0
0 0.356477 0
0 0.362574 0
0 0.366949 0
0 0.369754 0
0 0.371103 0
0 0.371079 0
0 0.369734 0
0 0.367096 0
0 0.363166 0
0 0.357923 0
0 0.351328 0
0 0.343323 0
0 0.333838 0
0 0.322789 0
0 0.310092 0
0 0.295659 0
0 0.279412 0
0 0.261294 0
0 0.241278 0
0 0.219386 0
0 0.195707 0
0 0.170419 0
0 0.143811 0
0 0.116303 0
0 0.0884641 0
0 0.0610245 0
0 0.0348842 0
0 0.0111312 0
0 0.0276771 0
0 0.0783992 0
0 0.121066 0
0 0.157566 0
0 0.188999 0
0 0.21608 0
0 0.239328 0
0 0.259166 0
0 0.275958 0
0 0.290026 0
0 0.301659 0
0 0.31111 0
0 0.318603 0
0 0.324328 0
0 0.328442 0
0 0.331076 0
0 0.332327 0
0 0.33227 0
0 0.330952 0
0 0.328399 0
0 0.324616 0
0 0.319588 0
0 0.313287 0
0 0.30567 0
0 0.296683 0
0 0.286267 0
0 0.274363 0
0 0.260914 0
0 0.245877 0
0 0.229229 0
0 0.210982 0
0 0.191188 0
0 0.169961 0
0 0.147489 0
0 0.124047 0
0 0.10001 0
0 0.0758668 0
0 0.0522213 0
0 0.0298067 0
0 0.00950348 0
0 0.0242791 0
0 0.0688031 0
0 0.106336 0
0 0.138556 0
0 0.166433 0
0 0.190581 0
0 0.211435 0
0 0.22934 0
0 0.244587 0
0 0.257434 0
0 0.268112 0
0 0.276827 0
0 0.283763 0
0 0.289075 0
0 0.292897 0
0 0.295338 0
0 0.296484 0
0 0.296398 0
0 0.295123 0
0 0.292685 0
0 0.28909 0
0 0.28433 0
0 0.278386 0
0 0.271226 0
0 0.262814 0
0 0.25311 0
0 0.242075 0
0 0.229677 0
0 0.215899 0
0 0.200745 0
0 0.184248 0
0 0.16648 0
0 0.147567 0
0 0.127689 0
0 0.107102 0
0 0.0861343 0
0 0.0652005 0
0 0.044803 0
0 0.0255423 0
0 0.00813883 0
0 0.0212779 0
0 0.0603184 0
0 0.0932842 0
0 0.121664 0
0 0.146311 0
0 0.167756 0
0 0.186367 0
0 0.202428 0
0 0.216173 0
0 0.227812 0
0 0.237529 0
0 0.245491 0
0 0.251847 0
0 0.256726 0
0 0.260239 0
0 0.262476 0
0 0.263513 0
0 0.263403 0
0 0.262186 0
0 0.259884 0
0 0.256507 0
0 0.252052 0
0 0.246506 0
0 0.239851 0
0 0.232061 0
0 0.223113 0
0 0.212985 0
0 0.201663 0
0 0.189149 0
0 0.175464 0
0 0.160656 0
0 0.144807 0
0 0.128041 0
0 0.11053 0
0 0.0925009 0
0 0.0742414 0
0 0.056101 0
0 0.0384978 0
0 0.0219271 0
0 0.00698351 0
0 0.0186203 0
0 0.0527989 0
0 0.0816989 0
0 0.106636 0
0 0.128359 0
0 0.147329 0
0 0.16386 0
0 0.178186 0
0 0.1905 0
0 0.20097 0
0 0.209744 0
0 0.216957 0
0 0.222731 0
0 0.227171 0
0 0.230368 0
0 0.232399 0
0 0.233327 0
0 0.233199 0
0 0.232049 0
0 0.229899 0
0 0.22676 0
0 0.222633 0
0 0.217512 0
0 0.211386 0
0 0.204242 0
0 0.196067 0
0 0.186852 0
0 0.176599 0
0 0.165321 0
0 0.15305 0
0 0.139841 0
0 0.125781 0
0 0.110986 0
0 0.0956164 0
0 0.0798714 0
0 0.0639983 0
0 0.0482927 0
0 0.0331031 0
0 0.0188402 0
0 0.00599805 0
0 0.016264 0
0 0.0461277 0
0 0.0714073 0
0 0.0932611 0
0 0.112347 0
0 0.129065 0
0 0.143683 0
0 0.156396 0
0 0.167364 0
0 0.176721 0
0 0.184588 0
0 0.191074 0
0 0.196277 0
0 0.200284 0
0 0.203169 0
0 0.204997 0
0 0.20582 0
0 0.205679 0
0 0.204604 0
0 0.202615 0
0 0.199725 0
0 0.195937 0
0 0.191252 0
0 0.185664 0
0 0.179168 0
0 0.17176 0
0 0.163443 0
0 0.154227 0
0 0.144133 0
0 0.133199 0
0 0.121485 0
0 0.109073 0
0 0.0960741 0
0 0.0826299 0
0 0.0689161 0
0 0.055144 0
0 0.041563 0
0 0.0284645 0
0 0.0161903 0
0 0.00515277 0
0 0.0141743 0
0 0.0402083 0
0 0.0622663 0
0 0.0813647 0
0 0.0980791 0
0 0.112757 0
0 0.125628 0
0 0.136855 0
0 0.146571 0
0 0.154884 0
0 0.161893 0
0 0.167685 0
0 0.172341 0
0 0.175929 0
0 0.178513 0
0 0.180144 0
0 0.180868 0
0 0.180719 0
0 0.179723 0
0 0.177901 0
0 0.175263 0
0 0.171817 0
0 0.167565 0
0 0.162509 0
0 0.156649 0
0 0.149989 0
0 0.142536 0
0 0.134307 0
0 0.12533 0
0 0.115644 0
0 0.10531 0
0 0.0944038 0
0 0.0830277 0
0 0.0713073 0
0 0.0593948 0
0 0.0474706 0
0 0.0357449 0
0 0.0244617 0
0 0.0139065 0
0 0.00442479 0
0 0.0123222 0
0 0.0349596 0
0 0.0541545 0
0 0.0707954 0
0 0.0853846 0
0 0.0982237 0
0 0.109509 0
0 0.119378 0
0 0.12794 0
0 0.135285 0
0 0.141492 0
0 0.146632 0
0 0.15077 0
0 0.153961 0
0 0.156258 0
0 0.157704 0
0 0.158336 0
0 0.158183 0
0 0.15727 0
0 0.155613 0
0 0.153225 0
0 0.150114 0
0 0.146286 0
0 0.141746 0
0 0.136498 0
0 0.130551 0
0 0.123917 0
0 0.116617 0
0 0.108679 0
0 0.100146 0
0 0.0910723 0
0 0.0815315 0
0 0.0716139 0
0 0.0614299 0
0 0.0511107 0
0 0.0408099 0
0 0.0307047 0
0 0.0209994 0
0 0.0119331 0
0 0.00379609 0
0 0.0106827 0
0 0.0303119 0
0 0.0469667 0
0 0.061421 0
0 0.0741119 0
0 0.0853005 0
0 0.0951544 0
0 0.103791 0
0 0.1113 0
0 0.117756 0
0 0.123222 0
0 0.127756 0
0 0.13141 0
0 0.13423 0
0 0.136259 0
0 0.137531 0
0 0.138079 0
0 0.137927 0
0 0.137095 0
0 0.135601 0
0 0.133456 0
0 0.130668 0
0 0.127247 0
0 0.123199 0
0 0.118531 0
0 0.113255 0
0 0.107387 0
0 0.100948 0
0 0.093968 0
0 0.0864876 0
0 0.0785589 0
0 0.0702475 0
0 0.0616338 0
0 0.0528139 0
0 0.0439005 0
0 0.0350239 0
0 0.0263334 0
0 0.0180004 0
0 0.0102253 0
0 0.00325222 0
0 0.00923391 0
0 0.0262038 0
0 0.04061 0
0 0.0531243 0
0 0.0641254 0
0 0.0738389 0
0 0.0824085 0
0 0.0899331 0
0 0.0964876 0
0 0.102133 0
0 0.10692 0
0 0.110897 0
0 0.114106 0
0 0.116583 0
0 0.118363 0
0 0.119476 0
0 0.119948 0
0 0.119799 0
0 0.119049 0
0 0.117711 0
0 0.115797 0
0 0.113317 0
0 0.11028 0
0 0.106694 0
0 0.102569 0
0 0.0979176 0
0 0.0927568 0
0 0.0871088 0
0 0.0810031 0
0 0.0744776 0
0 0.0675802 0
0 0.0603694 0
0 0.0529159 0
0 0.0453028 0
0 0.0376266 0
0 0.0299974 0
0 0.022541 0
0 0.0154012 0
0 0.0087462 0
0 0.00278136 0
0 0.00795658 0
0 0.022581 0
0 0.0350018 0
0 0.0457996 0
0 0.0553019 0
0 0.0637028 0
0 0.071125 0
0 0.0776524 0
0 0.0833473 0
0 0.0882595 0
0 0.0924316 0
0 0.0959012 0
0 0.0987024 0
0 0.100866 0
0 0.102419 0
0 0.103387 0
0 0.103791 0
0 0.103649 0
0 0.102976 0
0 0.101787 0
0 0.100091 0
0 0.0978994 0
0 0.0952203 0
0 0.0920634 0
0 0.0884398 0
0 0.0843628 0
0 0.0798495 0
0 0.0749218 0
0 0.0696075 0
0 0.0639418 0
0 0.0579676 0
0 0.0517369 0
0 0.0453113 0
0 0.0387622 0
0 0.0321717 0
0 0.025633 0
0 0.0192519 0
0 0.0131489 0
0 0.00746525 0
0 0.0023737 0
0 0.00683326 0
0 0.0193945 0
0 0.030067 0
0 0.0393512 0
0 0.0475287 0
0 0.0547663 0
0 0.0611687 0
0 0.0668067 0
0 0.0717323 0
0 0.0759864 0
0 0.0796039 0
0 0.0826153 0
0 0.085048 0
0 0.086927 0
0 0.0882748 0
0 0.0891117 0
0 0.0894553 0
0 0.0893214 0
0 0.0887233 0
0 0.0876729 0
0 0.0861803 0
0 0.0842551 0
0 0.0819064 0
0 0.0791442 0
0 0.0759795 0
0 0.0724258 0
0 0.0684999 0
0 0.0642225 0
0 0.0596195 0
0 0.0547228 0
0 0.0495705 0
0 0.0442084 0
0 0.0386895 0
0 0.0330751 0
0 0.027435 0
0 0.0218476 0
0 0.0164018 0
0 0.0111987 0
0 0.0063566 0
0 0.00202096 0
0 0.0058482 0
0 0.0165997 0
0 0.0257377 0
0 0.0336913 0
0 0.0407023 0
0 0.0469132 0
0 0.0524132 0
0 0.0572621 0
0 0.0615031 0
0 0.0651701 0
0 0.0682914 0
0 0.0708918 0
0 0.0729936 0
0 0.0746169 0
0 0.0757801 0
0 0.0764998 0
0 0.0767908 0
0 0.0766664 0
0 0.0761381 0
0 0.0752163 0
0 0.0739106 0
0 0.0722298 0
0 0.0701831 0
0 0.06778 0
0 0.0650315 0
0 0.0619507 0
0 0.0585535 0
0 0.0548591 0
0 0.0508912 0
0 0.0466781 0
0 0.0422537 0
0 0.0376576 0
0 0.0329354 0
0 0.0281395 0
0 0.0233287 0
0 0.0185692 0
0 0.0139354 0
0 0.00951199 0
0 0.00539819 0
0 0.00171609 0
0 0.00498699 0
0 0.014156 0
0 0.0219512 0
0 0.0287393 0
0 0.0347268 0
0 0.0400354 0
0 0.0447405 0
0 0.0488927 0
0 0.0525279 0
0 0.0556741 0
0 0.0583544 0
0 0.0605888 0
0 0.0623953 0
0 0.0637905 0
0 0.0647891 0
0 0.0654049 0
0 0.0656501 0
0 0.0655359 0
0 0.0650724 0
0 0.0642686 0
0 0.0631332 0
0 0.0616745 0
0 0.059901 0
0 0.0578221 0
0 0.0554481 0
0 0.0527914 0
0 0.0498666 0
0 0.0466914 0
0 0.043287 0
0 0.0396785 0
0 0.0358954 0
0 0.0319718 0
0 0.0279469 0
0 0.0238651 0
0 0.0197759 0
0 0.0157351 0
0 0.0118047 0
0 0.00805564 0
0 0.00457094 0
0 0.00145299 0
0 0.00423647 0
0 0.0120262 0
0 0.0186503 0
0 0.024421 0
0 0.029514 0
0 0.0340325 0
0 0.0380406 0
0 0.0415806 0
0 0.0446824 0
0 0.0473691 0
0 0.0496596 0
0 0.0515701 0
0 0.0531151 0
0 0.0543081 0
0 0.055161 0
0 0.0556852 0
0 0.0558909 0
0 0.0557873 0
0 0.0553832 0
0 0.0546866 0
0 0.0537051 0
0 0.0524464 0
0 0.0509184 0
0 0.0491298 0
0 0.0470903 0
0 0.0448112 0
0 0.0423059 0
0 0.0395903 0
0 0.0366831 0
0 0.0336063 0
0 0.0303855 0
0 0.0270499 0
0 0.023633 0
0 0.0201721 0
0 0.016709 0
0 0.0132902 0
0 0.00996768 0
0 0.0068006 0
0 0.00385826 0
0 0.00122635 0
0 0.00358451 0
0 0.0101758 0
0 0.0157821 0
0 0.0206678 0
0 0.0249818 0
0 0.0288115 0
0 0.0322108 0
0 0.0352153 0
0 0.0378498 0
0 0.0401333 0
0 0.0420811 0
0 0.0437065 0
0 0.0450213 0
0 0.0460361 0
0 0.0467609 0
0 0.0472049 0
0 0.0473765 0
0 0.0472837 0
0 0.0469336 0
0 0.0463335 0
0 0.04549 0
0 0.0444101 0
0 0.043101 0
0 0.0415706 0
0 0.0398278 0
0 0.0378829 0
0 0.0357478 0
0 0.0334367 0
0 0.0309659 0
0 0.0283545 0
0 0.0256246 0
0 0.0228011 0
0 0.0199121 0
0 0.0169893 0
0 0.0140676 0
0 0.0111859 0
0 0.00838737 0
0 0.00572134 0
0 0.00324554 0
0 0.00103154 0
0 0.00301998 0
0 0.00857356 0
0 0.013298 0
0 0.0174164 0
0 0.0210545 0
0 0.0242858 0
0 0.0271557 0
0 0.0296937 0
0 0.0319206 0
0 0.0338519 0
0 0.0355001 0
0 0.036876 0
0 0.037989 0
0 0.0388479 0
0 0.0394606 0
0 0.0398348 0
0 0.0399773 0
0 0.0398948 0
0 0.0395936 0
0 0.0390797 0
0 0.0383591 0
0 0.037438 0
0 0.0363227 0
0 0.0350206 0
0 0.0335394 0
0 0.0318884 0
0 0.0300783 0
0 0.0281213 0
0 0.0260317 0
0 0.0238259 0
0 0.0215226 0
0 0.0191432 0
0 0.0167113 0
0 0.0142533 0
0 0.0117984 0
0 0.00937899 0
0 0.00703101 0
0 0.00479533 0
0 0.00271995 0
0 0.000864436 0
0 0.00253266 0
0 0.00719031 0
0 0.0111532 0
0 0.0146087 0
0 0.0176622 0
0 0.0203756 0
0 0.0227866 0
0 0.0249199 0
0 0.0267927 0
0 0.0284178 0
0 0.0298052 0
0 0.0309636 0
0 0.0319009 0
0 0.0326238 0
0 0.0331391 0
0 0.0334527 0
0 0.0335705 0
0 0.033498 0
0 0.0332405 0
0 0.0328032 0
0 0.0321913 0
0 0.0314103 0
0 0.0304657 0
0 0.0293641 0
0 0.0281124 0
0 0.0267187 0
0 0.0251923 0
0 0.0235439 0
0 0.0217857 0
0 0.0199318 0
0 0.0179982 0
0 0.0160025 0
0 0.0139648 0
0 0.011907 0
0 0.00985354 0
0 0.00783109 0
0 0.0058695 0
0 0.00400257 0
0 0.00227007 0
0 0.000721424 0
0 0.00211316 0
0 0.00599947 0
0 0.0093065 0
0 0.0121908 0
0 0.0147404 0
0 0.0170068 0
0 0.0190215 0
0 0.020805 0
0 0.0223714 0
0 0.0237311 0
0 0.0248924 0
0 0.0258623 0
0 0.0266469 0
0 0.027252 0
0 0.0276827 0
0 0.0279442 0
0 0.0280411 0
0 0.027978 0
0 0.0277594 0
0 0.0273897 0
0 0.0268734 0
0 0.0262153 0
0 0.0254203 0
0 0.024494 0
0 0.0234426 0
0 0.022273 0
0 0.0209933 0
0 0.0196127 0
0 0.0181417 0
0 0.0165921 0
0 0.0149773 0
0 0.0133123 0
0 0.0116136 0
0 0.00989955 0
0 0.00819027 0
0 0.00650786 0
0 0.00487689 0
0 0.00332526 0
0 0.00188577 0
0 0.000599269 0
0 0.00175283 0
0 0.00497659 0
0 0.00772014 0
0 0.0101135 0
0 0.0122296 0
0 0.0141113 0
0 0.0157847 0
0 0.0172666 0
0 0.0185686 0
0 0.0196992 0
0 0.0206652 0
0 0.021472 0
0 0.0221247 0
0 0.0226278 0
0 0.0229857 0
0 0.0232022 0
0 0.0232815 0
0 0.0232271 0
0 0.0230429 0
0 0.0227327 0
0 0.0223002 0
0 0.0217495 0
0 0.0210849 0
0 0.0203113 0
0 0.0194339 0
0 0.0184589 0
0 0.017393 0
0 0.016244 0
0 0.0150209 0
0 0.0137336 0
0 0.0123932 0
0 0.0110123 0
0 0.00960451 0
0 0.008185 0
0 0.00677029 0
0 0.00537858 0
0 0.00403003 0
0 0.00274752 0
0 0.00155802 0
0 0.000495095 0
0 0.00144379 0
0 0.00409924 0
0 0.00635937 0
0 0.00833132 0
0 0.0100753 0
0 0.0116265 0
0 0.0130064 0
0 0.0142288 0
0 0.0153032 0
0 0.0162364 0
0 0.0170339 0
0 0.0177 0
0 0.018239 0
0 0.0186542 0
0 0.0189493 0
0 0.0191274 0
0 0.0191918 0
0 0.0191455 0
0 0.0189916 0
0 0.0187334 0
0 0.0183739 0
0 0.0179168 0
0 0.0173657 0
0 0.0167246 0
0 0.0159982 0
0 0.0151915 0
0 0.0143103 0
0 0.0133613 0
0 0.0123518 0
0 0.0112901 0
0 0.0101854 0
0 0.0090482 0
0 0.00788964 0
0 0.00672213 0
0 0.00555921 0
0 0.00441573 0
0 0.00330816 0
0 0.00225516 0
0 0.00127873 0
0 0.000406332 0
0 0.00117878 0
0 0.00334686 0
0 0.00519234 0
0 0.00680275 0
0 0.00822726 0
0 0.00949461 0
0 0.0106223 0
0 0.0116216 0
0 0.0125001 0
0 0.0132634 0
0 0.0139157 0
0 0.0144608 0
0 0.0149016 0
0 0.0152412 0
0 0.0154823 0
0 0.0156275 0
0 0.0156793 0
0 0.0156404 0
0 0.0155132 0
0 0.0153004 0
0 0.0150046 0
0 0.0146289 0
0 0.0141762 0
0 0.01365 0
0 0.0130542 0
0 0.0123931 0
0 0.0116714 0
0 0.0108947 0
0 0.010069 0
0 0.00920129 0
0 0.00829909 0
0 0.00737082 0
0 0.00642569 0
0 0.00547378 0
0 0.00452607 0
0 0.00359459 0
0 0.00269267 0
0 0.00183542 0
0 0.00104067 0
0 0.000330676 0
0 0.000951145 0
0 0.0027006 0
0 0.00418984 0
0 0.00548955 0
0 0.00663942 0
0 0.00766264 0
0 0.00857333 0
0 0.0093805 0
0 0.0100903 0
0 0.0107071 0
0 0.0112343 0
0 0.0116748 0
0 0.0120312 0
0 0.0123055 0
0 0.0125001 0
0 0.0126171 0
0 0.0126584 0
0 0.0126261 0
0 0.0125224 0
0 0.0123492 0
0 0.012109 0
0 0.011804 0
0 0.0114368 0
0 0.0110103 0
0 0.0105277 0
0 0.00999244 0
0 0.00940857 0
0 0.00878054 0
0 0.00811335 0
0 0.00741258 0
0 0.00668439 0
0 0.00593557 0
0 0.00517354 0
0 0.0044064 0
0 0.00364297 0
0 0.00289288 0
0 0.00216681 0
0 0.00147687 0
0 0.000837331 0
0 0.000266058 0
0 0.000754788 0
0 0.00214311 0
0 0.003325 0
0 0.00435658 0
0 0.00526937 0
0 0.00608175 0
0 0.00680493 0
0 0.00744603 0
0 0.00800989 0
0 0.00849996 0
0 0.00891893 0
0 0.009269 0
0 0.00955213 0
0 0.00977008 0
0 0.00992455 0
0 0.0100172 0
0 0.0100496 0
0 0.0100234 0
0 0.00994028 0
0 0.00980193 0
0 0.00961015 0
0 0.00936689 0
0 0.00907422 0
0 0.00873447 0
0 0.00835019 0
0 0.00792425 0
0 0.00745986 0
0 0.00696062 0
0 0.00643053 0
0 0.00587403 0
0 0.00529605 0
0 0.00470198 0
0 0.00409769 0
0 0.00348959 0
0 0.00288464 0
0 0.00229045 0
0 0.00171544 0
0 0.00116914 0
0 0.000662834 0
0 0.000210608 0
0 0.00058407 0
0 0.00165839 0
0 0.00257302 0
0 0.0033714 0
0 0.00407792 0
0 0.00470681 0
0 0.00526673 0
0 0.00576319 0
0 0.00619989 0
0 0.0065795 0
0 0.00690407 0
0 0.00717527 0
0 0.00739459 0
0 0.00756337 0
0 0.00768292 0
0 0.00775448 0
0 0.00777931 0
0 0.00775866 0
0 0.00769382 0
0 0.00758613 0
0 0.007437 0
0 0.00724795 0
0 0.00702064 0
0 0.00675688 0
0 0.0064587 0
0 0.00612833 0
0 0.00576831 0
0 0.00538144 0
0 0.00497084 0
0 0.00453997 0
0 0.00409266 0
0 0.00363306 0
0 0.00316574 0
0 0.00269563 0
0 0.00222809 0
0 0.00176898 0
0 0.00132479 0
0 0.000902851 0
0 0.000511844 0
0 0.00016263 0
0 0.000433761 0
0 0.00123162 0
0 0.00191091 0
0 0.0025039 0
0 0.00302871 0
0 0.0034959 0
0 0.00391192 0
0 0.00428082 0
0 0.00460536 0
0 0.00488751 0
0 0.00512875 0
0 0.00533034 0
0 0.00549335 0
0 0.00561877 0
0 0.00570755 0
0 0.00576063 0
0 0.00577891 0
0 0.00576334 0
0 0.00571487 0
0 0.00563451 0
0 0.00552332 0
0 0.00538245 0
0 0.00521313 0
0 0.00501674 0
0 0.0047948 0
0 0.004549 0
0 0.00428123 0
0 0.00399359 0
0 0.00368842 0