# vtk DataFile Version 2.0
Velocidades
ASCII

DATASET STRUCTURED_GRID
DIMENSIONS   40   40   10

POINTS   16000   double
0.0125   0.0125   0.05
0.0125   0.0375   0.05
0.0125   0.0625   0.05
0.0125   0.0875   0.05
0.0125   0.1125   0.05
0.0125   0.1375   0.05
0.0125   0.1625   0.05
0.0125   0.1875   0.05
0.0125   0.2125   0.05
0.0125   0.2375   0.05
0.0125   0.2625   0.05
0.0125   0.2875   0.05
0.0125   0.3125   0.05
0.0125   0.3375   0.05
0.0125   0.3625   0.05
0.0125   0.3875   0.05
0.0125   0.4125   0.05
0.0125   0.4375   0.05
0.0125   0.4625   0.05
0.0125   0.4875   0.05
0.0125   0.5125   0.05
0.0125   0.5375   0.05
0.0125   0.5625   0.05
0.0125   0.5875   0.05
0.0125   0.6125   0.05
0.0125   0.6375   0.05
0.0125   0.6625   0.05
0.0125   0.6875   0.05
0.0125   0.7125   0.05
0.0125   0.7375   0.05
0.0125   0.7625   0.05
0.0125   0.7875   0.05
0.0125   0.8125   0.05
0.0125   0.8375   0.05
0.0125   0.8625   0.05
0.0125   0.8875   0.05
0.0125   0.9125   0.05
0.0125   0.9375   0.05
0.0125   0.9625   0.05
0.0125   0.9875   0.05
0.0375   0.0125   0.05
0.0375   0.0375   0.05
0.0375   0.0625   0.05
0.0375   0.0875   0.05
0.0375   0.1125   0.05
0.0375   0.1375   0.05
0.0375   0.1625   0.05
0.0375   0.1875   0.05
0.0375   0.2125   0.05
0.0375   0.2375   0.05
0.0375   0.2625   0.05
0.0375   0.2875   0.05
0.0375   0.3125   0.05
0.0375   0.3375   0.05
0.0375   0.3625   0.05
0.0375   0.3875   0.05
0.0375   0.4125   0.05
0.0375   0.4375   0.05
0.0375   0.4625   0.05
0.0375   0.4875   0.05
0.0375   0.5125   0.05
0.0375   0.5375   0.05
0.0375   0.5625   0.05
0.0375   0.5875   0.05
0.0375   0.6125   0.05
0.0375   0.6375   0.05
0.0375   0.6625   0.05
0.0375   0.6875   0.05
0.0375   0.7125   0.05
0.0375   0.7375   0.05
0.0375   0.7625   0.05
0.0375   0.7875   0.05
0.0375   0.8125   0.05
0.0375   0.8375   0.05
0.0375   0.8625   0.05
0.0375   0.8875   0.05
0.0375   0.9125   0.05
0.0375   0.9375   0.05
0.0375   0.9625   0.05
0.0375   0.9875   0.05
0.0625   0.0125   0.05
0.0625   0.0375   0.05
0.0625   0.0625   0.05
0.0625   0.0875   0.05
0.0625   0.1125   0.05
0.0625   0.1375   0.05
0.0625   0.1625   0.05
0.0625   0.1875   0.05
0.0625   0.2125   0.05
0.0625   0.2375   0.05
0.0625   0.2625   0.05
0.0625   0.2875   0.05
0.0625   0.3125   0.05
0.0625   0.3375   0.05
0.0625   0.3625   0.05
0.0625   0.3875   0.05
0.0625   0.4125   0.05
0.0625   0.4375   0.05
0.0625   0.4625   0.05
0.0625   0.4875   0.05
0.0625   0.5125   0.05
0.0625   0.5375   0.05
0.0625   0.5625   0.05
0.0625   0.5875   0.05
0.0625   0.6125   0.05
0.0625   0.6375   0.05
0.0625   0.6625   0.05
0.0625   0.6875   0.05
0.0625   0.7125   0.05
0.0625   0.7375   0.05
0.0625   0.7625   0.05
0.0625   0.7875   0.05
0.0625   0.8125   0.05
0.0625   0.8375   0.05
0.0625   0.8625   0.05
0.0625   0.8875   0.05
0.0625   0.9125   0.05
0.0625   0.9375   0.05
0.0625   0.9625   0.05
0.0625   0.9875   0.05
0.0875   0.0125   0.05
0.0875   0.0375   0.05
0.0875   0.0625   0.05
0.0875   0.0875   0.05
0.0875   0.1125   0.05
0.0875   0.1375   0.05
0.0875   0.1625   0.05
0.0875   0.1875   0.05
0.0875   0.2125   0.05
0.0875   0.2375   0.05
0.0875   0.2625   0.05
0.0875   0.2875   0.05
0.0875   0.3125   0.05
0.0875   0.3375   0.05
0.0875   0.3625   0.05
0.0875   0.3875   0.05
0.0875   0.4125   0.05
0.0875   0.4375   0.05
0.0875   0.4625   0.05
0.0875   0.4875   0.05
0.0875   0.5125   0.05
0.0875   0.5375   0.05
0.0875   0.5625   0.05
0.0875   0.5875   0.05
0.0875   0.6125   0.05
0.0875   0.6375   0.05
0.0875   0.6625   0.05
0.0875   0.6875   0.05
0.0875   0.7125   0.05
0.0875   0.7375   0.05
0.0875   0.7625   0.05
0.0875   0.7875   0.05
0.0875   0.8125   0.05
0.0875   0.8375   0.05
0.0875   0.8625   0.05
0.0875   0.8875   0.05
0.0875   0.9125   0.05
0.0875   0.9375   0.05
0.0875   0.9625   0.05
0.0875   0.9875   0.05
0.1125   0.0125   0.05
0.1125   0.0375   0.05
0.1125   0.0625   0.05
0.1125   0.0875   0.05
0.1125   0.1125   0.05
0.1125   0.1375   0.05
0.1125   0.1625   0.05
0.1125   0.1875   0.05
0.1125   0.2125   0.05
0.1125   0.2375   0.05
0.1125   0.2625   0.05
0.1125   0.2875   0.05
0.1125   0.3125   0.05
0.1125   0.3375   0.05
0.1125   0.3625   0.05
0.1125   0.3875   0.05
0.1125   0.4125   0.05
0.1125   0.4375   0.05
0.1125   0.4625   0.05
0.1125   0.4875   0.05
0.1125   0.5125   0.05
0.1125   0.5375   0.05
0.1125   0.5625   0.05
0.1125   0.5875   0.05
0.1125   0.6125   0.05
0.1125   0.6375   0.05
0.1125   0.6625   0.05
0.1125   0.6875   0.05
0.1125   0.7125   0.05
0.1125   0.7375   0.05
0.1125   0.7625   0.05
0.1125   0.7875   0.05
0.1125   0.8125   0.05
0.1125   0.8375   0.05
0.1125   0.8625   0.05
0.1125   0.8875   0.05
0.1125   0.9125   0.05
0.1125   0.9375   0.05
0.1125   0.9625   0.05
0.1125   0.9875   0.05
0.1375   0.0125   0.05
0.1375   0.0375   0.05
0.1375   0.0625   0.05
0.1375   0.0875   0.05
0.1375   0.1125   0.05
0.1375   0.1375   0.05
0.1375   0.1625   0.05
0.1375   0.1875   0.05
0.1375   0.2125   0.05
0.1375   0.2375   0.05
0.1375   0.2625   0.05
0.1375   0.2875   0.05
0.1375   0.3125   0.05
0.1375   0.3375   0.05
0.1375   0.3625   0.05
0.1375   0.3875   0.05
0.1375   0.4125   0.05
0.1375   0.4375   0.05
0.1375   0.4625   0.05
0.1375   0.4875   0.05
0.1375   0.5125   0.05
0.1375   0.5375   0.05
0.1375   0.5625   0.05
0.1375   0.5875   0.05
0.1375   0.6125   0.05
0.1375   0.6375   0.05
0.1375   0.6625   0.05
0.1375   0.6875   0.05
0.1375   0.7125   0.05
0.1375   0.7375   0.05
0.1375   0.7625   0.05
0.1375   0.7875   0.05
0.1375   0.8125   0.05
0.1375   0.8375   0.05
0.1375   0.8625   0.05
0.1375   0.8875   0.05
0.1375   0.9125   0.05
0.1375   0.9375   0.05
0.1375   0.9625   0.05
0.1375   0.9875   0.05
0.1625   0.0125   0.05
0.1625   0.0375   0.05
0.1625   0.0625   0.05
0.1625   0.0875   0.05
0.1625   0.1125   0.05
0.1625   0.1375   0.05
0.1625   0.1625   0.05
0.1625   0.1875   0.05
0.1625   0.2125   0.05
0.1625   0.2375   0.05
0.1625   0.2625   0.05
0.1625   0.2875   0.05
0.1625   0.3125   0.05
0.1625   0.3375   0.05
0.1625   0.3625   0.05
0.1625   0.3875   0.05
0.1625   0.4125   0.05
0.1625   0.4375   0.05
0.1625   0.4625   0.05
0.1625   0.4875   0.05
0.1625   0.5125   0.05
0.1625   0.5375   0.05
0.1625   0.5625   0.05
0.1625   0.5875   0.05
0.1625   0.6125   0.05
0.1625   0.6375   0.05
0.1625   0.6625   0.05
0.1625   0.6875   0.05
0.1625   0.7125   0.05
0.1625   0.7375   0.05
0.1625   0.7625   0.05
0.1625   0.7875   0.05
0.1625   0.8125   0.05
0.1625   0.8375   0.05
0.1625   0.8625   0.05
0.1625   0.8875   0.05
0.1625   0.9125   0.05
0.1625   0.9375   0.05
0.1625   0.9625   0.05
0.1625   0.9875   0.05
0.1875   0.0125   0.05
0.1875   0.0375   0.05
0.1875   0.0625   0.05
0.1875   0.0875   0.05
0.1875   0.1125   0.05
0.1875   0.1375   0.05
0.1875   0.1625   0.05
0.1875   0.1875   0.05
0.1875   0.2125   0.05
0.1875   0.2375   0.05
0.1875   0.2625   0.05
0.1875   0.2875   0.05
0.1875   0.3125   0.05
0.1875   0.3375   0.05
0.1875   0.3625   0.05
0.1875   0.3875   0.05
0.1875   0.4125   0.05
0.1875   0.4375   0.05
0.1875   0.4625   0.05
0.1875   0.4875   0.05
0.1875   0.5125   0.05
0.1875   0.5375   0.05
0.1875   0.5625   0.05
0.1875   0.5875   0.05
0.1875   0.6125   0.05
0.1875   0.6375   0.05
0.1875   0.6625   0.05
0.1875   0.6875   0.05
0.1875   0.7125   0.05
0.1875   0.7375   0.05
0.1875   0.7625   0.05
0.1875   0.7875   0.05
0.1875   0.8125   0.05
0.1875   0.8375   0.05
0.1875   0.8625   0.05
0.1875   0.8875   0.05
0.1875   0.9125   0.05
0.1875   0.9375   0.05
0.1875   0.9625   0.05
0.1875   0.9875   0.05
0.2125   0.0125   0.05
0.2125   0.0375   0.05
0.2125   0.0625   0.05
0.2125   0.0875   0.05
0.2125   0.1125   0.05
0.2125   0.1375   0.05
0.2125   0.1625   0.05
0.2125   0.1875   0.05
0.2125   0.2125   0.05
0.2125   0.2375   0.05
0.2125   0.2625   0.05
0.2125   0.2875   0.05
0.2125   0.3125   0.05
0.2125   0.3375   0.05
0.2125   0.3625   0.05
0.2125   0.3875   0.05
0.2125   0.4125   0.05
0.2125   0.4375   0.05
0.2125   0.4625   0.05
0.2125   0.4875   0.05
0.2125   0.5125   0.05
0.2125   0.5375   0.05
0.2125   0.5625   0.05
0.2125   0.5875   0.05
0.2125   0.6125   0.05
0.2125   0.6375   0.05
0.2125   0.6625   0.05
0.2125   0.6875   0.05
0.2125   0.7125   0.05
0.2125   0.7375   0.05
0.2125   0.7625   0.05
0.2125   0.7875   0.05
0.2125   0.8125   0.05
0.2125   0.8375   0.05
0.2125   0.8625   0.05
0.2125   0.8875   0.05
0.2125   0.9125   0.05
0.2125   0.9375   0.05
0.2125   0.9625   0.05
0.2125   0.9875   0.05
0.2375   0.0125   0.05
0.2375   0.0375   0.05
0.2375   0.0625   0.05
0.2375   0.0875   0.05
0.2375   0.1125   0.05
0.2375   0.1375   0.05
0.2375   0.1625   0.05
0.2375   0.1875   0.05
0.2375   0.2125   0.05
0.2375   0.2375   0.05
0.2375   0.2625   0.05
0.2375   0.2875   0.05
0.2375   0.3125   0.05
0.2375   0.3375   0.05
0.2375   0.3625   0.05
0.2375   0.3875   0.05
0.2375   0.4125   0.05
0.2375   0.4375   0.05
0.2375   0.4625   0.05
0.2375   0.4875   0.05
0.2375   0.5125   0.05
0.2375   0.5375   0.05
0.2375   0.5625   0.05
0.2375   0.5875   0.05
0.2375   0.6125   0.05
0.2375   0.6375   0.05
0.2375   0.6625   0.05
0.2375   0.6875   0.05
0.2375   0.7125   0.05
0.2375   0.7375   0.05
0.2375   0.7625   0.05
0.2375   0.7875   0.05
0.2375   0.8125   0.05
0.2375   0.8375   0.05
0.2375   0.8625   0.05
0.2375   0.8875   0.05
0.2375   0.9125   0.05
0.2375   0.9375   0.05
0.2375   0.9625   0.05
0.2375   0.9875   0.05
0.2625   0.0125   0.05
0.2625   0.0375   0.05
0.2625   0.0625   0.05
0.2625   0.0875   0.05
0.2625   0.1125   0.05
0.2625   0.1375   0.05
0.2625   0.1625   0.05
0.2625   0.1875   0.05
0.2625   0.2125   0.05
0.2625   0.2375   0.05
0.2625   0.2625   0.05
0.2625   0.2875   0.05
0.2625   0.3125   0.05
0.2625   0.3375   0.05
0.2625   0.3625   0.05
0.2625   0.3875   0.05
0.2625   0.4125   0.05
0.2625   0.4375   0.05
0.2625   0.4625   0.05
0.2625   0.4875   0.05
0.2625   0.5125   0.05
0.2625   0.5375   0.05
0.2625   0.5625   0.05
0.2625   0.5875   0.05
0.2625   0.6125   0.05
0.2625   0.6375   0.05
0.2625   0.6625   0.05
0.2625   0.6875   0.05
0.2625   0.7125   0.05
[...]
POINT_DATA   16000
VECTORS Velocidades double

0 0.321027 0
0 0.733492 0
0 0.857794 0
0 0.905664 0
0 0.928953 0
0 0.942426 0
0 0.951144 0
0 0.957196 0
0 0.961595 0
0 0.964891 0
0 0.967411 0
0 0.969359 0
0 0.970871 0
0 0.97204 0
0 0.972928 0
0 0.973581 0
0 0.974031 0
0 0.9743 0
0 0.974402 0
0 0.974346 0
0 0.974134 0
0 0.973764 0
0 0.973229 0
0 0.972516 0
0 0.971607 0
0 0.970472 0
0 0.969076 0
0 0.967364 0
0 0.965266 0
0 0.962677 0
0 0.959452 0
0 0.955367 0
0 0.950075 0
0 0.942993 0
0 0.933059 0
0 0.918091 0
0 0.892851 0
0 0.842314 0
0 0.715275 0
0 0.311324 0
0 0.187119 0
0 0.481192 0
0 0.647113 0
0 0.740363 0
0 0.796037 0
0 0.831659 0
0 0.855857 0
0 0.873082 0
0 0.885777 0
0 0.895372 0
0 0.902747 0
0 0.908473 0
0 0.912929 0
0 0.916378 0
0 0.919004 0
0 0.920937 0
0 0.92227 0
0 0.923066 0
0 0.923368 0
0 0.923199 0
0 0.922569 0
0 0.921471 0
0 0.919884 0
0 0.917771 0
0 0.915075 0
0 0.911718 0
0 0.90759 0
0 0.902542 0
0 0.896366 0
0 0.888774 0
0 0.879355 0
0 0.867503 0
0 0.852294 0
0 0.832255 0
0 0.804905 0
0 0.765818 0
0 0.706615 0
0 0.610851 0
0 0.447272 0
0 0.171723 0
0 0.12702 0
0 0.347385 0
0 0.504014 0
0 0.609824 0
0 0.681517 0
0 0.731284 0
0 0.766872 0
0 0.793043 0
0 0.812744 0
0 0.827847 0
0 0.839571 0
0 0.848737 0
0 0.855908 0
0 0.861479 0
0 0.865731 0
0 0.868868 0
0 0.871032 0
0 0.872325 0
0 0.872813 0
0 0.872535 0
0 0.871503 0
0 0.86971 0
0 0.867121 0
0 0.863679 0
0 0.859295 0
0 0.853848 0
0 0.847168 0
0 0.839027 0
0 0.829113 0
0 0.817001 0
0 0.802095 0
0 0.783548 0
0 0.760123 0
0 0.729972 0
0 0.690256 0
0 0.636546 0
0 0.561947 0
0 0.456299 0
0 0.307334 0
0 0.110224 0
0 0.0951484 0
0 0.268418 0
0 0.406128 0
0 0.509881 0
0 0.586669 0
0 0.643608 0
0 0.686304 0
0 0.718777 0
0 0.743817 0
0 0.763345 0
0 0.778696 0
0 0.790808 0
0 0.800349 0
0 0.807799 0
0 0.813507 0
0 0.817728 0
0 0.820645 0
0 0.822387 0
0 0.823041 0
0 0.822656 0
0 0.821251 0
0 0.818814 0
0 0.815303 0
0 0.810644 0
0 0.804725 0
0 0.797392 0
0 0.788435 0
0 0.777571 0
0 0.764427 0
0 0.748497 0
0 0.7291 0
0 0.705306 0
0 0.675828 0
0 0.638873 0
0 0.591952 0
0 0.531663 0
0 0.453626 0
0 0.353005 0
0 0.226663 0
0 0.0784402 0
0 0.0758175 0
0 0.217357 0
0 0.336855 0
0 0.433243 0
0 0.509163 0
0 0.568442 0
0 0.614743 0
0 0.65108 0
0 0.679774 0
0 0.702561 0
0 0.720722 0
0 0.735202 0
0 0.746699 0
0 0.75573 0
0 0.762681 0
0 0.767837 0
0 0.771406 0
0 0.773536 0
0 0.774329 0
0 0.773843 0
0 0.7721 0
0 0.769086 0
0 0.764756 0
0 0.759023 0
0 0.751764 0
0 0.742803 0
0 0.731909 0
0 0.718775 0
0 0.703001 0
0 0.684066 0
0 0.661288 0
0 0.633779 0
0 0.60038 0
0 0.559599 0
0 0.509562 0
0 0.448047 0
0 0.372731 0
0 0.281909 0
0 0.175989 0
0 0.05975 0
0 0.062859 0
0 0.181818 0
0 0.285853 0
0 0.373558 0
0 0.445761 0
0 0.504427 0
0 0.551818 0
0 0.590053 0
0 0.620922 0
0 0.645871 0
0 0.666033 0
0 0.682283 0
0 0.695296 0
0 0.705584 0
0 0.713542 0
0 0.719464 0
0 0.723571 0
0 0.726021 0
0 0.726924 0
0 0.726343 0
0 0.724303 0
0 0.720792 0
0 0.715761 0
0 0.70912 0
0 0.70074 0
0 0.69044 0
0 0.677984 0
0 0.663066 0
0 0.645295 0
0 0.624178 0
0 0.599096 0
0 0.569278 0
0 0.533784 0
0 0.491494 0
0 0.441154 0
0 0.381498 0
0 0.311544 0
0 0.231151 0
0 0.141837 0
0 0.0476375 0
0 0.0535169 0
0 0.155615 0
0 0.246876 0
0 0.326118 0
0 0.393457 0
0 0.449861 0
0 0.496689 0
0 0.535369 0
0 0.567221 0
0 0.593388 0
0 0.614816 0
0 0.632273 0
0 0.646371 0
0 0.657592 0
0 0.666315 0
0 0.672829 0
0 0.677355 0
0 0.680054 0
0 0.681036 0
0 0.680368 0
0 0.678077 0
0 0.674154 0
0 0.668548 0
0 0.661175 0
0 0.651904 0
0 0.640564 0
0 0.626926 0
0 0.610705 0
0 0.591546 0
0 0.569012 0
0 0.54258 0
0 0.511632 0
0 0.475461 0
0 0.433304 0
0 0.384406 0
0 0.328169 0
0 0.264385 0
0 0.193594 0
0 0.117492 0
0 0.0392051 0
0 0.0464138 0
0 0.135412 0
0 0.216107 0
0 0.287613 0
0 0.349799 0
0 0.403116 0
0 0.448363 0
0 0.486482 0
0 0.518416 0
0 0.545038 0
0 0.567107 0
0 0.58527 0
0 0.600059 0
0 0.611908 0
0 0.621164 0
0 0.6281 0
0 0.632928 0
0 0.635803 0
0 0.636834 0
0 0.636089 0
0 0.633595 0
0 0.629346 0
0 0.623296 0
0 0.615365 0
0 0.605433 0
0 0.593342 0
0 0.578886 0
0 0.561811 0
0 0.541811 0
0 0.518524 0
0 0.491534 0
0 0.460375 0
0 0.424557 0
0 0.383604 0
0 0.337131 0
0 0.28496 0
0 0.22729 0
0 0.164901 0
0 0.0993474 0
0 0.033013 0
0 0.0407939 0
0 0.119281 0
0 0.191143 0
0 0.255746 0
0 0.312897 0
0 0.362785 0
0 0.405872 0
0 0.442769 0
0 0.474139 0
0 0.500628 0
0 0.522833 0
0 0.541279 0
0 0.556414 0
0 0.568616 0
0 0.578193 0
0 0.585394 0
0 0.590413 0
0 0.593397 0
0 0.59445 0
0 0.593638 0
0 0.590989 0
0 0.586499 0
0 0.580129 0
0 0.571809 0
0 0.561433 0
0 0.54886 0
0 0.533915 0
0 0.516383 0
0 0.496013 0
0 0.47252 0
0 0.445591 0
0 0.414901 0
0 0.380136 0
0 0.341039 0
0 0.297472 0
0 0.249506 0
0 0.19753 0
0 0.142363 0
0 0.085335 0
0 0.0282776 0
0 0.0362103 0
0 0.106043 0
0 0.170424 0
0 0.228912 0
0 0.281321 0
0 0.327711 0
0 0.368345 0
0 0.403614 0
0 0.433975 0
0 0.459901 0
0 0.481848 0
0 0.500233 0
0 0.515426 0
0 0.527745 0
0 0.537457 0
0 0.544781 0
0 0.549893 0
0 0.552926 0
0 0.553977 0
0 0.553109 0
0 0.55035 0
0 0.545699 0
0 0.539127 0
0 0.530573 0
0 0.519948 0
0 0.507134 0
0 0.491987 0
0 0.474335 0
0 0.453981 0
0 0.430714 0
0 0.404312 0
0 0.374565 0
0 0.341299 0
0 0.304412 0
0 0.263923 0
0 0.220039 0
0 0.17322 0
0 0.124235 0
0 0.0741993 0
0 0.0245395 0
0 0.0323822 0
0 0.0949388 0
0 0.152902 0
0 0.205973 0
0 0.253995 0
0 0.296969 0
0 0.335037 0
0 0.368447 0
0 0.397511 0
0 0.422569 0
0 0.443964 0
0 0.462022 0
0 0.477039 0
0 0.489279 0
0 0.498968 0
0 0.506295 0
0 0.511414 0
0 0.514443 0
0 0.515472 0
0 0.514559 0
0 0.511732 0
0 0.506996 0
0 0.500326 0
0 0.491675 0
0 0.480973 0
0 0.468126 0
0 0.453019 0
0 0.435521 0
0 0.415489 0
0 0.392772 0
0 0.36723 0
0 0.338743 0
0 0.307237 0
0 0.272715 0
0 0.235294 0
0 0.195245 0
0 0.153035 0
0 0.109359 0
0 0.0651402 0
0 0.0215129 0
0 0.0291242 0
0 0.0854581 0
0 0.137852 0
0 0.18611 0
0 0.230107 0
0 0.26982 0
0 0.305321 0
0 0.336762 0
0 0.364355 0
0 0.388341 0
0 0.408973 0
0 0.426502 0
0 0.441162 0
0 0.453167 0
0 0.462704 0
0 0.469933 0
0 0.474987 0
0 0.47797 0
0 0.478961 0
0 0.478014 0
0 0.475158 0
0 0.4704 0
0 0.463725 0
0 0.455098 0
0 0.444465 0
0 0.431755 0
0 0.416885 0
0 0.399759 0
0 0.38028 0
0 0.358351 0
0 0.333894 0
0 0.306858 0
0 0.277242 0
0 0.245117 0
0 0.210651 0
0 0.174142 0
0 0.136035 0
0 0.0969388 0
0 0.0576266 0
0 0.0190114 0
0 0.0263091 0
0 0.0772468 0
0 0.124758 0
0 0.16872 0
0 0.209038 0
0 0.24568 0
0 0.278677 0
0 0.308121 0
0 0.334152 0
0 0.356938 0
0 0.376663 0
0 0.393518 0
0 0.407684 0
0 0.419333 0
0 0.428615 0
0 0.435666 0
0 0.440597 0
0 0.443498 0
0 0.44444 0
0 0.443471 0
0 0.440619 0
0 0.435897 0
0 0.429295 0
0 0.420791 0
0 0.410347 0
0 0.397914 0
0 0.383435 0
0 0.366847 0
0 0.348089 0
0 0.327111 0
0 0.303881 0
0 0.2784 0
0 0.250715 0
0 0.220938 0
0 0.189266 0
0 0.155995 0
0 0.121535 0
0 0.0864182 0
0 0.0512934 0
0 0.0169084 0
0 0.0238466 0
0 0.0700507 0
0 0.113243 0
0 0.153352 0
0 0.190309 0
0 0.224081 0
0 0.254677 0
0 0.282147 0
0 0.306582 0
0 0.328097 0
0 0.346825 0
0 0.362906 0
0 0.376481 0
0 0.387682 0
0 0.396633 0
0 0.403444 0
0 0.408207 0
0 0.411 0
0 0.411884 0
0 0.410903 0
0 0.408085 0
0 0.403445 0
0 0.396981 0
0 0.388682 0
0 0.378523 0
0 0.366476 0
0 0.352505 0
0 0.336574 0
0 0.318656 0
0 0.298733 0
0 0.27681 0
0 0.252922 0
0 0.227151 0
0 0.19963 0
0 0.170566 0
0 0.140241 0
0 0.10903 0
0 0.0773944 0
0 0.045882 0
0 0.0151151 0
0 0.0216705 0
0 0.0636826 0
0 0.103025 0
0 0.139663 0
0 0.173548 0
0 0.204651 0
0 0.232965 0
0 0.258518 0
0 0.281364 0
0 0.301579 0
0 0.319258 0
0 0.334503 0
0 0.34742 0
0 0.358111 0
0 0.366674 0
0 0.373198 0
0 0.37776 0
0 0.380426 0
0 0.381247 0
0 0.380264 0
0 0.377505 0
0 0.372986 0
0 0.366712 0
0 0.358681 0
0 0.348882 0
0 0.337302 0
0 0.323923 0
0 0.308734 0
0 0.29173 0
0 0.272921 0
0 0.252338 0
0 0.23004 0
0 0.206127 0
0 0.180745 0
0 0.154098 0
0 0.126452 0
0 0.0981423 0
0 0.0695707 0
0 0.0412046 0
0 0.0135675 0
0 0.0197312 0
0 0.0580012 0
0 0.0938897 0
0 0.127386 0
0 0.158461 0
0 0.187085 0
0 0.213249 0
0 0.23696 0
0 0.258249 0
0 0.277167 0
0 0.293776 0
0 0.308151 0
0 0.320368 0
0 0.330508 0
0 0.338645 0
0 0.344851 0
0 0.349189 0
0 0.351713 0
0 0.352469 0
0 0.351494 0
0 0.348813 0
0 0.344446 0
0 0.338403 0
0 0.330689 0
0 0.321304 0
0 0.310248 0
0 0.29752 0
0 0.283126 0
0 0.267079 0
0 0.249409 0
0 0.230165 0
0 0.209422 0
0 0.18729 0
0 0.163919 0
0 0.139504 0
0 0.114292 0
0 0.0885818 0
0 0.0627245 0
0 0.0371214 0
0 0.0122183 0
0 0.0179907 0
0 0.0528977 0
0 0.0856693 0
0 0.116313 0
0 0.14481 0
0 0.171137 0
0 0.19528 0
0 0.217237 0
0 0.237022 0
0 0.254664 0
0 0.270206 0
0 0.283697 0
0 0.295195 0
0 0.304758 0
0 0.312446 0
0 0.318313 0
0 0.322412 0
0 0.324787 0
0 0.325478 0
0 0.324518 0
0 0.321932 0
0 0.31774 0
0 0.311957 0
0 0.304596 0
0 0.295664 0
0 0.285171 0
0 0.273131 0
0 0.25956 0
0 0.244488 0
0 0.227957 0
0 0.210028 0
0 0.190786 0
0 0.170346 0
0 0.148854 0
0 0.126496 0
0 0.103498 0
0 0.0801245 0
0 0.0566852 0
0 0.0335265 0
0 0.0110315 0
0 0.0164192 0
0 0.0482867 0
0 0.0782319 0
0 0.106274 0
0 0.132404 0
0 0.156603 0
0 0.178854 0
0 0.199149 0
0 0.217491 0
0 0.233895 0
0 0.248386 0
0 0.260998 0
0 0.271771 0
0 0.280748 0
0 0.287974 0
0 0.293492 0
0 0.297344 0
0 0.299566 0
0 0.300193 0
0 0.299255 0
0 0.296776 0
0 0.292777 0
0 0.287276 0
0 0.280291 0
0 0.271836 0
0 0.26193 0
0 0.250595 0
0 0.237858 0
0 0.223759 0
0 0.208349 0
0 0.191696 0
0 0.17389 0
0 0.155046 0
0 0.135306 0
0 0.114841 0
0 0.093858 0
0 0.072594 0
0 0.0513199 0
0 0.0303379 0
0 0.00997973 0
0 0.0149931 0
0 0.0440999 0
0 0.071471 0
0 0.0971338 0
0 0.121086 0
0 0.143312 0
0 0.163794 0
0 0.182521 0
0 0.199488 0
0 0.2147 0
0 0.228169 0
0 0.239918 0
0 0.249973 0
0 0.258364 0
0 0.265126 0
0 0.270291 0
0 0.273893 0
0 0.275962 0
0 0.276528 0
0 0.275618 0
0 0.273254 0
0 0.26946 0
0 0.264255 0
0 0.257661 0
0 0.249697 0
0 0.240388 0
0 0.229763 0
0 0.217857 0
0 0.204715 0
0 0.190395 0
0 0.174968 0
0 0.158527 0
0 0.141183 0
0 0.12307 0
0 0.104348 0
0 0.0852041 0
0 0.0658497 0
0 0.0465239 0
0 0.0274912 0
0 0.00904139 0
0 0.0136932 0
0 0.0402817 0
0 0.0652998 0
0 0.0887798 0
0 0.110724 0
0 0.13112 0
0 0.149951 0
0 0.167203 0
0 0.182865 0
0 0.196936 0
0 0.209421 0
0 0.22033 0
0 0.229681 0
0 0.237496 0
0 0.243798 0
0 0.248613 0
0 0.251966 0
0 0.253885 0
0 0.254393 0
0 0.253515 0
0 0.251274 0
0 0.247692 0
0 0.242791 0
0 0.236594 0
0 0.229125 0
0 0.220414 0
0 0.210494 0
0 0.199404 0
0 0.187194 0
0 0.173925 0
0 0.15967 0
0 0.144519 0
0 0.128579 0
0 0.111978 0
0 0.0948611 0
0 0.0773979 0
0 0.059778 0
0 0.0422129 0
0 0.0249352 0
0 0.00819932 0
0 0.0125037 0
0 0.0367863 0
0 0.0596462 0
0 0.0811181 0
0 0.101208 0
0 0.119905 0
0 0.137195 0
0 0.153061 0
0 0.16749 0
0 0.180476 0
0 0.192016 0
0 0.202116 0
0 0.210785 0
0 0.218037 0
0 0.223888 0
0 0.228359 0
0 0.23147 0
0 0.233241 0
0 0.233696 0
0 0.232855 0
0 0.23074 0
0 0.227373 0
0 0.222778 0
0 0.21698 0
0 0.210005 0
0 0.201884 0
0 0.192655 0
0 0.18236 0
0 0.17105 0
0 0.158787 0
0 0.145645 0
0 0.13171 0
0 0.117085 0
0 0.101886 0
0 0.0862486 0
0 0.0703254 0
0 0.0542862 0
0 0.0383187 0
0 0.0226284 0
0 0.00743969 0
0 0.0114113 0
0 0.0335754 0
0 0.0544495 0
0 0.0740694 0
0 0.0924431 0
0 0.109563 0
0 0.125414 0
0 0.139979 0
0 0.153245 0
0 0.165201 0
0 0.175841 0
0 0.185165 0
0 0.193176 0
0 0.199883 0
0 0.205298 0
0 0.209435 0
0 0.21231 0
0 0.21394 0
0 0.214344 0
0 0.213543 0
0 0.211557 0
0 0.208407 0
0 0.204117 0
0 0.198713 0
0 0.192223 0
0 0.184681 0
0 0.176124 0
0 0.166597 0
0 0.156151 0
0 0.144848 0
0 0.13276 0
0 0.119968 0
0 0.10657 0
0 0.0926727 0
0 0.078401 0
0 0.0638918 0
0 0.0492975 0
0 0.0347851 0
0 0.0205367 0
0 0.00675117 0
0 0.0104049 0
0 0.0306166 0
0 0.0496583 0
0 0.067566 0
0 0.0843489 0
0 0.100001 0
0 0.114508 0
0 0.127855 0
0 0.140025 0
0 0.151006 0
0 0.16079 0
0 0.169373 0
0 0.176754 0
0 0.182938 0
0 0.187932 0
0 0.191746 0
0 0.194393 0
0 0.195888 0
0 0.196248 0
0 0.195488 0
0 0.193631 0
0 0.190696 0
0 0.186707 0
0 0.18169 0
0 0.175674 0
0 0.168694 0
0 0.160787 0
0 0.151998 0
0 0.142378 0
0 0.131987 0
0 0.120893 0
0 0.109175 0
0 0.0969225 0
0 0.084235 0
0 0.0712252 0
0 0.0580173 0
0 0.0447477 0
0 0.0315653 0
0 0.018632 0
0 0.00612439 0
0 0.00947494 0
0 0.0278818 0
0 0.0452281 0
0 0.0615489 0
0 0.0768541 0
0 0.0911391 0
0 0.104391 0
0 0.116594 0
0 0.127733 0
0 0.137794 0
0 0.146766 0
0 0.154644 0
0 0.161423 0
0 0.167106 0
0 0.171697 0
0 0.175202 0
0 0.177632 0
0 0.178998 0
0 0.179316 0
0 0.1786 0
0 0.176871 0
0 0.174147 0
0 0.170453 0
0 0.165813 0
0 0.160258 0
0 0.15382 0
0 0.146538 0
0 0.138456 0
0 0.129622 0
0 0.120095 0
0 0.10994 0
0 0.0992291 0
0 0.0880462 0
0 0.0764831 0
0 0.0646417 0
0 0.0526341 0
0 0.0405825 0
0 0.0286199 0
0 0.0168906 0
0 0.0055515 0
0 0.00861308 0
0 0.0253469 0
0 0.0411203 0
0 0.0559667 0
0 0.0698967 0
0 0.0829064 0
0 0.0949842 0
0 0.106115 0
0 0.116283 0
0 0.125475 0
0 0.133679 0
0 0.140887 0
0 0.147094 0
0 0.152299 0
0 0.156504 0
0 0.159714 0
0 0.161936 0
0 0.163181 0
0 0.163461 0
0 0.162791 0
0 0.161188 0
0 0.158671 0
0 0.155264 0
0 0.15099 0
0 0.145879 0
0 0.139963 0
0 0.13328 0
0 0.125871 0
0 0.117785 0
0 0.109076 0
0 0.0998043 0
0 0.0900388 0
0 0.0798557 0
0 0.0693391 0
0 0.0585815 0
0 0.0476838 0
0 0.0367556 0
0 0.0259156 0
0 0.0152924 0
0 0.00502583 0
0 0.00781205 0
0 0.0229906 0
0 0.0373006 0
0 0.0507741 0
0 0.0634213 0
0 0.0752393 0
0 0.0862174 0
0 0.0963415 0
0 0.105596 0
0 0.113968 0
0 0.121446 0
0 0.128019 0
0 0.133682 0
0 0.138432 0
0 0.14227 0
0 0.145199 0
0 0.147224 0
0 0.148354 0
0 0.1486 0
0 0.147975 0
0 0.146496 0
0 0.144181 0
0 0.141051 0
0 0.137131 0
0 0.132447 0
0 0.127032 0
0 0.120921 0
0 0.114155 0
0 0.106778 0
0 0.0988411 0
0 0.0904021 0
0 0.0815237 0
0 0.0722758 0
0 0.0627349 0
0 0.0529848 0
0 0.043116 0
0 0.0332269 0
0 0.0234234 0
0 0.01382 0
0 0.00454168 0
0 0.00706538 0
0 0.0207939 0
0 0.0337389 0
0 0.0459304 0
0 0.0573784 0
0 0.0680805 0
0 0.0780271 0
0 0.0872049 0
0 0.0955997 0
0 0.103198 0
0 0.109987 0
0 0.115959 0
0 0.121106 0
0 0.125424 0
0 0.128913 0
0 0.131574 0
0 0.133412 0
0 0.134434 0
0 0.134649 0
0 0.134071 0
0 0.132713 0
0 0.130593 0
0 0.127731 0
0 0.124151 0
0 0.119878 0
0 0.114942 0
0 0.109377 0
0 0.103221 0
0 0.0965167 0
0 0.089311 0
0 0.0816567 0
0 0.0736117 0
0 0.0652398 0
0 0.0566104 0
0 0.0477989 0
0 0.0388867 0
0 0.0299617 0
0 0.0211183 0
0 0.0124587 0
0 0.00409409 0
0 0.00636728 0
0 0.0187399 0
0 0.0304079 0
0 0.0413992 0
0 0.0517232 0
0 0.0613781 0
0 0.0703552 0
0 0.0786422 0
0 0.0862258 0
0 0.0930929 0
0 0.099232 0
0 0.104633 0
0 0.10929 0
0 0.113198 0
0 0.116355 0
0 0.118762 0
0 0.120423 0
0 0.121343 0
0 0.121531 0
0 0.120999 0
0 0.119759 0
0 0.117828 0
0 0.115225 0
0 0.111971 0
0 0.108091 0
0 0.103613 0
0 0.0985692 0
0 0.0929941 0
0 0.0869274 0
0 0.0804128 0
0 0.0734987 0
0 0.0662378 0
0 0.058688 0
0 0.0509119 0
0 0.0429772 0
0 0.0349569 0
0 0.0269293 0
0 0.0189785 0
0 0.0111954 0
0 0.00367877 0
0 0.00571252 0
0 0.0168132 0
0 0.0272829 0
0 0.0371472 0
0 0.0464149 0
0 0.0550846 0
0 0.0631484 0
0 0.0705952 0
0 0.0774125 0
0 0.0835881 0
0 0.089111 0
0 0.0939718 0
0 0.0981635 0
0 0.101681 0
0 0.104523 0
0 0.106689 0
0 0.108181 0
0 0.109006 0
0 0.109169 0
0 0.108683 0
0 0.107558 0
0 0.105809 0
0 0.103455 0
0 0.100515 0
0 0.0970114 0
0 0.0929715 0
0 0.0884239 0
0 0.0834013 0
0 0.07794 0
0 0.07208 0
0 0.0658651 0
0 0.0593432 0
0 0.0525666 0
0 0.0455914 0
0 0.0384782 0
0 0.031292 0
0 0.0241025 0
0 0.0169844 0
0 0.0100183 0
0 0.00329187 0
0 0.00509633 0
0 0.0149999 0
0 0.0243414 0
0 0.033144 0
0 0.041416 0
0 0.0491562 0
0 0.0563575 0
0 0.0630098 0
0 0.0691018 0
0 0.074622 0
0 0.0795603 0
0 0.0839076 0
0 0.0876572 0
0 0.0908042 0
0 0.093346 0
0 0.0952825 0
0 0.0966157 0
0 0.0973499 0
0 0.0974918 0
0 0.0970503 0
0 0.0960366 0
0 0.0944642 0
0 0.0923492 0
0 0.08971 0
0 0.0865678 0
0 0.0829464 0
0 0.0788726 0
0 0.0743762 0
0 0.0694902 0
0 0.0642509 0
0 0.0586979 0
0 0.0528743 0
0 0.0468267 0
0 0.0406054 0
0 0.0342643 0
0 0.027861 0
0 0.0214571 0
0 0.0151189 0
0 0.00891736 0
0 0.00293002 0
0 0.00451433 0
0 0.0132871 0
0 0.0215627 0
0 0.0293618 0
0 0.036692 0
0 0.0435523 0
0 0.0499366 0
0 0.0558356 0
0 0.0612392 0
0 0.066137 0
0 0.0705193 0
0 0.0743781 0
0 0.0777066 0
0 0.0805004 0
0 0.0827567 0
0 0.084475 0
0 0.0856569 0
0 0.086306 0
0 0.0864282 0
0 0.0860314 0
0 0.0851257 0
0 0.0837233 0
0 0.0818387 0
0 0.0794887 0
0 0.0766925 0
0 0.0734717 0
0 0.0698506 0
0 0.0658562 0
0 0.061518 0
0 0.0568688 0
0 0.0519438 0
0 0.0467816 0
0 0.0414237 0
0 0.0359144 0
0 0.0303014 0
0 0.0246356 0
0 0.0189712 0
0 0.0133662 0
0 0.00788317 0
0 0.00259014 0
0 0.00396246 0
0 0.011663 0
0 0.0189274 0
0 0.0257743 0
0 0.0322105 0
0 0.0382351 0
0 0.0438428 0
0 0.0490253 0
0 0.0537736 0
0 0.0580782 0
0 0.0619307 0
0 0.0653233 0
0 0.0682501 0
0 0.0707067 0
0 0.0726904 0
0 0.0742007 0
0 0.0752385 0
0 0.0758072 0
0 0.0759116 0
0 0.0755589 0
0 0.074758 0
0 0.0735197 0
0 0.0718572 0
0 0.0697853 0
0 0.0673214 0
0 0.0644848 0
0 0.0612972 0
0 0.0577826 0
0 0.0539674 0
0 0.0498806 0
0 0.0455534 0
0 0.0410199 0
0 0.0363164 0
0 0.0314821 0
0 0.0265586 0
0 0.0215903 0
0 0.0166246 0
0 0.0117121 0
0 0.00690733 0
0 0.00226946 0
0 0.00343692 0
0 0.0101162 0
0 0.0164176 0
0 0.0223573 0
0 0.0279413 0
0 0.033169 0
0 0.0380357 0
0 0.0425341 0
0 0.0466563 0
0 0.0503941 0
0 0.0537397 0
0 0.0566863 0
0 0.0592285 0
0 0.0613623 0
0 0.0630852 0
0 0.0643964 0
0 0.0652968 0
0 0.065789 0
0 0.0658775 0
0 0.0655682 0
0 0.064869 0
0 0.0637896 0
0 0.0623414 0
0 0.0605377 0
0 0.0583936 0
0 0.0559262 0
0 0.0531547 0
0 0.0501002 0
0 0.0467857 0
0 0.0432367 0
0 0.0394805 0
0 0.0355467 0
0 0.0314669 0
0 0.027275 0
0 0.0230071 0
0 0.0187015 0
0 0.0143992 0
0 0.0101437 0
0 0.00598211 0
0 0.00196543 0
0 0.00293415 0
0 0.00863644 0
0 0.0140163 0
0 0.0190878 0
0 0.023856 0
0 0.0283204 0
0 0.032477 0
0 0.0363196 0
0 0.0398414 0
0 0.0430351 0
0 0.0458941 0
0 0.0484124 0
0 0.0505852 0
0 0.0524088 0
0 0.0538811 0
0 0.0550013 0
0 0.0557701 0
0 0.0561895 0
0 0.0562634 0
0 0.0559969 0
0 0.0553968 0
0 0.0544714 0
0 0.0532306 0
0 0.051686 0
0 0.0498506 0
0 0.0477393 0
0 0.0453685 0
0 0.0427565 0
0 0.0399233 0
0 0.0368905 0
0 0.0336818 0
0 0.0303224 0
0 0.0268394 0
0 0.0232617 0
0 0.0196201 0
0 0.0159472 0
0 0.0122778 0
0 0.00864887 0
0 0.00510038 0
0 0.00167571 0
0 0.00245077 0
0 0.0072137 0
0 0.0117075 0
0 0.0159439 0
0 0.0199272 0
0 0.0236571 0
0 0.0271302 0
0 0.0303413 0
0 0.0332846 0
0 0.035954 0
0 0.0383439 0
0 0.0404491 0
0 0.0422655 0
0 0.0437901 0
0 0.0450208 0
0 0.0459569 0
0 0.0465989 0
0 0.0469487 0
0 0.0470092 0
0 0.0467849 0
0 0.0462814 0
0 0.0455058 0
0 0.0444664 0
0 0.0431729 0
0 0.0416365 0
0 0.0398696 0
0 0.0378862 0
0 0.0357016 0
0 0.0333327 0
0 0.0307977 0
0 0.0281163 0
0 0.0253097 0
0 0.0224006 0
0 0.0194131 0
0 0.0163728 0
0 0.013307 0
0 0.0102445 0
0 0.00721632 0
0 0.00425548 0
0 0.0013981 0
0 0.00198355 0
0 0.0058385 0
0 0.00947571 0
0 0.0129047 0
0 0.0161291 0
0 0.0191485 0
0 0.0219603 0
0 0.0245602 0
0 0.0269435 0
0 0.0291052 0
0 0.0310406 0
0 0.0327456 0
0 0.0342167 0
0 0.0354515 0
0 0.0364481 0
0 0.0372061 0
0 0.0377256 0
0 0.0380083 0
0 0.0380565 0
0 0.0378737 0
0 0.0374648 0
0 0.0368352 0
0 0.035992 0
0 0.034943 0
0 0.0336973 0
0 0.0322651 0
0 0.0306577 0
0 0.0288878 0
0 0.0269689 0
0 0.0249159 0
0 0.0227449 0
0 0.020473 0
0 0.0181186 0
0 0.0157011 0
0 0.0132415 0
0 0.0107615 0
0 0.00828452 0
0 0.00583549 0
0 0.00344113 0
0 0.00113054 0
0 0.0015294 0
0 0.00450173 0
0 0.00730624 0
0 0.00995029 0
0 0.0124367 0
0 0.0147651 0
0 0.0169336 0
0 0.0189388 0
0 0.020777 0
0 0.0224444 0
0 0.0239374 0
0 0.0252527 0
0 0.0263876 0
0 0.0273401 0
0 0.0281089 0
0 0.0286934 0
0 0.029094 0
0 0.0293116 0
0 0.0293483 0
0 0.0292067 0
0 0.0288904 0
0 0.028404 0
0 0.0277526 0
0 0.0269425 0
0 0.0259807 0
0 0.0248751 0
0 0.0236346 0
0 0.0222688 0
0 0.0207883 0
0 0.0192047 0
0 0.0175303 0
0 0.0157783 0
0 0.0139631 0
0 0.0120995 0
0 0.0102036 0
0 0.00829224 0
0 0.00638343 0
0 0.00449628 0
0 0.00265137 0
0 0.00087107 0
0 0.0010853 0
0 0.00319456 0
0 0.00518476 0
0 0.00706113 0
0 0.00882566 0
0 0.0104782 0
0 0.0120172 0
0 0.0134405 0
0 0.0147452 0
0 0.0159288 0
0 0.0169886 0
0 0.0179223 0
0 0.018728 0
0 0.0194041 0
0 0.0199498 0
0 0.0203647 0
0 0.0206489 0