# vtk DataFile Version 2.0
Presion
ASCII

DATASET STRUCTURED_GRID
DIMENSIONS   40   40   20

POINTS   32000   double
0.0125   0.0125   0.025
0.0375   0.0125   0.025
0.0625   0.0125   0.025
0.0875   0.0125   0.025
0.1125   0.0125   0.025
0.1375   0.0125   0.025
0.1625   0.0125   0.025
0.1875   0.0125   0.025
0.2125   0.0125   0.025
0.2375   0.0125   0.025
0.2625   0.0125   0.025
0.2875   0.0125   0.025
0.3125   0.0125   0.025
0.3375   0.0125   0.025
0.3625   0.0125   0.025
0.3875   0.0125   0.025
0.4125   0.0125   0.025
0.4375   0.0125   0.025
0.4625   0.0125   0.025
0.4875   0.0125   0.025
0.5125   0.0125   0.025
0.5375   0.0125   0.025
0.5625   0.0125   0.025
0.5875   0.0125   0.025
0.6125   0.0125   0.025
0.6375   0.0125   0.025
0.6625   0.0125   0.025
0.6875   0.0125   0.025
0.7125   0.0125   0.025
0.7375   0.0125   0.025
0.7625   0.0125   0.025
0.7875   0.0125   0.025
0.8125   0.0125   0.025
0.8375   0.0125   0.025
0.8625   0.0125   0.025
0.8875   0.0125   0.025
0.9125   0.0125   0.025
0.9375   0.0125   0.025
0.9625   0.0125   0.025
0.9875   0.0125   0.025
0.0125   0.0375   0.025
0.0375   0.0375   0.025
0.0625   0.0375   0.025
0.0875   0.0375   0.025
0.1125   0.0375   0.025
0.1375   0.0375   0.025
0.1625   0.0375   0.025
0.1875   0.0375   0.025
0.2125   0.0375   0.025
0.2375   0.0375   0.025
0.2625   0.0375   0.025
0.2875   0.0375   0.025
0.3125   0.0375   0.025
0.3375   0.0375   0.025
0.3625   0.0375   0.025
0.3875   0.0375   0.025
0.4125   0.0375   0.025
0.4375   0.0375   0.025
0.4625   0.0375   0.025
0.4875   0.0375   0.025
0.5125   0.0375   0.025
0.5375   0.0375   0.025
0.5625   0.0375   0.025
0.5875   0.0375   0.025
0.6125   0.0375   0.025
0.6375   0.0375   0.025
0.6625   0.0375   0.025
0.6875   0.0375   0.025
0.7125   0.0375   0.025
0.7375   0.0375   0.025
0.7625   0.0375   0.025
0.7875   0.0375   0.025
0.8125   0.0375   0.025
0.8375   0.0375   0.025
0.8625   0.0375   0.025
0.8875   0.0375   0.025
0.9125   0.0375   0.025
0.9375   0.0375   0.025
0.9625   0.0375   0.025
0.9875   0.0375   0.025
0.0125   0.0625   0.025
0.0375   0.0625   0.025
0.0625   0.0625   0.025
0.0875   0.0625   0.025
0.1125   0.0625   0.025
0.1375   0.0625   0.025
0.1625   0.0625   0.025
0.1875   0.0625   0.025
0.2125   0.0625   0.025
0.2375   0.0625   0.025
0.2625   0.0625   0.025
0.2875   0.0625   0.025
0.3125   0.0625   0.025
0.3375   0.0625   0.025
0.3625   0.0625   0.025
0.3875   0.0625   0.025
0.4125   0.0625   0.025
0.4375   0.0625   0.025
0.4625   0.0625   0.025
0.4875   0.0625   0.025
0.5125   0.0625   0.025
0.5375   0.0625   0.025
0.5625   0.0625   0.025
0.5875   0.0625   0.025
0.6125   0.0625   0.025
0.6375   0.0625   0.025
0.6625   0.0625   0.025
0.6875   0.0625   0.025
0.7125   0.0625   0.025
0.7375   0.0625   0.025
0.7625   0.0625   0.025
0.7875   0.0625   0.025
0.8125   0.0625   0.025
0.8375   0.0625   0.025
0.8625   0.0625   0.025
0.8875   0.0625   0.025
0.9125   0.0625   0.025
0.9375   0.0625   0.025
0.9625   0.0625   0.025
0.9875   0.0625   0.025
0.0125   0.0875   0.025
0.0375   0.0875   0.025
0.0625   0.0875   0.025
0.0875   0.0875   0.025
0.1125   0.0875   0.025
0.1375   0.0875   0.025
0.1625   0.0875   0.025
0.1875   0.0875   0.025
0.2125   0.0875   0.025
0.2375   0.0875   0.025
0.2625   0.0875   0.025
0.2875   0.0875   0.025
0.3125   0.0875   0.025
0.3375   0.0875   0.025
0.3625   0.0875   0.025
0.3875   0.0875   0.025
0.4125   0.0875   0.025
0.4375   0.0875   0.025
0.4625   0.0875   0.025
0.4875   0.0875   0.025
0.5125   0.0875   0.025
0.5375   0.0875   0.025
0.5625   0.0875   0.025
0.5875   0.0875   0.025
0.6125   0.0875   0.025
0.6375   0.0875   0.025
0.6625   0.0875   0.025
0.6875   0.0875   0.025
0.7125   0.0875   0.025
0.7375   0.0875   0.025
0.7625   0.0875   0.025
0.7875   0.0875   0.025
0.8125   0.0875   0.025
0.8375   0.0875   0.025
0.8625   0.0875   0.025
0.8875   0.0875   0.025
0.9125   0.0875   0.025
0.9375   0.0875   0.025
0.9625   0.0875   0.025
0.9875   0.0875   0.025
0.0125   0.1125   0.025
0.0375   0.1125   0.025
0.0625   0.1125   0.025
0.0875   0.1125   0.025
0.1125   0.1125   0.025
0.1375   0.1125   0.025
0.1625   0.1125   0.025
0.1875   0.1125   0.025
0.2125   0.1125   0.025
0.2375   0.1125   0.025
0.2625   0.1125   0.025
0.2875   0.1125   0.025
0.3125   0.1125   0.025
0.3375   0.1125   0.025
0.3625   0.1125   0.025
0.3875   0.1125   0.025
0.4125   0.1125   0.025
0.4375   0.1125   0.025
0.4625   0.1125   0.025
0.4875   0.1125   0.025
0.5125   0.1125   0.025
0.5375   0.1125   0.025
0.5625   0.1125   0.025
0.5875   0.1125   0.025
0.6125   0.1125   0.025
0.6375   0.1125   0.025
0.6625   0.1125   0.025
0.6875   0.1125   0.025
0.7125   0.1125   0.025
0.7375   0.1125   0.025
0.7625   0.1125   0.025
0.7875   0.1125   0.025
0.8125   0.1125   0.025
0.8375   0.1125   0.025
0.8625   0.1125   0.025
0.8875   0.1125   0.025
0.9125   0.1125   0.025
0.9375   0.1125   0.025
0.9625   0.1125   0.025
0.9875   0.1125   0.025
0.0125   0.1375   0.025
0.0375   0.1375   0.025
0.0625   0.1375   0.025
0.0875   0.1375   0.025
0.1125   0.1375   0.025
0.1375   0.1375   0.025
0.1625   0.1375   0.025
0.1875   0.1375   0.025
0.2125   0.1375   0.025
0.2375   0.1375   0.025
0.2625   0.1375   0.025
0.2875   0.1375   0.025
0.3125   0.1375   0.025
0.3375   0.1375   0.025
0.3625   0.1375   0.025
0.3875   0.1375   0.025
0.4125   0.1375   0.025
0.4375   0.1375   0.025
0.4625   0.1375   0.025
0.4875   0.1375   0.025
0.5125   0.1375   0.025
0.5375   0.1375   0.025
0.5625   0.1375   0.025
0.5875   0.1375   0.025
0.6125   0.1375   0.025
0.6375   0.1375   0.025
0.6625   0.1375   0.025
0.6875   0.1375   0.025
0.7125   0.1375   0.025
0.7375   0.1375   0.025
0.7625   0.1375   0.025
0.7875   0.1375   0.025
0.8125   0.1375   0.025
0.8375   0.1375   0.025
0.8625   0.1375   0.025
0.8875   0.1375   0.025
0.9125   0.1375   0.025
0.9375   0.1375   0.025
0.9625   0.1375   0.025
0.9875   0.1375   0.025
0.0125   0.1625   0.025
0.0375   0.1625   0.025
0.0625   0.1625   0.025
0.0875   0.1625   0.025
0.1125   0.1625   0.025
0.1375   0.1625   0.025
0.1625   0.1625   0.025
0.1875   0.1625   0.025
0.2125   0.1625   0.025
0.2375   0.1625   0.025
0.2625   0.1625   0.025
0.2875   0.1625   0.025
0.3125   0.1625   0.025
0.3375   0.1625   0.025
0.3625   0.1625   0.025
0.3875   0.1625   0.025
0.4125   0.1625   0.025
0.4375   0.1625   0.025
0.4625   0.1625   0.025
0.4875   0.1625   0.025
0.5125   0.1625   0.025
0.5375   0.1625   0.025
0.5625   0.1625   0.025
0.5875   0.1625   0.025
0.6125   0.1625   0.025
0.6375   0.1625   0.025
0.6625   0.1625   0.025
0.6875   0.1625   0.025
0.7125   0.1625   0.025
0.7375   0.1625   0.025
0.7625   0.1625   0.025
0.7875   0.1625   0.025
0.8125   0.1625   0.025
0.8375   0.1625   0.025
0.8625   0.1625   0.025
0.8875   0.1625   0.025
0.9125   0.1625   0.025
0.9375   0.1625   0.025
0.9625   0.1625   0.025
0.9875   0.1625   0.025
0.0125   0.1875   0.025
0.0375   0.1875   0.025
0.0625   0.1875   0.025
0.0875   0.1875   0.025
0.1125   0.1875   0.025
0.1375   0.1875   0.025
0.1625   0.1875   0.025
0.1875   0.1875   0.025
0.2125   0.1875   0.025
0.2375   0.1875   0.025
0.2625   0.1875   0.025
0.2875   0.1875   0.025
0.3125   0.1875   0.025
0.3375   0.1875   0.025
0.3625   0.1875   0.025
0.3875   0.1875   0.025
0.4125   0.1875   0.025
0.4375   0.1875   0.025
0.4625   0.1875   0.025
0.4875   0.1875   0.025
0.5125   0.1875   0.025
0.5375   0.1875   0.025
0.5625   0.1875   0.025
0.5875   0.1875   0.025
0.6125   0.1875   0.025
0.6375   0.1875   0.025
0.6625   0.1875   0.025
0.6875   0.1875   0.025
0.7125   0.1875   0.025
0.7375   0.1875   0.025
0.7625   0.1875   0.025
0.7875   0.1875   0.025
0.8125   0.1875   0.025
0.8375   0.1875   0.025
0.8625   0.1875   0.025
0.8875   0.1875   0.025
0.9125   0.1875   0.025
0.9375   0.1875   0.025
0.9625   0.1875   0.025
0.9875   0.1875   0.025
0.0125   0.2125   0.025
0.0375   0.2125   0.025
0.0625   0.2125   0.025
0.0875   0.2125   0.025
0.1125   0.2125   0.025
0.1375   0.2125   0.025
0.1625   0.2125   0.025
0.1875   0.2125   0.025
0.2125   0.2125   0.025
0.2375   0.2125   0.025
0.2625   0.2125   0.025
0.2875   0.2125   0.025
0.3125   0.2125   0.025
0.3375   0.2125   0.025
0.3625   0.2125   0.025
0.3875   0.2125   0.025
0.4125   0.2125   0.025
0.4375   0.2125   0.025
0.4625   0.2125   0.025
0.4875   0.2125   0.025
0.5125   0.2125   0.025
0.5375   0.2125   0.025
0.5625   0.2125   0.025
0.5875   0.2125   0.025
0.6125   0.2125   0.025
0.6375   0.2125   0.025
0.6625   0.2125   0.025
0.6875   0.2125   0.025
0.7125   0.2125   0.025
0.7375   0.2125   0.025
0.7625   0.2125   0.025
0.7875   0.2125   0.025
0.8125   0.2125   0.025
0.8375   0.2125   0.025
0.8625   0.2125   0.025
0.8875   0.2125   0.025
0.9125   0.2125   0.025
0.9375   0.2125   0.025
0.9625   0.2125   0.025
0.9875   0.2125   0.025
0.0125   0.2375   0.025
0.0375   0.2375   0.025
0.0625   0.2375   0.025
0.0875   0.2375   0.025
0.1125   0.2375   0.025
0.1375   0.2375   0.025
0.1625   0.2375   0.025
0.1875   0.2375   0.025
0.2125   0.2375   0.025
0.2375   0.2375   0.025
0.2625   0.2375   0.025
0.2875   0.2375   0.025
0.3125   0.2375   0.025
0.3375   0.2375   0.025
0.3625   0.2375   0.025
0.3875   0.2375   0.025
0.4125   0.2375   0.025
0.4375   0.2375   0.025
0.4625   0.2375   0.025
0.4875   0.2375   0.025
0.5125   0.2375   0.025
0.5375   0.2375   0.025
0.5625   0.2375   0.025
0.5875   0.2375   0.025
0.6125   0.2375   0.025
0.6375   0.2375   0.025
0.6625   0.2375   0.025
0.6875   0.2375   0.025
0.7125   0.2375   0.025
0.7375   0.2375   0.025
0.7625   0.2375   0.025
0.7875   0.2375   0.025
0.8125   0.2375   0.025
0.8375   0.2375   0.025
0.8625   0.2375   0.025
0.8875   0.2375   0.025
0.9125   0.2375   0.025
0.9375   0.2375   0.025
0.9625   0.2375   0.025
0.9875   0.2375   0.025
0.0125   0.2625   0.025
0.0375   0.2625   0.025
0.0625   0.2625   0.025
0.0875   0.2625   0.025
0.1125   0.2625   0.025
0.1375   0.2625   0.025
0.1625   0.2625   0.025
0.1875   0.2625   0.025
0.2125   0.2625   0.025
0.2375   0.2625   0.025
0.2625   0.2625   0.025
[...]
POINT_DATA   32000
SCALARS Presion double
LOOKUP_TABLE   Presion

0 0 0 0 0 0 0 0 0 0 0 0 0 0 0 0 0 0 0 0 0 0 0 0 0 0 0 0 0 0 0 0 0 0 0 0 0 0 0 0 -4.68584e-06 -4.64656e-06 -4.57347e-06 -4.46968e-06 -4.33729e-06 -4.17801e-06 -3.99334e-06 -3.78463e-06 -3.55311e-06 -3.29984e-06 -3.02569e-06 -2.73181e-06 -2.41813e-06 -2.08484e-06 -1.7319e-06 -1.35909e-06 -9.66009e-07 -5.52205e-07 -1.17197e-07 3.39402e-07 8.1779e-07 1.31771e-06 1.83877e-06 2.37987e-06 2.93918e-06 3.51406e-06 4.1009e-06 4.69508e-06 5.29088e-06 5.88147e-06 6.45906e-06 7.01548e-06 7.54091e-06 8.02574e-06 8.46044e-06 8.83608e-06 9.14474e-06 9.38007e-06 9.53782e-06 9.61635e-06 -9.37368e-06 -9.29569e-06 -9.14985e-06 -8.94225e-06 -8.6772e-06 -8.35819e-06 -7.98831e-06 -7.57036e-06 -7.10688e-06 -6.60005e-06 -6.05168e-06 -5.46411e-06 -4.83722e-06 -4.1714e-06 -3.46658e-06 -2.72226e-06 -1.93764e-06 -1.11172e-06 -2.43496e-07 6.679e-07 1.62295e-06 2.62125e-06 3.66212e-06 4.74347e-06 5.86176e-06 7.01182e-06 8.18655e-06 9.37675e-06 1.0571e-05 1.17558e-05 1.29153e-05 1.40332e-05 1.50896e-05 1.60651e-05 1.69404e-05 1.76973e-05 1.83196e-05 1.87945e-05 1.91132e-05 1.92721e-05 -1.4079e-05 -1.39621e-05 -1.37428e-05 -1.34304e-05 -1.30314e-05 -1.25511e-05 -1.19944e-05 -1.13656e-05 -1.06689e-05 -9.90753e-06 -9.08445e-06 -8.2032e-06 -7.2637e-06 -6.26655e-06 -5.21158e-06 -4.098e-06 -2.92447e-06 -1.68938e-06 -3.91e-07 9.72152e-07 2.40105e-06 3.89533e-06 5.45428e-06 7.07502e-06 8.75257e-06 1.04794e-05 1.22452e-05 1.40362e-05 1.58356e-05 1.76228e-05 1.93742e-05 2.10648e-05 2.26644e-05 2.41432e-05 2.54715e-05 2.66213e-05 2.75676e-05 2.82902e-05 2.87755e-05 2.90177e-05 -1.88167e-05 -1.866e-05 -1.8366e-05 -1.79467e-05 -1.74111e-05 -1.67667e-05 -1.60204e-05 -1.51782e-05 -1.42458e-05 -1.32282e-05 -1.21294e-05 -1.09543e-05 -9.70288e-06 -8.376e-06 -6.97336e-06 -5.49375e-06 -3.93519e-06 -2.2952e-06 -5.71179e-07 1.23927e-06 3.1379e-06 5.1247e-06 7.19926e-06 9.35829e-06 1.15957e-05 1.3902e-05 1.62638e-05 1.86633e-05 2.10781e-05 2.34808e-05 2.58395e-05 2.81203e-05 3.0282e-05 3.22837e-05 3.40845e-05 3.56453e-05 3.69313e-05 3.79142e-05 3.85748e-05 3.89045e-05 -2.36012e-05 -2.34036e-05 -2.30324e-05 -2.25031e-05 -2.18272e-05 -2.10146e-05 -2.00742e-05 -1.90145e-05 -1.78431e-05 -1.65665e-05 -1.51903e-05 -1.37208e-05 -1.21583e-05 -1.05038e-05 -8.75679e-06 -6.91551e-06 -4.97713e-06 -2.9381e-06 -7.94599e-07 1.45703e-06 3.81966e-06 6.29414e-06 8.88076e-06 1.15763e-05 1.43741e-05 1.72632e-05 2.02276e-05 2.32456e-05 2.62895e-05 2.93252e-05 3.23122e-05 3.52071e-05 3.79571e-05 4.05089e-05 4.28089e-05 4.48057e-05 4.64532e-05 4.77139e-05 4.85616e-05 4.89848e-05 -2.84473e-05 -2.82069e-05 -2.77554e-05 -2.71115e-05 -2.62899e-05 -2.53031e-05 -2.41627e-05 -2.28798e-05 -2.14643e-05 -1.99249e-05 -1.82689e-05 -1.65041e-05 -1.46313e-05 -1.26517e-05 -1.05645e-05 -8.36725e-06 -6.05588e-06 -3.62549e-06 -1.07063e-06 1.61401e-06 4.43296e-06 7.38842e-06 1.0482e-05 1.37112e-05 1.70693e-05 2.05446e-05 2.41191e-05 2.77677e-05 3.14578e-05 3.51483e-05 3.87902e-05 4.23298e-05 4.57015e-05 4.88384e-05 5.16726e-05 5.41382e-05 5.61761e-05 5.77373e-05 5.8788e-05 5.93125e-05 -3.33698e-05 -3.30843e-05 -3.25479e-05 -3.17835e-05 -3.08088e-05 -2.96398e-05 -2.82912e-05 -2.67773e-05 -2.51108e-05 -2.33032e-05 -2.13638e-05 -1.93024e-05 -1.71202e-05 -1.48187e-05 -1.23966e-05 -9.85044e-06 -7.17479e-06 -4.36286e-06 -1.40714e-06 1.69989e-06 4.965e-06 8.39237e-06 1.19856e-05 1.57438e-05 1.96609e-05 2.37253e-05 2.79177e-05 3.22105e-05 3.65664e-05 4.09379e-05 4.52668e-05 4.94885e-05 5.35235e-05 5.72894e-05 6.07017e-05 6.36777e-05 6.61425e-05 6.80337e-05 6.93075e-05 6.99435e-05 -3.83842e-05 -3.80505e-05 -3.74235e-05 -3.65304e-05 -3.5393e-05 -3.4031e-05 -3.24633e-05 -3.07079e-05 -2.87812e-05 -2.66981e-05 -2.44704e-05 -2.21103e-05 -1.96195e-05 -1.69999e-05 -1.42495e-05 -1.13634e-05 -8.33445e-06 -5.15339e-06 -1.81012e-06 1.70571e-06 5.40376e-06 9.29095e-06 1.33738e-05 1.76536e-05 2.21264e-05 2.67813e-05 3.15992e-05 3.65504e-05 4.15941e-05 4.66762e-05 5.17298e-05 5.66783e-05 6.14268e-05 6.58754e-05 6.992e-05 7.34581e-05 7.63956e-05 7.86537e-05 8.01761e-05 8.09362e-05 -4.35072e-05 -4.31211e-05 -4.23959e-05 -4.13637e-05 -4.00509e-05 -3.84819e-05 -3.66805e-05 -3.46696e-05 -3.24705e-05 -3.0102e-05 -2.75795e-05 -2.49176e-05 -2.21193e-05 -1.91862e-05 -1.61156e-05 -1.29008e-05 -9.53215e-06 -5.99744e-06 -2.28328e-06 1.62418e-06 5.73823e-06 1.00694e-05 1.46279e-05 1.94186e-05 2.44405e-05 2.96851e-05 3.51343e-05 4.07581e-05 4.65128e-05 5.23389e-05 5.81602e-05 6.38877e-05 6.94094e-05 7.46053e-05 7.93484e-05 8.35123e-05 8.69792e-05 8.96499e-05 9.14529e-05 9.23531e-05 -4.8757e-05 -4.83135e-05 -4.74804e-05 -4.62955e-05 -4.47907e-05 -4.29962e-05 -4.09421e-05 -3.86574e-05 -3.61695e-05 -3.35026e-05 -3.06764e-05 -2.77087e-05 -2.46037e-05 -2.13629e-05 -1.79823e-05 -1.44528e-05 -1.07613e-05 -6.89206e-06 -2.82765e-06 1.45005e-06 5.95877e-06 1.07135e-05 1.57292e-05 2.10154e-05 2.65756e-05 3.2405e-05 3.84886e-05 4.47976e-05 5.12871e-05 5.7893e-05 6.45304e-05 7.10972e-05 7.74625e-05 8.34829e-05 8.90045e-05 9.38716e-05 9.79378e-05 0.000101078 0.000103201 0.000104261 -5.41549e-05 -5.36473e-05 -5.26938e-05 -5.13386e-05 -4.96203e-05 -4.75764e-05 -4.52445e-05 -4.26619e-05 -3.98637e-05 -3.68812e-05 -3.37396e-05 -3.04608e-05 -2.70502e-05 -2.35091e-05 -1.98313e-05 -1.60042e-05 -1.20108e-05 -7.8305e-06 -3.44109e-06 1.18058e-06 6.05746e-06 1.12099e-05 1.66586e-05 2.24191e-05 2.85008e-05 3.49051e-05 4.16216e-05 4.86254e-05 5.58723e-05 6.32957e-05 7.08027e-05 7.82773e-05 8.55681e-05 9.25048e-05 9.89012e-05 0.000104566 0.000109317 0.000112997 0.00011549 0.000116735 -5.97256e-05 -5.91456e-05 -5.80558e-05 -5.65078e-05 -5.45483e-05 -5.22236e-05 -4.95813e-05 -4.6669e-05 -4.35322e-05 -4.02113e-05 -3.6739e-05 -3.31421e-05 -2.94277e-05 -2.55958e-05 -2.16371e-05 -1.75341e-05 -1.32644e-05 -8.80167e-06 -4.11783e-06 8.15999e-07 6.02862e-06 1.15465e-05 1.73973e-05 2.36035e-05 3.01828e-05 3.71442e-05 4.44856e-05 5.21885e-05 6.02127e-05 6.84915e-05 7.69259e-05 8.53861e-05 9.36978e-05 0.00010166 0.000109046 0.000115624 0.000121165 0.000125471 0.000128394 0.000129855 -6.54993e-05 -6.48363e-05 -6.35899e-05 -6.18205e-05 -5.95841e-05 -5.69382e-05 -5.39428e-05 -5.06589e-05 -4.71458e-05 -4.34565e-05 -3.96337e-05 -3.57102e-05 -3.16946e-05 -2.7585e-05 -2.33665e-05 -1.9015e-05 -1.45005e-05 -9.78981e-06 -4.84804e-06 3.60011e-07 5.86947e-06 1.17135e-05 1.79273e-05 2.45421e-05 3.15852e-05 3.90766e-05 4.70252e-05 5.54232e-05 6.4239e-05 7.34098e-05 8.28332e-05 9.23661e-05 0.000101809 0.000110925 0.000119442 0.000127071 0.000133531 0.00013857 0.000141999 0.000143714 -7.15131e-05 -7.0754e-05 -6.93256e-05 -6.72984e-05 -6.47396e-05 -6.17199e-05 -5.83153e-05 -5.46045e-05 -5.06651e-05 -4.65676e-05 -4.23683e-05 -3.8108e-05 -3.37967e-05 -2.94276e-05 -2.49774e-05 -2.0412e-05 -1.56917e-05 -1.07743e-05 -5.6175e-06 -1.79596e-07 5.58089e-06 1.1704e-05 1.82328e-05 2.52086e-05 3.26702e-05 4.06513e-05 4.91762e-05 5.82532e-05 6.78654e-05 7.79601e-05 8.84365e-05 9.91399e-05 0.000109844 0.000120267 0.000130081 0.000138933 0.000146469 0.000152373 0.000156402 0.000158419 -7.78136e-05 -7.6942e-05 -7.53001e-05 -7.29694e-05 -7.00301e-05 -6.65691e-05 -6.26821e-05 -5.84707e-05 -5.40378e-05 -4.94783e-05 -4.48686e-05 -4.02602e-05 -3.56632e-05 -3.10616e-05 -2.6418e-05 -2.16835e-05 -1.68049e-05 -1.17297e-05 -6.40745e-06 -7.9037e-07 5.16851e-06 1.15154e-05 1.83016e-05 2.55786e-05 3.3399e-05 4.18132e-05 5.08656e-05 6.05875e-05 7.09855e-05 8.20271e-05 9.36211e-05 0.000105605 0.000117721 0.000129636 0.000140951 0.000151232 0.000160038 0.00016697 0.000171714 0.000174092 -8.44593e-05 -8.34554e-05 -8.15612e-05 -7.88702e-05 -7.54774e-05 -7.14885e-05 -6.70229e-05 -6.22123e-05 -5.71941e-05 -5.20992e-05 -4.70343e-05 -4.20669e-05 -3.72035e-05 -3.24105e-05 -2.76269e-05 -2.27814e-05 -1.7803e-05 -1.26267e-05 -7.19467e-06 -1.45451e-06 4.64405e-06 1.11517e-05 1.81269e-05 2.56322e-05 3.37347e-05 4.25047e-05 5.20117e-05 6.23183e-05 7.34674e-05 8.5462e-05 9.82352e-05 0.000111623 0.000125333 0.000138963 0.000152028 0.000163991 0.000174304 0.000182463 0.000188066 0.000190879 -9.15236e-05 -9.03636e-05 -8.81704e-05 -8.50502e-05 -8.11133e-05 -7.64862e-05 -7.13165e-05 -6.57734e-05 -6.00423e-05 -5.43082e-05 -4.87275e-05 -4.33935e-05 -3.83013e-05 -3.33818e-05 -2.85343e-05 -2.36539e-05 -1.86465e-05 -1.34338e-05 -7.95201e-06 -2.14809e-06 4.02726e-06 1.06256e-05 1.77112e-05 2.53572e-05 3.36462e-05 4.26694e-05 5.25261e-05 6.33197e-05 7.51464e-05 8.807e-05 0.000102075 0.000117011 0.000132538 0.000148163 0.000163284 0.000177238 0.000189347 0.000198977 0.000205614 0.000208951 -9.90981e-05 -9.77544e-05 -9.52074e-05 -9.15757e-05 -8.69847e-05 -8.15816e-05 -7.55447e-05 -6.90883e-05 -6.24622e-05 -5.59356e-05 -4.97525e-05 -4.40563e-05 -3.88084e-05 -3.38679e-05 -2.90662e-05 -2.42506e-05 -1.92988e-05 -1.412e-05 -8.64938e-06 -2.83984e-06 3.3488e-06 9.96259e-06 1.70699e-05 2.47545e-05 3.31136e-05 4.22588e-05 5.23198e-05 6.3449e-05 7.58173e-05 8.95898e-05 0.000104857 0.000121517 0.000139154 0.000157129 0.000174687 0.000191008 0.000205261 0.000216657 0.000224542 0.000228515 -0.000107296 -0.000105737 -0.000102774 -9.85358e-05 -9.3161e-05 -8.68144e-05 -7.97023e-05 -7.20871e-05 -6.43001e-05 -5.67394e-05 -4.98173e-05 -4.37978e-05 -3.85397e-05 -3.37519e-05 -2.91546e-05 -2.45319e-05 -1.97329e-05 -1.46601e-05 -9.25544e-06 -3.48924e-06 2.65516e-06 9.20533e-06 1.62356e-05 2.38431e-05 3.21373e-05 4.12437e-05 5.1316e-05 6.25554e-05 7.52277e-05 8.96608e-05 0.000106165 0.000124791 0.000144948 0.000165747 0.000186216 0.000205358 0.000222168 0.00023568 0.00024507 0.000249811 -0.000116252 -0.000114445 -0.000110997 -0.000106048 -9.9744e-05 -9.22587e-05 -8.38158e-05 -7.47148e-05 -6.53713e-05 -5.63668e-05 -4.84486e-05 -4.22479e-05 -3.72764e-05 -3.29272e-05 -2.87567e-05 -2.44843e-05 -1.99431e-05 -1.50413e-05 -9.7404e-06 -4.04297e-06 2.0185e-06 8.42038e-06 1.52627e-05 2.26661e-05 3.07478e-05 3.96324e-05 4.94762e-05 6.05073e-05 7.30844e-05 8.77698e-05 0.00010533 0.000126327 0.000149646 0.000173918 0.000197889 0.000220381 0.000240224 0.000256259 0.000267457 0.000273126 -0.00012613 -0.000124038 -0.000120035 -0.000114266 -0.000106878 -9.80423e-05 -8.79763e-05 -7.69777e-05 -6.54986e-05 -5.43051e-05 -4.47661e-05 -3.88753e-05 -3.48039e-05 -3.13444e-05 -2.7889e-05 -2.41415e-05 -1.99575e-05 -1.52736e-05 -1.0082e-05 -4.42978e-06 1.56143e-06 7.70498e-06 1.42256e-05 2.12914e-05 2.90157e-05 3.74948e-05 4.68461e-05 5.72605e-05 6.91111e-05 8.31854e-05 0.000101111 0.000125404 0.000152992 0.000181633 0.000209804 0.000236232 0.00025963 0.000278646 0.000292002 0.000298788 -0.000137114 -0.000134702 -0.000130073 -0.000123377 -0.000114756 -0.000104366 -9.23861e-05 -7.90419e-05 -6.46627e-05 -4.9912e-05 -3.67645e-05 -3.30176e-05 -3.10634e-05 -2.91103e-05 -2.66754e-05 -2.36062e-05 -1.98515e-05 -1.54024e-05 -1.02818e-05 -4.56253e-06 1.53411e-06 7.18468e-06 1.3203e-05 1.9803e-05 2.70544e-05 3.49866e-05 4.36206e-05 5.29992e-05 6.32698e-05 7.5012e-05 9.06599e-05 0.000121135 0.000154969 0.000189106 0.00022221 0.000253153 0.000280636 0.000303127 0.000319042 0.000327168 -0.000149414 -0.000146646 -0.000141323 -0.000133601 -0.000123616 -0.000111506 -9.73957e-05 -8.138e-05 -6.3438e-05 -4.31543e-05 -1.86059e-05 -2.4621e-05 -2.65875e-05 -2.66351e-05 -2.53841e-05 -2.30552e-05 -1.97485e-05 -1.55214e-05 -1.04092e-05 -4.41188e-06 2.60193e-06 6.93592e-06 1.22264e-05 1.8277e-05 2.50089e-05 3.23503e-05 4.01943e-05 4.83467e-05 5.63959e-05 6.32807e-05 6.56047e-05 0.000113564 0.000156432 0.000196996 0.000235549 0.000271467 0.000303527 0.000330009 0.000348938 0.00035867 -0.000163257 -0.000160099 -0.000154016 -0.000145177 -0.000133721 -0.000119779 -0.000103453 -8.47903e-05 -6.37011e-05 -3.98039e-05 -1.21817e-05 -1.94356e-05 -2.32087e-05 -2.46511e-05 -2.43761e-05 -2.26999e-05 -1.97958e-05 -1.57668e-05 -1.06747e-05 -4.54279e-06 2.65787e-06 6.44256e-06 1.11907e-05 1.67579e-05 2.30257e-05 2.9863e-05 3.70836e-05 4.43825e-05 5.12135e-05 5.65474e-05 5.85005e-05 0.000111256 0.000160127 0.000206411 0.000250382 0.00029152 0.00032858 0.000359589 0.000382056 0.000393721 -0.000178885 -0.0001753 -0.000168391 -0.000158345 -0.00014532 -0.000129459 -0.000110882 -8.96665e-05 -6.58122e-05 -3.92143e-05 -9.72237e-06 -1.67913e-05 -2.12398e-05 -2.34809e-05 -2.38813e-05 -2.26992e-05 -2.01088e-05 -1.62302e-05 -1.11482e-05 -4.92457e-06 2.38865e-06 5.77832e-06 1.01176e-05 1.53069e-05 2.12263e-05 2.77267e-05 3.46039e-05 4.15602e-05 4.81501e-05 5.37339e-05 5.75605e-05 0.000113143 0.0001665 0.000217831 0.000267057 0.000313563 0.000356008 0.000392116 0.000418743 0.000432749 -0.000196552 -0.000192498 -0.000184687 -0.000173336 -0.000158631 -0.000140751 -0.000119859 -9.60976e-05 -6.9585e-05 -4.04335e-05 -8.83456e-06 -1.57113e-05 -2.04451e-05 -2.31387e-05 -2.39753e-05 -2.31307e-05 -2.0751e-05 -1.6954e-05 -1.18366e-05 -5.48499e-06 2.0113e-06 5.0467e-06 9.06468e-06 1.39822e-05 1.9687e-05 2.60362e-05 3.28449e-05 3.98727e-05 4.68147e-05 5.33269e-05 5.91449e-05 0.000117719 0.000175172 0.000231264 0.000285678 0.000337708 0.000385929 0.000427765 0.000459299 0.000476177 -0.00021652 -0.000211946 -0.000203141 -0.000190362 -0.000173841 -0.000153802 -0.000130467 -0.000104051 -7.47733e-05 -4.28761e-05 -8.68645e-06 -1.55857e-05 -2.05286e-05 -2.3516e-05 -2.46356e-05 -2.40038e-05 -2.17375e-05 -1.79449e-05 -1.27253e-05 -6.1748e-06 1.60456e-06 4.31432e-06 8.07995e-06 1.28228e-05 1.84398e-05 2.48039e-05 3.17627e-05 3.91383e-05 4.67361e-05 5.43788e-05 6.19788e-05 0.000124036 0.000185671 0.000246527 0.000306195 0.000363951 0.000418355 0.000466612 0.000503957 0.000524402 -0.000239061 -0.000233902 -0.000223985 -0.000209623 -0.000191103 -0.000168714 -0.000142741 -0.000113469 -8.11904e-05 -4.62246e-05 -8.94939e-06 -1.60744e-05 -2.12569e-05 -2.44797e-05 -2.57936e-05 -2.52838e-05 -2.30478e-05 -1.91842e-05 -1.37898e-05 -6.96084e-06 1.20108e-06 3.61863e-06 7.19372e-06 1.18477e-05 1.74853e-05 2.39971e-05 3.12621e-05 3.9153e-05 4.75481e-05 5.63553e-05 6.55457e-05 0.00013155 0.000197613 0.00026339 0.000328475 0.000392199 0.000453206 0.000508622 0.000552856 0.000577784 -0.000264456 -0.000258625 -0.000247443 -0.000231294 -0.000210544 -0.000185556 -0.000156687 -0.000124288 -8.87065e-05 -5.03043e-05 -9.47503e-06 -1.69844e-05 -2.24613e-05 -2.59045e-05 -2.73615e-05 -2.69084e-05 -2.46347e-05 -2.06334e-05 -1.49964e-05 -7.81517e-06 8.16809e-07 2.98125e-06 6.42389e-06 1.10632e-05 1.68095e-05 2.3568e-05 3.12431e-05 3.97442e-05 4.89955e-05 5.89489e-05 6.95954e-05 0.000139926 0.000210693 0.000281611 0.000352333 0.000422293 0.000490315 0.000553639 0.000606008 0.000636625 -0.000292993 -0.000286377 -0.000273725 -0.000255526 -0.00023225 -0.000204354 -0.000172277 -0.000136434 -9.72163e-05 -5.50038e-05 -1.0185e-05 -1.81944e-05 -2.40138e-05 -2.76742e-05 -2.924e-05 -2.87944e-05 -2.64288e-05 -2.22346e-05 -1.62996e-05 -8.70706e-06 4.62641e-07 2.41848e-06 5.78457e-06 1.04734e-05 1.63974e-05 2.34724e-05 3.16217e-05 4.07807e-05 5.09034e-05 6.19678e-05 7.39766e-05 0.000148925 0.000224646 0.000300934 0.00037753 0.000454004 0.000529427 0.000601369 0.000663255 0.00070114 -0.000324974 -0.000317413 -0.000303017 -0.000282423 -0.000256245 -0.000225067 -0.000189425 -0.000149796 -0.000106603 -6.02267e-05 -1.10272e-05 -1.96129e-05 -2.5802e-05 -2.96714e-05 -3.13158e-05 -3.08374e-05 -2.83371e-05 -2.39091e-05 -1.76379e-05 -9.59692e-06 1.50566e-07 1.94914e-06 5.29413e-06 1.00881e-05 1.62424e-05 2.36796e-05 3.23368e-05 4.21683e-05 5.31494e-05 6.52784e-05 7.85721e-05 0.000158339 0.000239205 0.000321061 0.000403757 0.000487014 0.000570184 0.000651363 0.000724209 0.000771408 -0.000360705 -0.000351974 -0.000335453 -0.000312005 -0.000282453 -0.00024755 -0.000207947 -0.000164184 -0.000116701 -6.58565e-05 -1.19546e-05 -2.11506e-05 -2.77084e-05 -3.17637e-05 -3.34532e-05 -3.29062e-05 -3.02392e-05 -2.55526e-05 -1.89289e-05 -1.04311e-05 -1.02094e-07 1.60061e-06 4.98148e-06 9.92955e-06 1.63523e-05 2.41768e-05 3.33503e-05 4.3842e-05 5.56449e-05 6.87762e-05 8.3272e-05 0.000167956 0.00025407 0.000341625 0.000430598 0.000520874 0.000612095 0.000702997 0.00078817 0.000847295 -0.000400496 -0.000390259 -0.000371072 -0.000344152 -0.000310632 -0.000271487 -0.000227503 -0.000179279 -0.00012725 -7.17245e-05 -1.29103e-05 -2.27011e-05 -2.95913e-05 -3.379e-05 -3.54846e-05 -3.4837e-05 -3.19829e-05 -2.70317e-05 -2.00656e-05 -1.11377e-05 -2.69497e-07 1.41283e-06 4.88954e-06 1.00343e-05 1.67502e-05 2.49678e-05 3.46432e-05 4.57584e-05 5.83216e-05 7.23691e-05 8.79614e-05 0.000177544 0.000268895 0.000362168 0.0004575 0.000554963 0.000654476 0.000755433 0.000854036 0.000928341 -0.000444643 -0.000432378 -0.000409727 -0.000378495 -0.000340265 -0.000296299 -0.000247523 -0.000194574 -0.000137853 -7.75761e-05 -1.38148e-05 -2.41226e-05 -3.12694e-05 -3.55495e-05 -3.72049e-05 -3.64315e-05 -3.33849e-05 -2.8185e-05 -2.09163e-05 -1.16256e-05 -3.1555e-07 1.43894e-06 5.07388e-06 1.045e-05 1.7469e-05 2.60663e-05 3.62071e-05 4.78846e-05 6.11208e-05 7.59691e-05 9.25157e-05 0.000186839 0.000283269 0.000382128 0.000483747 0.000588428 0.000696373 0.000807575 0.000920179 0.00101358 -0.000493391 -0.000478233 -0.000450915 -0.000414232 -0.000370406 -0.00032102 -0.000267113 -0.000209308 -0.000147922 -8.3039e-05 -1.45516e-05 -2.52245e-05 -3.25145e-05 -3.68021e-05 -3.83783e-05 -3.74676e-05 -3.42431e-05 -2.88354e-05 -2.13352e-05 -1.17905e-05 -1.95498e-07 1.7395e-06 5.59276e-06 1.12225e-05 1.85365e-05 2.74798e-05 3.80274e-05 5.0183e-05 6.39792e-05 7.94818e-05 9.6798e-05 0.000195549 0.00029672 0.000400834 0.000508449 0.000620154 0.000736467 0.000857981 0.000984333 0.00110128 -0.000546831 -0.00052725 -0.000493437 -0.000449832 -0.000399456 -0.000344157 -0.000284974 -0.000222419 -0.000156659 -8.7606e-05 -1.4958e-05 -2.57686e-05 -3.30671e-05 -3.72951e-05 -3.87719e-05 -3.77373e-05 -3.43751e-05 -2.88262e-05 -2.11928e-05 -1.15365e-05 1.34798e-07 2.36358e-06 6.48182e-06 1.2367e-05 1.99461e-05 2.91798e-05 4.00555e-05 5.25854e-05 6.68085e-05 8.27942e-05 0.000100658 0.000203343 0.000308714 0.000417512 0.000530549 0.000648762 0.000773 0.000904742 0.00104351 0.00118849 -0.00060457 -0.000577713 -0.000534742 -0.000482575 -0.000424919 -0.000363594 -0.000299402 -0.000232595 -0.000163112 -9.0682e-05 -1.48407e-05 -2.55183e-05 -3.27092e-05 -3.68483e-05 -3.82449e-05 -3.71344e-05 -3.37028e-05 -2.80994e-05 -2.04439e-05 -1.08277e-05 6.93459e-07 3.30659e-06 7.70435e-06 1.38169e-05 2.16061e-05 3.1055e-05 4.21644e-05 5.49534e-05 6.94618e-05 8.57513e-05 0.000103924 0.000209858 0.000318664 0.000431312 0.000548861 0.000672649 0.000803789 0.000945298 0.00109407 0.00127034 -0.000664506 -0.000625067 -0.000569798 -0.000508089 -0.000443378 -0.000376803 -0.000308593 -0.000238594 -0.000166477 -9.18091e-05 -1.40794e-05 -2.44111e-05 -3.146e-05 -3.55474e-05 -3.69299e-05 -3.58216e-05 -3.24036e-05 -2.68325e-05 -1.92485e-05 -9.78538e-06 1.41778e-06 4.43278e-06 9.07031e-06 1.53467e-05 2.32698e-05 3.28468e-05 4.40912e-05 5.70263e-05 7.16882e-05 8.81224e-05 0.000106396 0.000214683 0.000325941 0.00044134 0.000562149 0.000690085 0.000826434 0.000976182 0.00113233 0.00133873 -0.000717363 -0.000658138 -0.000590181 -0.00052095 -0.000451621 -0.00038204 -0.000311744 -0.000240204 -0.000166888 -9.12867e-05 -1.29649e-05 -2.29734e-05 -2.99627e-05 -3.40795e-05 -3.55189e-05 -3.44742e-05 -3.11222e-05 -2.56249e-05 -1.81386e-05 -8.8337e-06 2.06559e-06 5.36178e-06 1.01348e-05 1.64869e-05 2.4463e-05 3.40875e-05 4.53816e-05 5.83705e-05 7.30859e-05 8.95584e-05 0.000107813 0.000217357 0.000329895 0.000446727 0.000569258 0.000699394 0.000838732 0.000992958 0.00115542 0.00138054 0 0 0 0 0 0 0 0 0 0 0 0 0 0 0 0 0 0 0 0 0 0 0 0 0 0 0 0 0 0 0 0 0 0 0 0 0 0 0 0 -4.65703e-06 -4.6218e-06 -4.55321e-06 -4.45337e-06 -4.32427e-06 -4.16771e-06 -3.98531e-06 -3.77855e-06 -3.54873e-06 -3.29699e-06 -3.02425e-06 -2.7317e-06 -2.41931e-06 -2.08728e-06 -1.73561e-06 -1.36406e-06 -9.72274e-07 -5.59783e-07 -1.26113e-07 3.29134e-07 8.06176e-07 1.30477e-06 1.82456e-06 2.3645e-06 2.92283e-06 3.49696e-06 4.08341e-06 4.67762e-06 5.27397e-06 5.86577e-06 6.44527e-06 7.0044e-06 7.53334e-06 8.02249e-06 8.46226e-06 8.84358e-06 9.