# vtk DataFile Version 2.0
Velocidades
ASCII

DATASET STRUCTURED_GRID
DIMENSIONS   40   40   20

POINTS   32000   double
0.0125   0.0125   0.025
0.0125   0.0375   0.025
0.0125   0.0625   0.025
0.0125   0.0875   0.025
0.0125   0.1125   0.025
0.0125   0.1375   0.025
0.0125   0.1625   0.025
0.0125   0.1875   0.025
0.0125   0.2125   0.025
0.0125   0.2375   0.025
0.0125   0.2625   0.025
0.0125   0.2875   0.025
0.0125   0.3125   0.025
0.0125   0.3375   0.025
0.0125   0.3625   0.025
0.0125   0.3875   0.025
0.0125   0.4125   0.025
0.0125   0.4375   0.025
0.0125   0.4625   0.025
0.0125   0.4875   0.025
0.0125   0.5125   0.025
0.0125   0.5375   0.025
0.0125   0.5625   0.025
0.0125   0.5875   0.025
0.0125   0.6125   0.025
0.0125   0.6375   0.025
0.0125   0.6625   0.025
0.0125   0.6875   0.025
0.0125   0.7125   0.025
0.0125   0.7375   0.025
0.0125   0.7625   0.025
0.0125   0.7875   0.025
0.0125   0.8125   0.025
0.0125   0.8375   0.025
0.0125   0.8625   0.025
0.0125   0.8875   0.025
0.0125   0.9125   0.025
0.0125   0.9375   0.025
0.0125   0.9625   0.025
0.0125   0.9875   0.025
0.0375   0.0125   0.025
0.0375   0.0375   0.025
0.0375   0.0625   0.025
0.0375   0.0875   0.025
0.0375   0.1125   0.025
0.0375   0.1375   0.025
0.0375   0.1625   0.025
0.0375   0.1875   0.025
0.0375   0.2125   0.025
0.0375   0.2375   0.025
0.0375   0.2625   0.025
0.0375   0.2875   0.025
0.0375   0.3125   0.025
0.0375   0.3375   0.025
0.0375   0.3625   0.025
0.0375   0.3875   0.025
0.0375   0.4125   0.025
0.0375   0.4375   0.025
0.0375   0.4625   0.025
0.0375   0.4875   0.025
0.0375   0.5125   0.025
0.0375   0.5375   0.025
0.0375   0.5625   0.025
0.0375   0.5875   0.025
0.0375   0.6125   0.025
0.0375   0.6375   0.025
0.0375   0.6625   0.025
0.0375   0.6875   0.025
0.0375   0.7125   0.025
0.0375   0.7375   0.025
0.0375   0.7625   0.025
0.0375   0.7875   0.025
0.0375   0.8125   0.025
0.0375   0.8375   0.025
0.0375   0.8625   0.025
0.0375   0.8875   0.025
0.0375   0.9125   0.025
0.0375   0.9375   0.025
0.0375   0.9625   0.025
0.0375   0.9875   0.025
0.0625   0.0125   0.025
0.0625   0.0375   0.025
0.0625   0.0625   0.025
0.0625   0.0875   0.025
0.0625   0.1125   0.025
0.0625   0.1375   0.025
0.0625   0.1625   0.025
0.0625   0.1875   0.025
0.0625   0.2125   0.025
0.0625   0.2375   0.025
0.0625   0.2625   0.025
0.0625   0.2875   0.025
0.0625   0.3125   0.025
0.0625   0.3375   0.025
0.0625   0.3625   0.025
0.0625   0.3875   0.025
0.0625   0.4125   0.025
0.0625   0.4375   0.025
0.0625   0.4625   0.025
0.0625   0.4875   0.025
0.0625   0.5125   0.025
0.0625   0.5375   0.025
0.0625   0.5625   0.025
0.0625   0.5875   0.025
0.0625   0.6125   0.025
0.0625   0.6375   0.025
0.0625   0.6625   0.025
0.0625   0.6875   0.025
0.0625   0.7125   0.025
0.0625   0.7375   0.025
0.0625   0.7625   0.025
0.0625   0.7875   0.025
0.0625   0.8125   0.025
0.0625   0.8375   0.025
0.0625   0.8625   0.025
0.0625   0.8875   0.025
0.0625   0.9125   0.025
0.0625   0.9375   0.025
0.0625   0.9625   0.025
0.0625   0.9875   0.025
0.0875   0.0125   0.025
0.0875   0.0375   0.025
0.0875   0.0625   0.025
0.0875   0.0875   0.025
0.0875   0.1125   0.025
0.0875   0.1375   0.025
0.0875   0.1625   0.025
0.0875   0.1875   0.025
0.0875   0.2125   0.025
0.0875   0.2375   0.025
0.0875   0.2625   0.025
0.0875   0.2875   0.025
0.0875   0.3125   0.025
0.0875   0.3375   0.025
0.0875   0.3625   0.025
0.0875   0.3875   0.025
0.0875   0.4125   0.025
0.0875   0.4375   0.025
0.0875   0.4625   0.025
0.0875   0.4875   0.025
0.0875   0.5125   0.025
0.0875   0.5375   0.025
0.0875   0.5625   0.025
0.0875   0.5875   0.025
0.0875   0.6125   0.025
0.0875   0.6375   0.025
0.0875   0.6625   0.025
0.0875   0.6875   0.025
0.0875   0.7125   0.025
0.0875   0.7375   0.025
0.0875   0.7625   0.025
0.0875   0.7875   0.025
0.0875   0.8125   0.025
0.0875   0.8375   0.025
0.0875   0.8625   0.025
0.0875   0.8875   0.025
0.0875   0.9125   0.025
0.0875   0.9375   0.025
0.0875   0.9625   0.025
0.0875   0.9875   0.025
0.1125   0.0125   0.025
0.1125   0.0375   0.025
0.1125   0.0625   0.025
0.1125   0.0875   0.025
0.1125   0.1125   0.025
0.1125   0.1375   0.025
0.1125   0.1625   0.025
0.1125   0.1875   0.025
0.1125   0.2125   0.025
0.1125   0.2375   0.025
0.1125   0.2625   0.025
0.1125   0.2875   0.025
0.1125   0.3125   0.025
0.1125   0.3375   0.025
0.1125   0.3625   0.025
0.1125   0.3875   0.025
0.1125   0.4125   0.025
0.1125   0.4375   0.025
0.1125   0.4625   0.025
0.1125   0.4875   0.025
0.1125   0.5125   0.025
0.1125   0.5375   0.025
0.1125   0.5625   0.025
0.1125   0.5875   0.025
0.1125   0.6125   0.025
0.1125   0.6375   0.025
0.1125   0.6625   0.025
0.1125   0.6875   0.025
0.1125   0.7125   0.025
0.1125   0.7375   0.025
0.1125   0.7625   0.025
0.1125   0.7875   0.025
0.1125   0.8125   0.025
0.1125   0.8375   0.025
0.1125   0.8625   0.025
0.1125   0.8875   0.025
0.1125   0.9125   0.025
0.1125   0.9375   0.025
0.1125   0.9625   0.025
0.1125   0.9875   0.025
0.1375   0.0125   0.025
0.1375   0.0375   0.025
0.1375   0.0625   0.025
0.1375   0.0875   0.025
0.1375   0.1125   0.025
0.1375   0.1375   0.025
0.1375   0.1625   0.025
0.1375   0.1875   0.025
0.1375   0.2125   0.025
0.1375   0.2375   0.025
0.1375   0.2625   0.025
0.1375   0.2875   0.025
0.1375   0.3125   0.025
0.1375   0.3375   0.025
0.1375   0.3625   0.025
0.1375   0.3875   0.025
0.1375   0.4125   0.025
0.1375   0.4375   0.025
0.1375   0.4625   0.025
0.1375   0.4875   0.025
0.1375   0.5125   0.025
0.1375   0.5375   0.025
0.1375   0.5625   0.025
0.1375   0.5875   0.025
0.1375   0.6125   0.025
0.1375   0.6375   0.025
0.1375   0.6625   0.025
0.1375   0.6875   0.025
0.1375   0.7125   0.025
0.1375   0.7375   0.025
0.1375   0.7625   0.025
0.1375   0.7875   0.025
0.1375   0.8125   0.025
0.1375   0.8375   0.025
0.1375   0.8625   0.025
0.1375   0.8875   0.025
0.1375   0.9125   0.025
0.1375   0.9375   0.025
0.1375   0.9625   0.025
0.1375   0.9875   0.025
0.1625   0.0125   0.025
0.1625   0.0375   0.025
0.1625   0.0625   0.025
0.1625   0.0875   0.025
0.1625   0.1125   0.025
0.1625   0.1375   0.025
0.1625   0.1625   0.025
0.1625   0.1875   0.025
0.1625   0.2125   0.025
0.1625   0.2375   0.025
0.1625   0.2625   0.025
0.1625   0.2875   0.025
0.1625   0.3125   0.025
0.1625   0.3375   0.025
0.1625   0.3625   0.025
0.1625   0.3875   0.025
0.1625   0.4125   0.025
0.1625   0.4375   0.025
0.1625   0.4625   0.025
0.1625   0.4875   0.025
0.1625   0.5125   0.025
0.1625   0.5375   0.025
0.1625   0.5625   0.025
0.1625   0.5875   0.025
0.1625   0.6125   0.025
0.1625   0.6375   0.025
0.1625   0.6625   0.025
0.1625   0.6875   0.025
0.1625   0.7125   0.025
0.1625   0.7375   0.025
0.1625   0.7625   0.025
0.1625   0.7875   0.025
0.1625   0.8125   0.025
0.1625   0.8375   0.025
0.1625   0.8625   0.025
0.1625   0.8875   0.025
0.1625   0.9125   0.025
0.1625   0.9375   0.025
0.1625   0.9625   0.025
0.1625   0.9875   0.025
0.1875   0.0125   0.025
0.1875   0.0375   0.025
0.1875   0.0625   0.025
0.1875   0.0875   0.025
0.1875   0.1125   0.025
0.1875   0.1375   0.025
0.1875   0.1625   0.025
0.1875   0.1875   0.025
0.1875   0.2125   0.025
0.1875   0.2375   0.025
0.1875   0.2625   0.025
0.1875   0.2875   0.025
0.1875   0.3125   0.025
0.1875   0.3375   0.025
0.1875   0.3625   0.025
0.1875   0.3875   0.025
0.1875   0.4125   0.025
0.1875   0.4375   0.025
0.1875   0.4625   0.025
0.1875   0.4875   0.025
0.1875   0.5125   0.025
0.1875   0.5375   0.025
0.1875   0.5625   0.025
0.1875   0.5875   0.025
0.1875   0.6125   0.025
0.1875   0.6375   0.025
0.1875   0.6625   0.025
0.1875   0.6875   0.025
0.1875   0.7125   0.025
0.1875   0.7375   0.025
0.1875   0.7625   0.025
0.1875   0.7875   0.025
0.1875   0.8125   0.025
0.1875   0.8375   0.025
0.1875   0.8625   0.025
0.1875   0.8875   0.025
0.1875   0.9125   0.025
0.1875   0.9375   0.025
0.1875   0.9625   0.025
0.1875   0.9875   0.025
0.2125   0.0125   0.025
0.2125   0.0375   0.025
0.2125   0.0625   0.025
0.2125   0.0875   0.025
0.2125   0.1125   0.025
0.2125   0.1375   0.025
0.2125   0.1625   0.025
0.2125   0.1875   0.025
0.2125   0.2125   0.025
0.2125   0.2375   0.025
0.2125   0.2625   0.025
0.2125   0.2875   0.025
0.2125   0.3125   0.025
0.2125   0.3375   0.025
0.2125   0.3625   0.025
0.2125   0.3875   0.025
0.2125   0.4125   0.025
0.2125   0.4375   0.025
0.2125   0.4625   0.025
0.2125   0.4875   0.025
0.2125   0.5125   0.025
0.2125   0.5375   0.025
0.2125   0.5625   0.025
0.2125   0.5875   0.025
0.2125   0.6125   0.025
0.2125   0.6375   0.025
0.2125   0.6625   0.025
0.2125   0.6875   0.025
0.2125   0.7125   0.025
0.2125   0.7375   0.025
0.2125   0.7625   0.025
0.2125   0.7875   0.025
0.2125   0.8125   0.025
0.2125   0.8375   0.025
0.2125   0.8625   0.025
0.2125   0.8875   0.025
0.2125   0.9125   0.025
0.2125   0.9375   0.025
0.2125   0.9625   0.025
0.2125   0.9875   0.025
0.2375   0.0125   0.025
0.2375   0.0375   0.025
0.2375   0.0625   0.025
0.2375   0.0875   0.025
0.2375   0.1125   0.025
0.2375   0.1375   0.025
0.2375   0.1625   0.025
0.2375   0.1875   0.025
0.2375   0.2125   0.025
0.2375   0.2375   0.025
0.2375   0.2625   0.025
0.2375   0.2875   0.025
0.2375   0.3125   0.025
0.2375   0.3375   0.025
0.2375   0.3625   0.025
0.2375   0.3875   0.025
0.2375   0.4125   0.025
0.2375   0.4375   0.025
0.2375   0.4625   0.025
0.2375   0.4875   0.025
0.2375   0.5125   0.025
0.2375   0.5375   0.025
0.2375   0.5625   0.025
0.2375   0.5875   0.025
0.2375   0.6125   0.025
0.2375   0.6375   0.025
0.2375   0.6625   0.025
0.2375   0.6875   0.025
0.2375   0.7125   0.025
0.2375   0.7375   0.025
0.2375   0.7625   0.025
0.2375   0.7875   0.025
0.2375   0.8125   0.025
0.2375   0.8375   0.025
0.2375   0.8625   0.025
0.2375   0.8875   0.025
0.2375   0.9125   0.025
0.2375   0.9375   0.025
0.2375   0.9625   0.025
0.2375   0.9875   0.025
0.2625   0.0125   0.025
0.2625   0.0375   0.025
0.2625   0.0625   0.025
0.2625   0.0875   0.025
0.2625   0.1125   0.025
0.2625   0.1375   0.025
0.2625   0.1625   0.025
0.2625   0.1875   0.025
0.2625   0.2125   0.025
0.2625   0.2375   0.025
0.2625   0.2625   0.025
[...]
POINT_DATA   32000
VECTORS Velocidades double

7.08148e-05 0.00134822 0
0.000269129 0.00242693 0
0.000168335 0.00198694 0
2.21179e-05 0.00178888 0
-0.000117148 0.0018684 0
-0.000241825 0.00220174 0
-0.000353172 0.0027593 0
-0.00045351 0.00351558 0
-0.000544725 0.00444962 0
-0.000628104 0.00554394 0
-0.000704417 0.00678339 0
-0.000774009 0.00815415 0
-0.000836887 0.00964297 0
-0.000892806 0.0112366 0
-0.00094135 0.0129213 0
-0.000982032 0.0146826 0
-0.00101441 0.0165057 0
-0.00103818 0.0183748 0
-0.00105339 0.0202745 0
-0.0010605 0.02219 0
-0.00106065 0.0241083 0
-0.00105584 0.0260198 0
-0.00104919 0.0279202 0
-0.00104531 0.0298129 0
-0.00105079 0.0317128 0
-0.00107496 0.0336505 0
-0.001131 0.0356788 0
-0.00123778 0.0378828 0
-0.00142266 0.0403931 0
-0.00172613 0.0434082 0
-0.00220937 0.047228 0
-0.00296668 0.0523081 0
-0.00414654 0.0593476 0
-0.00598631 0.0694337 0
-0.00886362 0.0842733 0
-0.0133331 0.106513 0
-0.0198882 0.139862 0
-0.0268154 0.186826 0
-0.0162486 0.230355 0
0.124154 0.12345 0
0.00015605 0.00287611 0
0.000621997 0.00566822 0
0.000323526 0.00559548 0
-0.00017762 0.0058239 0
-0.000705229 0.00650342 0
-0.00120754 0.00767625 0
-0.00167228 0.00933373 0
-0.00209915 0.0114478 0
-0.00249089 0.0139849 0
-0.00285028 0.0169107 0
-0.00317923 0.020192 0
-0.00347857 0.023796 0
-0.00374805 0.0276903 0
-0.0039866 0.0318418 0
-0.00419256 0.0362161 0
-0.00436411 0.0407774 0
-0.00449965 0.0454887 0
-0.00459833 0.0503122 0
-0.00466069 0.0552106 0
-0.00468923 0.0601488 0
-0.00468927 0.0650967 0
-0.00466976 0.0700324 0
-0.00464439 0.0749465 0
-0.00463298 0.079848 0
-0.0046634 0.0847711 0
-0.00477421 0.0897847 0
-0.0050186 0.0950047 0
-0.00547019 0.100609 0
-0.00623157 0.106861 0
-0.00744686 0.114132 0
-0.00931965 0.122941 0
-0.0121376 0.133986 0
-0.0163024 0.14817 0
-0.0223516 0.166564 0
-0.0309122 0.190178 0
-0.0423279 0.219129 0
-0.0548974 0.250082 0
-0.0572157 0.269047 0
0.00424738 0.236307 0
0.348737 0.0999135 0
0.000109634 0.00409418 0
0.000534637 0.00836078 0
-2.97223e-05 0.00887315 0
-0.000990479 0.00980157 0
-0.00206739 0.0112754 0
-0.0031405 0.01336 0
-0.00416287 0.016069 0
-0.00511883 0.0193864 0
-0.00600508 0.0232806 0
-0.00682241 0.0277135 0
-0.007572 0.0326437 0
-0.00825398 0.038028 0
-0.00886697 0.0438219 0
-0.00940816 0.049979 0
-0.00987385 0.0564508 0
-0.0102601 0.0631864 0
-0.0105636 0.070133 0
-0.0107829 0.0772367 0
-0.0109195 0.0844441 0
-0.0109795 0.0917045 0
-0.0109749 0.0989732 0
-0.0109258 0.106216 0
-0.0108624 0.113413 0
-0.0108275 0.120567 0
-0.0108805 0.12771 0
-0.0111018 0.134913 0
-0.0115987 0.142297 0
-0.0125146 0.150042 0
-0.0140393 0.158404 0
-0.0164226 0.167718 0
-0.0199864 0.178403 0
-0.0251284 0.190921 0
-0.0322919 0.205686 0
-0.0418334 0.222801 0
-0.0535924 0.24147 0
-0.0655905 0.258678 0
-0.0701308 0.266553 0
-0.0422191 0.248323 0
0.0918869 0.179241 0
0.513877 0.0642988 0
-8.2842e-05 0.00518768 0
-3.63368e-05 0.0107791 0
-0.00103789 0.0118536 0
-0.00255399 0.0134976 0
-0.00426827 0.0157784 0
-0.00601283 0.0187438 0
-0.00770562 0.02241 0
-0.0093098 0.0267676 0
-0.0108105 0.0317901 0
-0.0122024 0.0374404 0
-0.013483 0.0436756 0
-0.0146497 0.0504481 0
-0.0156986 0.0577073 0
-0.0166238 0.0653989 0
-0.0174186 0.0734654 0
-0.0180759 0.0818457 0
-0.0185901 0.0904757 0
-0.0189584 0.0992894 0
-0.0191829 0.10822 0
-0.0192732 0.117203 0
-0.0192482 0.126178 0
-0.0191398 0.135094 0
-0.018995 0.143916 0
-0.0188806 0.152625 0
-0.0188871 0.161229 0
-0.0191338 0.16977 0
-0.0197758 0.178325 0
-0.0210109 0.187012 0
-0.0230863 0.19599 0
-0.0263006 0.205439 0
-0.0309927 0.215527 0
-0.0374934 0.226323 0
-0.0459885 0.237623 0
-0.056172 0.248609 0
-0.0663986 0.257221 0
-0.07164 0.259079 0
-0.0586249 0.246054 0
0.00503905 0.205986 0
0.190464 0.130009 0
0.620223 0.0412843 0
-0.000405599 0.00618063 0
-0.00102592 0.012958 0
-0.00265841 0.0145134 0
-0.00484023 0.0167905 0
-0.00726218 0.0197957 0
-0.00973704 0.0235429 0
-0.0121599 0.0280357 0
-0.0144756 0.0332625 0
-0.016657 0.0391986 0
-0.0186904 0.045809 0
-0.0205676 0.0530518 0
-0.0222815 0.060879 0
-0.0238237 0.0692375 0
-0.0251842 0.0780696 0
-0.0263517 0.0873124 0
-0.0273149 0.0968981 0
-0.0280641 0.106754 0
-0.0285941 0.116805 0
-0.0289061 0.126971 0
-0.0290113 0.137174 0
-0.028934 0.147337 0
-0.0287148 0.157389 0
-0.0284149 0.167269 0
-0.0281198 0.17693 0
-0.0279435 0.186341 0
-0.0280334 0.195491 0
-0.0285739 0.204391 0
-0.0297893 0.213066 0
-0.0319399 0.221539 0
-0.0353072 0.22981 0
-0.0401477 0.237787 0
-0.0465845 0.24519 0
-0.0543619 0.251358 0
-0.0623154 0.254945 0
-0.0672453 0.253436 0
-0.0615769 0.24254 0
-0.0287341 0.215888 0
0.0648464 0.166708 0
0.278606 0.0954898 0
0.689798 0.0276311 0
-0.000835052 0.00705843 0
-0.00235622 0.0148679 0
-0.00479336 0.0168116 0
-0.00774903 0.0196084 0
-0.0109416 0.023215 0
-0.0141862 0.0276108 0
-0.0173695 0.0327797 0
-0.0204258 0.038702 0
-0.0233182 0.045351 0
-0.0260252 0.0526928 0
-0.0285322 0.0606871 0
-0.0308263 0.0692872 0
-0.0328936 0.0784406 0
-0.034718 0.0880882 0
-0.0362824 0.0981646 0
-0.0375692 0.108597 0
-0.0385632 0.119308 0
-0.0392542 0.130211 0
-0.0396404 0.141217 0
-0.0397316 0.152231 0
-0.0395538 0.16316 0
-0.0391524 0.173908 0
-0.0385967 0.184387 0
-0.0379835 0.194513 0
-0.0374402 0.20421 0
-0.0371277 0.213411 0
-0.0372399 0.222049 0
-0.0379996 0.230052 0
-0.0396431 0.237322 0
-0.0423845 0.243696 0
-0.0463374 0.248887 0
-0.0513518 0.252383 0
-0.0566855 0.253289 0
-0.0603576 0.250095 0
-0.0579073 0.240385 0
-0.0401171 0.22063 0
0.0107813 0.186563 0
0.126074 0.135444 0
0.35258 0.0721915 0
0.737461 0.0194478 0
-0.00134751 0.00780078 0
-0.00395209 0.0164707 0
-0.00733434 0.0187126 0
-0.0111564 0.0219111 0
-0.0151727 0.0259855 0
-0.0192146 0.0308849 0
-0.0231722 0.0365734 0
-0.0269775 0.0430208 0
-0.0305887 0.0501961 0
-0.0339786 0.0580654 0
-0.0371269 0.0665901 0
-0.0400144 0.0757256 0
-0.0426204 0.0854212 0
-0.0449218 0.0956184 0
-0.0468935 0.106251 0
-0.0485099 0.117243 0
-0.0497477 0.128511 0
-0.0505893 0.139962 0
-0.0510264 0.151493 0
-0.0510641 0.162997 0
-0.0507256 0.17436 0
-0.0500561 0.185463 0
-0.0491266 0.196188 0
-0.0480373 0.206413 0
-0.0469189 0.216019 0
-0.0459328 0.224881 0
-0.0452663 0.232865 0
-0.0451205 0.239818 0
-0.0456838 0.24554 0
-0.0470783 0.249758 0
-0.0492535 0.252064 0
-0.0517834 0.251834 0
-0.0534849 0.248112 0
-0.0517174 0.239457 0
-0.0411502 0.223813 0
-0.0117462 0.198562 0
0.0540635 0.161219 0
0.183955 0.111612 0
0.413911 0.0563551 0
0.771809 0.0143727 0
-0.00192138 0.00839057 0
-0.00574476 0.0177358 0
-0.0101773 0.0201929 0
-0.0149365 0.0236812 0
-0.0198164 0.0280923 0
-0.0246725 0.0333515 0
-0.0294075 0.0394062 0
-0.033958 0.0462158 0
-0.0382823 0.053745 0
-0.0423508 0.0619594 0
-0.0461384 0.0708221 0
-0.04962 0.0802915 0
-0.0527675 0.0903191 0
-0.0555493 0.100848 0
-0.0579305 0.111813 0
-0.0598753 0.123136 0
-0.0613497 0.134727 0
-0.0623255 0.146488 0
-0.0627845 0.158304 0
-0.0627232 0.170052 0
-0.0621576 0.181601 0
-0.0611275 0.192807 0
-0.0596997 0.203524 0
-0.057971 0.213596 0
-0.0560676 0.222862 0
-0.054142 0.231149 0
-0.0523644 0.23827 0
-0.0509037 0.244009 0
-0.0498908 0.248101 0
-0.0493507 0.250205 0
-0.0490762 0.249859 0
-0.0483984 0.246417 0
-0.045777 0.238966 0
-0.0380941 0.226249 0
-0.0195027 0.206638 0
0.0202529 0.178345 0
0.097781 0.140206 0
0.23693 0.0935489 0
0.465075 0.0453385 0
0.797754 0.0110923 0
-0.00253768 0.00881564 0
-0.00767292 0.0186423 0
-0.013227 0.0212403 0
-0.0189704 0.0249158 0
-0.0247382 0.0295407 0
-0.0304148 0.0350233 0
-0.0359216 0.0412981 0
-0.0412056 0.0483169 0
-0.0462298 0.056041 0
-0.0509649 0.064436 0
-0.0553828 0.0734676 0
-0.0594529 0.0830973 0
-0.0631392 0.0932802 0
-0.0664002 0.103962 0
-0.0691898 0.115078 0
-0.0714592 0.126549 0
-0.0731609 0.138282 0
-0.074253 0.15017 0
-0.0747038 0.162089 0
-0.0744971 0.173902 0
-0.0736378 0.185459 0
-0.0721557 0.196595 0
-0.0701088 0.207136 0
-0.0675853 0.216897 0
-0.0647015 0.225683 0
-0.0615963 0.233283 0
-0.0584181 0.239471 0
-0.0553006 0.243987 0
-0.0523182 0.246533 0
-0.0494074 0.246737 0
-0.046226 0.24413 0
-0.0419088 0.238095 0
-0.034649 0.227818 0
-0.0210145 0.212259 0
0.00508227 0.190198 0
0.0537258 0.160521 0
0.140215 0.12298 0
0.284831 0.0797183 0
0.508292 0.0374464 0
0.818163 0.00887838 0
-0.00317995 0.00906823 0
-0.00968257 0.0191782 0
-0.0163984 0.0218507 0
-0.0231494 0.0256202 0
-0.0298127 0.0303457 0
-0.0363049 0.0359242 0
-0.0425702 0.0422823 0
-0.0485705 0.0493671 0
-0.054277 0.0571387 0
-0.0596631 0.0655646 0
-0.0646996 0.0746135 0
-0.0693506 0.0842516 0
-0.0735719 0.0944381 0
-0.0773109 0.105122 0
-0.080508 0.11624 0
-0.0830994 0.127713 0
-0.0850211 0.139445 0
-0.0862141 0.151322 0
-0.0866296 0.163211 0
-0.0862355 0.174962 0
-0.0850215 0.186406 0
-0.0830036 0.197361 0
-0.080228 0.207629 0
-0.076771 0.216999 0
-0.0727367 0.225249 0
-0.0682484 0.232141 0
-0.0634332 0.237421 0
-0.0583922 0.24081 0
-0.0531509 0.24199 0
-0.0475717 0.240589 0
-0.0412048 0.236158 0
-0.033036 0.228137 0
-0.0210725 0.21583 0
-0.00170112 0.198408 0
0.0312095 0.175003 0
0.0873377 0.145017 0
0.180562 0.108815 0
0.328017 0.0689413 0
0.545304 0.031612 0
0.83476 0.0073187 0
-0.00383373 0.009144 0
-0.0117256 0.0193374 0
-0.0196144 0.0220245 0
-0.0273734 0.0258032 0
-0.034923 0.0305247 0
-0.0422143 0.0360806 0
-0.0492172 0.0423936 0
-0.0559117 0.0494101 0
-0.06228 0.0570919 0
-0.0683006 0.0654099 0
-0.0739439 0.0743379 0
-0.0791692 0.0838476 0
-0.0839235 0.0939036 0
-0.088142 0.10446 0
-0.0917498 0.115454 0
-0.0946652 0.12681 0
-0.096805 0.138427 0
-0.0980898 0.150187 0
-0.0984506 0.161948 0
-0.0978356 0.173549 0
-0.0962162 0.184805 0
-0.0935923 0.195516 0
-0.0899956 0.205466 0
-0.0854893 0.214423 0
-0.0801648 0.222143 0
-0.0741314 0.228371 0
-0.0674976 0.232836 0
-0.0603385 0.235249 0
-0.0526405 0.235292 0
-0.0442088 0.232607 0
-0.0345126 0.22678 0
-0.0224311 0.217318 0
-0.00585218 0.203642 0
0.0189175 0.185113 0
0.0579172 0.16115 0
0.12029 0.131539 0
0.21851 0.0970434 0
0.366998 0.0603643 0
0.577411 0.0271595 0
0.848618 0.00617349 0
-0.0044861 0.00904121 0
-0.0137589 0.0191184 0
-0.022805 0.0217651 0
-0.0315505 0.0254742 0
-0.0399605 0.0300944 0
-0.0480224 0.0355161 0
-0.0557345 0.0416631 0
-0.0630969 0.0484844 0
-0.0701047 0.0559465 0
-0.076743 0.0640261 0
-0.0829827 0.072704 0
-0.0887785 0.0819589 0
-0.094068 0.0917621 0
-0.0987725 0.102073 0
-0.1028 0.112834 0
-0.106049 0.123968 0
-0.108413 0.135377 0
-0.10979 0.146936 0
-0.110087 0.158497 0
-0.10923 0.169888 0
-0.10717 0.180911 0
-0.103887 0.191353 0
-0.0993977 0.200979 0
-0.0937526 0.209541 0
-0.0870314 0.216781 0
-0.079332 0.222431 0
-0.0707495 0.226211 0
-0.0613404 0.227832 0
-0.0510631 0.226985 0
-0.0396818 0.223335 0
-0.0266083 0.216505 0
-0.0106504 0.206072 0
0.0103702 0.191565 0
0.0401521 0.172504 0
0.0845524 0.148539 0
0.152116 0.119735 0
0.253988 0.0871093 0
0.402276 0.0533788 0
0.605573 0.0236535 0
0.860422 0.00529885 0
-0.00512512 0.00875998 0
-0.0157423 0.0185226 0
-0.0259053 0.0210768 0
-0.0355952 0.0246421 0
-0.0448237 0.0290687 0
-0.0536165 0.0342504 0
-0.0620017 0.040116 0
-0.0700013 0.0466209 0
-0.0776248 0.0537391 0
-0.0848645 0.0614557 0
-0.0916925 0.0697601 0
-0.0980585 0.0786399 0
-0.10389 0.0880745 0
-0.109093 0.09803 0
-0.113557 0.108455 0
-0.117157 0.119275 0
-0.119763 0.130392 0
-0.121244 0.141679 0
-0.121483 0.152983 0
-0.120378 0.164122 0
-0.117857 0.17489 0
-0.113883 0.185058 0
-0.108454 0.194379 0
-0.101608 0.202593 0
-0.093416 0.20943 0
-0.0839688 0.214614 0
-0.0733532 0.217863 0
-0.0616149 0.218891 0
-0.0486951 0.217403 0
-0.034331 0.213087 0
-0.0178969 0.20561 0
0.00184188 0.194608 0
0.0270887 0.179704 0
0.0614925 0.160555 0
0.11067 0.136985 0
0.182548 0.109268 0
0.28704 0.0785702 0
0.434289 0.0475488 0
0.630489 0.020806 0
0.870625 0.00460525 0
-0.00573929 0.0083022 0
-0.0176377 0.0175542 0
-0.0288535 0.0199656 0
-0.039426 0.0233155 0
-0.0494158 0.0274598 0
-0.0588885 0.0322999 0
-0.0679032 0.0377733 0
-0.076505 0.0438451 0
-0.0847182 0.0504994 0
-0.0925434 0.0577319 0
-0.0999534 0.0655429 0
-0.106893 0.0739302 0
-0.113279 0.082883 0
-0.119 0.0923763 0
-0.123925 0.102365 0
-0.127904 0.112781 0
-0.130779 0.123527 0
-0.132391 0.134476 0
-0.13259 0.145472 0
-0.131249 0.156327 0
-0.128271 0.166826 0
-0.123594 0.17673 0
-0.117203 0.185782 0
-0.109123 0.19371 0
-0.0994198 0.200238 0
-0.0881792 0.205083 0
-0.0754865 0.207964 0
-0.0613836 0.208602 0
-0.0458038 0.206714 0
-0.0284697 0.202015 0
-0.00873445 0.194206 0
0.0146562 0.182981 0
0.0438988 0.168041 0
0.0825526 0.14915 0
0.135959 0.126274 0
0.211426 0.0998311 0
0.317747 0.0710746 0
0.463394 0.0425568 0
0.652671 0.0184209 0
0.879531 0.00403487 0
-0.00631712 0.00767166 0
-0.0194074 0.0162211 0
-0.0315893 0.0184398 0
-0.0429641 0.0215044 0
-0.0536435 0.0252805 0
-0.0637344 0.0296809 0
-0.0733278 0.0346552 0
-0.082492 0.0401808 0
-0.0912669 0.0462545 0
-0.0996608 0.0528846 0
-0.107648 0.0600837 0
-0.115167 0.0678616 0
-0.122123 0.076219 0
-0.128389 0.0851413 0
-0.133808 0.0945925 0
-0.138204 0.104511 0
-0.141389 0.114804 0
-0.14317 0.125349 0
-0.143368 0.135986 0
-0.141822 0.146524 0
-0.138409 0.156744 0
-0.133044 0.166398 0
-0.125696 0.175221 0
-0.11638 0.182934 0
-0.105155 0.189253 0
-0.09211 0.193893 0
-0.0773318 0.196573 0
-0.0608655 0.197021 0
-0.0426443 0.194967 0
-0.0223862 0.190147 0
0.000563492 0.182295 0
0.02746 0.17115 0
0.0604681 0.156478 0
0.103029 0.138132 0
0.160186 0.116185 0
0.238649 0.0911569 0
0.346194 0.0643419 0
0.489871 0.0381661 0
0.672489 0.0163601 0
0.887346 0.0035488 0
-0.00684688 0.00687438 0
-0.0210139 0.014535 0
-0.0340536 0.0165116 0
-0.046133 0.0192226 0
-0.057417 0.0225472 0
-0.0680543 0.0264133 0
-0.0781682 0.0307853 0
-0.0878501 0.0356556 0
-0.0971554 0.0410352 0
-0.1061 0.0469465 0
-0.114659 0.0534158 0
-0.122766 0.0604665 0
-0.130312 0.0681122 0
-0.137151 0.0763503 0
-0.143104 0.0851562 0
-0.147965 0.0944774 0
-0.151512 0.10423 0
-0.153519 0.114294 0
-0.15377 0.124513 0
-0.152072 0.134698 0
-0.14827 0.144624 0
-0.142259 0.154039 0
-0.133987 0.162673 0
-0.123461 0.170241 0
-0.110738 0.176452 0
-0.09591 0.18102 0
-0.0790708 0.183665 0
-0.0602737 0.184119 0
-0.0394586 0.182123 0
-0.0163471 0.17743 0
0.00971236 0.169799 0
0.0399611 0.159008 0
0.0765126 0.144873 0
0.122669 0.12732 0
0.183165 0.106502 0
0.264137 0.0830088 0
0.372444 0.0581435 0
0.513924 0.0341955 0
0.690206 0.0145228 0
0.89421 0.00311978 0
-0.00731647 0.00591917 0
-0.0224194 0.0125137 0
-0.0361882 0.0141994 0
-0.0488587 0.0164902 0
-0.06065 0.0192835 0
-0.0717528 0.022525 0
-0.0823219 0.0261966 0
-0.0924714 0.0303069 0
-0.102272 0.0348826 0
-0.111746 0.039961 0
-0.12087 0.0455832 0
-0.12957 0.051787 0
-0.137727 0.0586003 0
-0.145173 0.0660346 0
-0.151705 0.0740786 0
-0.157086 0.0826924 0
-0.16106 0.0918024 0
-0.163362 0.101298 0
-0.16374 0.11103 0
-0.161964 0.12081 0
-0.157847 0.130416 0
-0.151257 0.139595 0
-0.142125 0.148072 0
-0.130449 0.155557 0
-0.116284 0.161758 0
-0.0997257 0.166384 0
-0.0808808 0.169155 0
-0.0598142 0.169804 0
-0.0364776 0.168081 0
-0.0106028 0.163749 0
0.0184494 0.156588 0
0.0518941 0.146405 0
0.0917782 0.133057 0
0.141249 0.116523 0
0.204732 0.0970183 0
0.287815 0.0751776 0
0.396534 0.0522897 0
0.535696 0.0305018 0
0.706003 0.0128329 0
0.900217 0.0027279 0
-0.00771352 0.0048182 0
-0.0235868 0.0101817 0
-0.0379369 0.0115292 0
-0.0510706 0.0133367 0
-0.0632611 0.0155237 0
-0.0747399 0.0180564 0
-0.085692 0.0209359 0
-0.0962531 0.0241878 0
-0.106507 0.0278548 0
-0.116485 0.0319897 0
-0.126163 0.0366483 0
-0.135461 0.0418836 0
-0.144246 0.0477391 0
-0.152333 0.054242 0
-0.159492 0.0613969 0
-0.165455 0.0691793 0
-0.169929 0.0775303 0
-0.172611 0.0863524 0
-0.173207 0.0955071 0
-0.17145 0.104815 0
-0.167116 0.114058 0
-0.160046 0.122987 0
-0.150151 0.131324 0
-0.137417 0.13878 0
-0.121898 0.145057 0
-0.103697 0.149861 0
-0.0829326 0.15291 0
-0.0596852 0.153937 0
-0.0339224 0.152693 0
-0.0053918 0.148949 0
0.026526 0.142498 0
0.0630095 0.133165 0
0.106027 0.120842 0
0.158559 0.105546 0
0.224723 0.0875372 0
0.309592 0.0674758 0
0.418463 0.0466189 0
0.555269 0.0269688 0
0.719993 0.0112307 0
0.905422 0.00235802 0
-0.00802563 0.00358755 0
-0.0244798 0.00757226 0
-0.0392468 0.00853724 0
-0.0527037 0.00980351 0
-0.0651761 0.0113163 0
-0.0769337 0.0130646 0
-0.0881896 0.015069 0
-0.0990992 0.0173725 0
-0.10976 0.0200333 0
-0.120208 0.0231188 0
-0.13042 0.0266997 0
-0.140313 0.0308441 0
-0.14974 0.0356118 0
-0.158498 0.0410473 0
-0.166331 0.0471736 0
-0.172941 0.0539851 0
-0.177997 0.0614419 0
-0.181156 0.0694646 0
-0.18208 0.0779308 0
-0.180461 0.0866749 0
-0.176037 0.0954898 0
-0.168617 0.104132 0
-0.158088 0.112329 0
-0.144424 0.119789 0
-0.127676 0.126214 0
-0.107953 0.131304 0
-0.0853877 0.134773 0
-0.0600764 0.13635 0
-0.032006 0.135784 0
-0.00094425 0.132847 0
0.0337018 0.127337 0
0.0730654 0.119094 0
0.119025 0.10803 0
0.174391 0.094193 0
0.242973 0.0778703 0
0.329362 0.0597322 0
0.438197 0.0409904 0
0.572673 0.0234991 0
0.732238 0.00966793 0
0.909855 0.00199818 0
-0.00824088 0.00224766 0
-0.0250654 0.00472789 0
-0.0400704 0.00527109 0
-0.053701 0.00594606 0
-0.0663304 0.00672689 0
-0.0782632 0.00762636 0
-0.089737 0.00868454 0
-0.100925 0.00996074 0
-0.111934 0.0115275 0
-0.12281 0.0134655 0
-0.133529 0.015859 0
-0.144003 0.0187911 0
-0.154076 0.0223378 0
-0.163527 0.0265623 0
-0.172078 0.0315084 0
-0.179398 0.037193 0
-0.185122 0.0435997 0
-0.188864 0.0506726 0
-0.190241 0.0583122 0
-0.188901 0.0663731 0
-0.184541 0.074665 0
-0.176933 0.0829571 0
-0.165936 0.0909849 0
-0.151509 0.0984602 0
-0.133695 0.105082 0
-0.112609 0.110548 0
-0.0883948 0.114565 0
-0.0611668 0.116853 0
-0.0309324 0.117154 0
0.00251674 0.115236 0
0.0397414 0.110897 0
0.0818222 0.103982 0
0.13054 0.0944164 0
0.188528 0.0822668 0
0.259297 0.0678358 0
0.346992 0.0517883 0
0.455664 0.0352784 0
0.587893 0.0200087 0
0.742752 0.00810418 0
0.913525 0.00163868 0
-0.00834826 0.000823588 0
-0.0253143 0.00170149 0
-0.0403678 0.00179096 0
-0.0540151 0.00183522 0
-0.0666713 0.0018394 0
-0.0786697 0.00184027 0
-0.0902684 0.00189626 0
-0.101655 0.00208099 0
-0.112947 0.00247898 0
-0.124194 0.00318213 0
-0.135378 0.0042865 0
-0.146405 0.00588855 0
-0.157114 0.00808056 0
-0.167269 0.0109451 0
-0.17657 0.0145486 0
-0.18466 0.018934 0
-0.191137 0.0241131 0
-0.195574 0.0300599 0
-0.197544 0.0367045 0
-0.196645 0.0439294 0
-0.192529 0.0515691 0
-0.184928 0.0594124 0
-0.173668 0.0672087 0
-0.158684 0.0746775 0
-0.14001 0.0815189 0
-0.11776 0.0874262 0
-0.0920879 0.0920967 0
-0.0631245 0.0952405 0
-0.0308986 0.096588 0
0.00477118 0.0958955 0
0.0444089 0.0929548 0
0.0890354 0.0876095 0
0.140328 0.0797896 0
0.200739 0.0695696 0
0.273493 0.0572556 0
0.362319 0.0434936 0
0.470751 0.0293678 0
0.600869 0.016423 0
0.751512 0.00650452 0
0.916421 0.00127121 0
-0.00833849 -0.000654848 0
-0.0252038 -0.00144352 0
-0.0401094 -0.00182991 0
-0.0536126 -0.00244204 0
-0.0661617 -0.00324268 0
-0.0781115 -0.00417203 0
-0.0897351 -0.00515553 0
-0.101231 -0.00610809 0
-0.112726 -0.00693637 0
-0.124276 -0.00754035 0
-0.135864 -0.00781492 0
-0.1474 -0.0076522 0
-0.158715 -0.00694491 0
-0.169566 -0.00559111 0
-0.179636 -0.00350026 0
-0.188543 -0.000600589 0
-0.195852 0.00315289 0
-0.201098 0.00777009 0
-0.203807 0.0132185 0
-0.203528 0.0194173 0
-0.199863 0.0262345 0
-0.192497 0.0334876 0
-0.181217 0.0409477 0
-0.165927 0.0483476 0
-0.146645 0.0553929 0
-0.123477 0.0617739 0
-0.0965806 0.0671785 0
-0.0661026 0.0713026 0
-0.0320922 0.0738602 0
0.00560338 0.0745916 0
0.0474669 0.073275 0
0.0944539 0.0697456 0
0.148132 0.0639296 0
0.210775 0.0558995 0
0.285331 0.0459528 0
0.375146 0.0347028 0
0.483307 0.0231507 0
0.611498 0.0126746 0
0.758457 0.00483841 0
0.918517 0.000888838 0
-0.008205 -0.00215366 0
-0.0247202 -0.00463426 0
-0.0392795 -0.00550627 0
-0.0524779 -0.00678376 0
-0.0647849 -0.00839762 0
-0.0765686 -0.0102672 0
-0.088111 -0.0123049 0
-0.0996176 -0.0144181 0
-0.111222 -0.0165085 0
-0.122987 -0.0184719 0
-0.1349 -0.0201976 0
-0.146876 -0.0215694 0
-0.158746 -0.0224672 0
-0.170263 -0.0227708 0
-0.181098 -0.0223651 0
-0.190849 -0.0211473 0
-0.199057 -0.0190352 0
-0.205218 -0.015977 0
-0.208815 -0.0119598 0