# vtk DataFile Version 2.0
Velocidades
ASCII

DATASET STRUCTURED_GRID
DIMENSIONS   40   40   10

POINTS   16000   double
0.0125   0.0125   0.05
0.0125   0.0375   0.05
0.0125   0.0625   0.05
0.0125   0.0875   0.05
0.0125   0.1125   0.05
0.0125   0.1375   0.05
0.0125   0.1625   0.05
0.0125   0.1875   0.05
0.0125   0.2125   0.05
0.0125   0.2375   0.05
0.0125   0.2625   0.05
0.0125   0.2875   0.05
0.0125   0.3125   0.05
0.0125   0.3375   0.05
0.0125   0.3625   0.05
0.0125   0.3875   0.05
0.0125   0.4125   0.05
0.0125   0.4375   0.05
0.0125   0.4625   0.05
0.0125   0.4875   0.05
0.0125   0.5125   0.05
0.0125   0.5375   0.05
0.0125   0.5625   0.05
0.0125   0.5875   0.05
0.0125   0.6125   0.05
0.0125   0.6375   0.05
0.0125   0.6625   0.05
0.0125   0.6875   0.05
0.0125   0.7125   0.05
0.0125   0.7375   0.05
0.0125   0.7625   0.05
0.0125   0.7875   0.05
0.0125   0.8125   0.05
0.0125   0.8375   0.05
0.0125   0.8625   0.05
0.0125   0.8875   0.05
0.0125   0.9125   0.05
0.0125   0.9375   0.05
0.0125   0.9625   0.05
0.0125   0.9875   0.05
0.0375   0.0125   0.05
0.0375   0.0375   0.05
0.0375   0.0625   0.05
0.0375   0.0875   0.05
0.0375   0.1125   0.05
0.0375   0.1375   0.05
0.0375   0.1625   0.05
0.0375   0.1875   0.05
0.0375   0.2125   0.05
0.0375   0.2375   0.05
0.0375   0.2625   0.05
0.0375   0.2875   0.05
0.0375   0.3125   0.05
0.0375   0.3375   0.05
0.0375   0.3625   0.05
0.0375   0.3875   0.05
0.0375   0.4125   0.05
0.0375   0.4375   0.05
0.0375   0.4625   0.05
0.0375   0.4875   0.05
0.0375   0.5125   0.05
0.0375   0.5375   0.05
0.0375   0.5625   0.05
0.0375   0.5875   0.05
0.0375   0.6125   0.05
0.0375   0.6375   0.05
0.0375   0.6625   0.05
0.0375   0.6875   0.05
0.0375   0.7125   0.05
0.0375   0.7375   0.05
0.0375   0.7625   0.05
0.0375   0.7875   0.05
0.0375   0.8125   0.05
0.0375   0.8375   0.05
0.0375   0.8625   0.05
0.0375   0.8875   0.05
0.0375   0.9125   0.05
0.0375   0.9375   0.05
0.0375   0.9625   0.05
0.0375   0.9875   0.05
0.0625   0.0125   0.05
0.0625   0.0375   0.05
0.0625   0.0625   0.05
0.0625   0.0875   0.05
0.0625   0.1125   0.05
0.0625   0.1375   0.05
0.0625   0.1625   0.05
0.0625   0.1875   0.05
0.0625   0.2125   0.05
0.0625   0.2375   0.05
0.0625   0.2625   0.05
0.0625   0.2875   0.05
0.0625   0.3125   0.05
0.0625   0.3375   0.05
0.0625   0.3625   0.05
0.0625   0.3875   0.05
0.0625   0.4125   0.05
0.0625   0.4375   0.05
0.0625   0.4625   0.05
0.0625   0.4875   0.05
0.0625   0.5125   0.05
0.0625   0.5375   0.05
0.0625   0.5625   0.05
0.0625   0.5875   0.05
0.0625   0.6125   0.05
0.0625   0.6375   0.05
0.0625   0.6625   0.05
0.0625   0.6875   0.05
0.0625   0.7125   0.05
0.0625   0.7375   0.05
0.0625   0.7625   0.05
0.0625   0.7875   0.05
0.0625   0.8125   0.05
0.0625   0.8375   0.05
0.0625   0.8625   0.05
0.0625   0.8875   0.05
0.0625   0.9125   0.05
0.0625   0.9375   0.05
0.0625   0.9625   0.05
0.0625   0.9875   0.05
0.0875   0.0125   0.05
0.0875   0.0375   0.05
0.0875   0.0625   0.05
0.0875   0.0875   0.05
0.0875   0.1125   0.05
0.0875   0.1375   0.05
0.0875   0.1625   0.05
0.0875   0.1875   0.05
0.0875   0.2125   0.05
0.0875   0.2375   0.05
0.0875   0.2625   0.05
0.0875   0.2875   0.05
0.0875   0.3125   0.05
0.0875   0.3375   0.05
0.0875   0.3625   0.05
0.0875   0.3875   0.05
0.0875   0.4125   0.05
0.0875   0.4375   0.05
0.0875   0.4625   0.05
0.0875   0.4875   0.05
0.0875   0.5125   0.05
0.0875   0.5375   0.05
0.0875   0.5625   0.05
0.0875   0.5875   0.05
0.0875   0.6125   0.05
0.0875   0.6375   0.05
0.0875   0.6625   0.05
0.0875   0.6875   0.05
0.0875   0.7125   0.05
0.0875   0.7375   0.05
0.0875   0.7625   0.05
0.0875   0.7875   0.05
0.0875   0.8125   0.05
0.0875   0.8375   0.05
0.0875   0.8625   0.05
0.0875   0.8875   0.05
0.0875   0.9125   0.05
0.0875   0.9375   0.05
0.0875   0.9625   0.05
0.0875   0.9875   0.05
0.1125   0.0125   0.05
0.1125   0.0375   0.05
0.1125   0.0625   0.05
0.1125   0.0875   0.05
0.1125   0.1125   0.05
0.1125   0.1375   0.05
0.1125   0.1625   0.05
0.1125   0.1875   0.05
0.1125   0.2125   0.05
0.1125   0.2375   0.05
0.1125   0.2625   0.05
0.1125   0.2875   0.05
0.1125   0.3125   0.05
0.1125   0.3375   0.05
0.1125   0.3625   0.05
0.1125   0.3875   0.05
0.1125   0.4125   0.05
0.1125   0.4375   0.05
0.1125   0.4625   0.05
0.1125   0.4875   0.05
0.1125   0.5125   0.05
0.1125   0.5375   0.05
0.1125   0.5625   0.05
0.1125   0.5875   0.05
0.1125   0.6125   0.05
0.1125   0.6375   0.05
0.1125   0.6625   0.05
0.1125   0.6875   0.05
0.1125   0.7125   0.05
0.1125   0.7375   0.05
0.1125   0.7625   0.05
0.1125   0.7875   0.05
0.1125   0.8125   0.05
0.1125   0.8375   0.05
0.1125   0.8625   0.05
0.1125   0.8875   0.05
0.1125   0.9125   0.05
0.1125   0.9375   0.05
0.1125   0.9625   0.05
0.1125   0.9875   0.05
0.1375   0.0125   0.05
0.1375   0.0375   0.05
0.1375   0.0625   0.05
0.1375   0.0875   0.05
0.1375   0.1125   0.05
0.1375   0.1375   0.05
0.1375   0.1625   0.05
0.1375   0.1875   0.05
0.1375   0.2125   0.05
0.1375   0.2375   0.05
0.1375   0.2625   0.05
0.1375   0.2875   0.05
0.1375   0.3125   0.05
0.1375   0.3375   0.05
0.1375   0.3625   0.05
0.1375   0.3875   0.05
0.1375   0.4125   0.05
0.1375   0.4375   0.05
0.1375   0.4625   0.05
0.1375   0.4875   0.05
0.1375   0.5125   0.05
0.1375   0.5375   0.05
0.1375   0.5625   0.05
0.1375   0.5875   0.05
0.1375   0.6125   0.05
0.1375   0.6375   0.05
0.1375   0.6625   0.05
0.1375   0.6875   0.05
0.1375   0.7125   0.05
0.1375   0.7375   0.05
0.1375   0.7625   0.05
0.1375   0.7875   0.05
0.1375   0.8125   0.05
0.1375   0.8375   0.05
0.1375   0.8625   0.05
0.1375   0.8875   0.05
0.1375   0.9125   0.05
0.1375   0.9375   0.05
0.1375   0.9625   0.05
0.1375   0.9875   0.05
0.1625   0.0125   0.05
0.1625   0.0375   0.05
0.1625   0.0625   0.05
0.1625   0.0875   0.05
0.1625   0.1125   0.05
0.1625   0.1375   0.05
0.1625   0.1625   0.05
0.1625   0.1875   0.05
0.1625   0.2125   0.05
0.1625   0.2375   0.05
0.1625   0.2625   0.05
0.1625   0.2875   0.05
0.1625   0.3125   0.05
0.1625   0.3375   0.05
0.1625   0.3625   0.05
0.1625   0.3875   0.05
0.1625   0.4125   0.05
0.1625   0.4375   0.05
0.1625   0.4625   0.05
0.1625   0.4875   0.05
0.1625   0.5125   0.05
0.1625   0.5375   0.05
0.1625   0.5625   0.05
0.1625   0.5875   0.05
0.1625   0.6125   0.05
0.1625   0.6375   0.05
0.1625   0.6625   0.05
0.1625   0.6875   0.05
0.1625   0.7125   0.05
0.1625   0.7375   0.05
0.1625   0.7625   0.05
0.1625   0.7875   0.05
0.1625   0.8125   0.05
0.1625   0.8375   0.05
0.1625   0.8625   0.05
0.1625   0.8875   0.05
0.1625   0.9125   0.05
0.1625   0.9375   0.05
0.1625   0.9625   0.05
0.1625   0.9875   0.05
0.1875   0.0125   0.05
0.1875   0.0375   0.05
0.1875   0.0625   0.05
0.1875   0.0875   0.05
0.1875   0.1125   0.05
0.1875   0.1375   0.05
0.1875   0.1625   0.05
0.1875   0.1875   0.05
0.1875   0.2125   0.05
0.1875   0.2375   0.05
0.1875   0.2625   0.05
0.1875   0.2875   0.05
0.1875   0.3125   0.05
0.1875   0.3375   0.05
0.1875   0.3625   0.05
0.1875   0.3875   0.05
0.1875   0.4125   0.05
0.1875   0.4375   0.05
0.1875   0.4625   0.05
0.1875   0.4875   0.05
0.1875   0.5125   0.05
0.1875   0.5375   0.05
0.1875   0.5625   0.05
0.1875   0.5875   0.05
0.1875   0.6125   0.05
0.1875   0.6375   0.05
0.1875   0.6625   0.05
0.1875   0.6875   0.05
0.1875   0.7125   0.05
0.1875   0.7375   0.05
0.1875   0.7625   0.05
0.1875   0.7875   0.05
0.1875   0.8125   0.05
0.1875   0.8375   0.05
0.1875   0.8625   0.05
0.1875   0.8875   0.05
0.1875   0.9125   0.05
0.1875   0.9375   0.05
0.1875   0.9625   0.05
0.1875   0.9875   0.05
0.2125   0.0125   0.05
0.2125   0.0375   0.05
0.2125   0.0625   0.05
0.2125   0.0875   0.05
0.2125   0.1125   0.05
0.2125   0.1375   0.05
0.2125   0.1625   0.05
0.2125   0.1875   0.05
0.2125   0.2125   0.05
0.2125   0.2375   0.05
0.2125   0.2625   0.05
0.2125   0.2875   0.05
0.2125   0.3125   0.05
0.2125   0.3375   0.05
0.2125   0.3625   0.05
0.2125   0.3875   0.05
0.2125   0.4125   0.05
0.2125   0.4375   0.05
0.2125   0.4625   0.05
0.2125   0.4875   0.05
0.2125   0.5125   0.05
0.2125   0.5375   0.05
0.2125   0.5625   0.05
0.2125   0.5875   0.05
0.2125   0.6125   0.05
0.2125   0.6375   0.05
0.2125   0.6625   0.05
0.2125   0.6875   0.05
0.2125   0.7125   0.05
0.2125   0.7375   0.05
0.2125   0.7625   0.05
0.2125   0.7875   0.05
0.2125   0.8125   0.05
0.2125   0.8375   0.05
0.2125   0.8625   0.05
0.2125   0.8875   0.05
0.2125   0.9125   0.05
0.2125   0.9375   0.05
0.2125   0.9625   0.05
0.2125   0.9875   0.05
0.2375   0.0125   0.05
0.2375   0.0375   0.05
0.2375   0.0625   0.05
0.2375   0.0875   0.05
0.2375   0.1125   0.05
0.2375   0.1375   0.05
0.2375   0.1625   0.05
0.2375   0.1875   0.05
0.2375   0.2125   0.05
0.2375   0.2375   0.05
0.2375   0.2625   0.05
0.2375   0.2875   0.05
0.2375   0.3125   0.05
0.2375   0.3375   0.05
0.2375   0.3625   0.05
0.2375   0.3875   0.05
0.2375   0.4125   0.05
0.2375   0.4375   0.05
0.2375   0.4625   0.05
0.2375   0.4875   0.05
0.2375   0.5125   0.05
0.2375   0.5375   0.05
0.2375   0.5625   0.05
0.2375   0.5875   0.05
0.2375   0.6125   0.05
0.2375   0.6375   0.05
0.2375   0.6625   0.05
0.2375   0.6875   0.05
0.2375   0.7125   0.05
0.2375   0.7375   0.05
0.2375   0.7625   0.05
0.2375   0.7875   0.05
0.2375   0.8125   0.05
0.2375   0.8375   0.05
0.2375   0.8625   0.05
0.2375   0.8875   0.05
0.2375   0.9125   0.05
0.2375   0.9375   0.05
0.2375   0.9625   0.05
0.2375   0.9875   0.05
0.2625   0.0125   0.05
0.2625   0.0375   0.05
0.2625   0.0625   0.05
0.2625   0.0875   0.05
0.2625   0.1125   0.05
0.2625   0.1375   0.05
0.2625   0.1625   0.05
0.2625   0.1875   0.05
0.2625   0.2125   0.05
0.2625   0.2375   0.05
0.2625   0.2625   0.05
0.2625   0.2875   0.05
0.2625   0.3125   0.05
0.2625   0.3375   0.05
0.2625   0.3625   0.05
0.2625   0.3875   0.05
0.2625   0.4125   0.05
0.2625   0.4375   0.05
0.2625   0.4625   0.05
0.2625   0.4875   0.05
0.2625   0.5125   0.05
0.2625   0.5375   0.05
0.2625   0.5625   0.05
0.2625   0.5875   0.05
0.2625   0.6125   0.05
0.2625   0.6375   0.05
0.2625   0.6625   0.05
0.2625   0.6875   0.05
0.2625   0.7125   0.05
[...]
POINT_DATA   16000
VECTORS Velocidades double

0 0.321016 0
0 0.733459 0
0 0.857741 0
0 0.905593 0
0 0.928864 0
0 0.942321 0
0 0.951022 0
0 0.95706 0
0 0.961446 0
0 0.96473 0
0 0.967239 0
0 0.969178 0
0 0.970682 0
0 0.971844 0
0 0.972727 0
0 0.973376 0
0 0.973823 0
0 0.974091 0
0 0.974193 0
0 0.974137 0
0 0.973928 0
0 0.973562 0
0 0.973032 0
0 0.972325 0
0 0.971423 0
0 0.970296 0
0 0.968909 0
0 0.967207 0
0 0.965119 0
0 0.962542 0
0 0.959329 0
0 0.955256 0
0 0.949977 0
0 0.942908 0
0 0.932988 0
0 0.918033 0
0 0.892806 0
0 0.842283 0
0 0.715256 0
0 0.311318 0
0 0.187086 0
0 0.481095 0
0 0.646956 0
0 0.74015 0
0 0.79577 0
0 0.831342 0
0 0.855494 0
0 0.872676 0
0 0.885332 0
0 0.894891 0
0 0.902234 0
0 0.907932 0
0 0.912364 0
0 0.915792 0
0 0.918402 0
0 0.920323 0
0 0.921648 0
0 0.922439 0
0 0.922741 0
0 0.922576 0
0 0.921953 0
0 0.920866 0
0 0.919294 0
0 0.917198 0
0 0.914524 0
0 0.911191 0
0 0.90709 0
0 0.902071 0
0 0.895927 0
0 0.88837 0
0 0.878986 0
0 0.867171 0
0 0.852001 0
0 0.832001 0
0 0.804692 0
0 0.765644 0
0 0.706481 0
0 0.610757 0
0 0.447217 0
0 0.171705 0
0 0.126965 0
0 0.347225 0
0 0.503754 0
0 0.60947 0
0 0.681074 0
0 0.730759 0
0 0.76627 0
0 0.792369 0
0 0.812005 0
0 0.827048 0
0 0.83872 0
0 0.847839 0
0 0.85497 0
0 0.860507 0
0 0.864733 0
0 0.867849 0
0 0.869999 0
0 0.871285 0
0 0.871773 0
0 0.8715 0
0 0.870481 0
0 0.868706 0
0 0.866142 0
0 0.862729 0
0 0.858381 0
0 0.852973 0
0 0.846338 0
0 0.838246 0
0 0.828385 0
0 0.81633 0
0 0.801483 0
0 0.782997 0
0 0.759637 0
0 0.729551 0
0 0.689901 0
0 0.636258 0
0 0.561725 0
0 0.456143 0
0 0.307242 0
0 0.110194 0
0 0.0950727 0
0 0.268196 0
0 0.405767 0
0 0.509388 0
0 0.586053 0
0 0.642877 0
0 0.685466 0
0 0.71784 0
0 0.742788 0
0 0.762234 0
0 0.777511 0
0 0.789559 0
0 0.799044 0
0 0.806447 0
0 0.812118 0
0 0.816311 0
0 0.819209 0
0 0.820941 0
0 0.821594 0
0 0.821217 0
0 0.819829 0
0 0.817418 0
0 0.81394 0
0 0.809322 0
0 0.803453 0
0 0.796175 0
0 0.78728 0
0 0.776485 0
0 0.763414 0
0 0.747562 0
0 0.728249 0
0 0.704541 0
0 0.675151 0
0 0.638287 0
0 0.591458 0
0 0.531262 0
0 0.453318 0
0 0.352788 0
0 0.226535 0
0 0.0783982 0
0 0.0757211 0
0 0.217073 0
0 0.336394 0
0 0.432616 0
0 0.508378 0
0 0.567511 0
0 0.613675 0
0 0.649885 0
0 0.678463 0
0 0.701145 0
0 0.719212 0
0 0.733609 0
0 0.745034 0
0 0.754006 0
0 0.760909 0
0 0.766029 0
0 0.769574 0
0 0.771692 0
0 0.772484 0
0 0.772009 0
0 0.770287 0
0 0.767306 0
0 0.763018 0
0 0.757339 0
0 0.750141 0
0 0.741252 0
0 0.730437 0
0 0.71739 0
0 0.70171 0
0 0.682875 0
0 0.660202 0
0 0.632803 0
0 0.599517 0
0 0.558851 0
0 0.508932 0
0 0.447536 0
0 0.372338 0
0 0.281632 0
0 0.175826 0
0 0.0596964 0
0 0.0627423 0
0 0.181474 0
0 0.285296 0
0 0.372799 0
0 0.444812 0
0 0.5033 0
0 0.550526 0
0 0.588607 0
0 0.619336 0
0 0.644158 0
0 0.664206 0
0 0.680356 0
0 0.693283 0
0 0.7035 0
0 0.711399 0
0 0.717278 0
0 0.721355 0
0 0.723791 0
0 0.724693 0
0 0.724125 0
0 0.722111 0
0 0.718639 0
0 0.713659 0
0 0.707083 0
0 0.698778 0
0 0.688564 0
0 0.676204 0
0 0.661391 0
0 0.643733 0
0 0.622738 0
0 0.597783 0
0 0.568098 0
0 0.53274 0
0 0.490591 0
0 0.440393 0
0 0.38088 0
0 0.311069 0
0 0.230816 0
0 0.14164 0
0 0.0475727 0
0 0.0533807 0
0 0.155214 0
0 0.246226 0
0 0.325232 0
0 0.392349 0
0 0.448546 0
0 0.495181 0
0 0.533682 0
0 0.565371 0
0 0.591389 0
0 0.612684 0
0 0.630024 0
0 0.644022 0
0 0.65516 0
0 0.663815 0
0 0.670278 0
0 0.67477 0
0 0.677451 0
0 0.678432 0
0 0.677779 0
0 0.675519 0
0 0.671641 0
0 0.666096 0
0 0.658797 0
0 0.649615 0
0 0.638374 0
0 0.624849 0
0 0.608751 0
0 0.589724 0
0 0.567331 0
0 0.541048 0
0 0.510254 0
0 0.474244 0
0 0.432249 0
0 0.383518 0
0 0.327447 0
0 0.26383 0
0 0.193204 0
0 0.117262 0
0 0.0391294 0
0 0.046259 0
0 0.134956 0
0 0.215367 0
0 0.286606 0
0 0.34854 0
0 0.401621 0
0 0.446649 0
0 0.484564 0
0 0.516313 0
0 0.542766 0
0 0.564684 0
0 0.582714 0
0 0.597389 0
0 0.609142 0
0 0.618322 0
0 0.6252 0
0 0.629989 0
0 0.632844 0
0 0.633874 0
0 0.633146 0
0 0.630687 0
0 0.62649 0
0 0.620508 0
0 0.612662 0
0 0.602831 0
0 0.590853 0
0 0.576524 0
0 0.559589 0
0 0.53974 0
0 0.516613 0
0 0.489791 0
0 0.458808 0
0 0.423172 0
0 0.382406 0
0 0.336122 0
0 0.28414 0
0 0.226659 0
0 0.164457 0
0 0.0990856 0
0 0.032927 0
0 0.0406215 0
0 0.118774 0
0 0.190319 0
0 0.254624 0
0 0.311494 0
0 0.36112 0
0 0.403962 0
0 0.440633 0
0 0.471796 0
0 0.498097 0
0 0.520134 0
0 0.538431 0
0 0.553439 0
0 0.565535 0
0 0.575027 0
0 0.582163 0
0 0.587139 0
0 0.590101 0
0 0.591153 0
0 0.590359 0
0 0.587749 0
0 0.583317 0
0 0.577024 0
0 0.568798 0
0 0.558533 0
0 0.546088 0
0 0.531284 0
0 0.513908 0
0 0.493706 0
0 0.470391 0
0 0.443651 0
0 0.413156 0
0 0.378593 0
0 0.339704 0
0 0.296347 0
0 0.248593 0
0 0.196828 0
0 0.141869 0
0 0.0850434 0
0 0.0281818 0
0 0.0360213 0
0 0.105487 0
0 0.169521 0
0 0.227682 0
0 0.279784 0
0 0.325886 0
0 0.366252 0
0 0.401273 0
0 0.431407 0
0 0.457127 0
0 0.478889 0
0 0.497112 0
0 0.512166 0
0 0.524368 0
0 0.533986 0
0 0.54124 0
0 0.546305 0
0 0.549314 0
0 0.550363 0
0 0.549515 0
0 0.546799 0
0 0.542212 0
0 0.535724 0
0 0.527273 0
0 0.516769 0
0 0.504095 0
0 0.489104 0
0 0.471622 0
0 0.451452 0
0 0.42838 0
0 0.402184 0
0 0.372653 0
0 0.339609 0
0 0.302948 0
0 0.26269 0
0 0.219038 0
0 0.172449 0
0 0.123693 0
0 0.0738796 0
0 0.0244345 0
0 0.0321778 0
0 0.0943372 0
0 0.151925 0
0 0.204643 0
0 0.252333 0
0 0.294995 0
0 0.332773 0
0 0.365915 0
0 0.394733 0
0 0.419569 0
0 0.440764 0
0 0.458647 0
0 0.473513 0
0 0.485627 0
0 0.495215 0
0 0.502466 0
0 0.507533 0
0 0.510537 0
0 0.511564 0
0 0.510673 0
0 0.507892 0
0 0.503224 0
0 0.496645 0
0 0.488107 0
0 0.477536 0
0 0.464839 0
0 0.449901 0
0 0.432587 0
0 0.412753 0
0 0.390249 0
0 0.36493 0
0 0.336674 0
0 0.305408 0
0 0.271132 0
0 0.23396 0
0 0.194162 0
0 0.152202 0
0 0.108772 0
0 0.0647945 0
0 0.0213993 0
0 0.0289057 0
0 0.084815 0
0 0.136808 0
0 0.184688 0
0 0.22833 0
0 0.26771 0
0 0.302901 0
0 0.334056 0
0 0.361386 0
0 0.385133 0
0 0.405553 0
0 0.422894 0
0 0.437393 0
0 0.449263 0
0 0.458691 0
0 0.465839 0
0 0.470838 0
0 0.473793 0
0 0.474782 0
0 0.473859 0
0 0.471052 0
0 0.466368 0
0 0.45979 0
0 0.451283 0
0 0.44079 0
0 0.428242 0
0 0.413551 0
0 0.396622 0
0 0.377355 0
0 0.355653 0
0 0.331434 0
0 0.304647 0
0 0.275287 0
0 0.243425 0
0 0.209226 0
0 0.172985 0
0 0.135144 0
0 0.0963118 0
0 0.0572569 0
0 0.01889 0
0 0.0260779 0
0 0.0765661 0
0 0.123653 0
0 0.167215 0
0 0.207157 0
0 0.243446 0
0 0.276116 0
0 0.305257 0
0 0.331009 0
0 0.353543 0
0 0.373043 0
0 0.389699 0
0 0.403695 0
0 0.4152 0
0 0.424369 0
0 0.431333 0
0 0.436206 0
0 0.439078 0
0 0.440018 0
0 0.439074 0
0 0.436274 0
0 0.431629 0
0 0.42513 0
0 0.416753 0
0 0.406458 0
0 0.394196 0
0 0.379907 0
0 0.363527 0
0 0.344994 0
0 0.324256 0
0 0.301278 0
0 0.27606 0
0 0.248646 0
0 0.219148 0
0 0.187757 0
0 0.154769 0
0 0.120592 0
0 0.0857546 0
0 0.0509022 0
0 0.0167799 0
0 0.023604 0
0 0.0693367 0
0 0.112084 0
0 0.151773 0
0 0.188336 0
0 0.221739 0
0 0.25199 0
0 0.279142 0
0 0.303286 0
0 0.324536 0
0 0.343027 0
0 0.3589 0
0 0.372296 0
0 0.383348 0
0 0.392179 0
0 0.398899 0
0 0.403601 0
0 0.406363 0
0 0.407245 0
0 0.40629 0
0 0.403528 0
0 0.398969 0
0 0.392613 0
0 0.384446 0
0 0.374444 0
0 0.362576 0
0 0.348804 0
0 0.333092 0
0 0.31541 0
0 0.295738 0
0 0.274079 0
0 0.250468 0
0 0.224981 0
0 0.197752 0
0 0.168983 0
0 0.138956 0
0 0.108041 0
0 0.0766983 0
0 0.0454717 0
0 0.0149803 0
0 0.0214181 0
0 0.0629397 0
0 0.10182 0
0 0.13802 0
0 0.171496 0
0 0.202214 0
0 0.23017 0
0 0.255392 0
0 0.277934 0
0 0.297874 0
0 0.315307 0
0 0.330336 0
0 0.343066 0
0 0.353601 0
0 0.36204 0
0 0.36847 0
0 0.372969 0
0 0.375602 0
0 0.376421 0
0 0.375465 0
0 0.372763 0
0 0.368329 0
0 0.362167 0
0 0.354274 0
0 0.344638 0
0 0.333243 0
0 0.320072 0
0 0.305111 0
0 0.288353 0
0 0.269805 0
0 0.249497 0
0 0.227486 0
0 0.203869 0
0 0.178791 0
0 0.152451 0
0 0.125115 0
0 0.0971136 0
0 0.0688465 0
0 0.0407777 0
0 0.0134273 0
0 0.0194705 0
0 0.057234 0
0 0.0926446 0
0 0.12569 0
0 0.156341 0
0 0.184569 0
0 0.210362 0
0 0.233731 0
0 0.254708 0
0 0.273341 0
0 0.289696 0
0 0.303847 0
0 0.315872 0
0 0.325851 0
0 0.333859 0
0 0.339968 0
0 0.344241 0
0 0.346731 0
0 0.347485 0
0 0.346538 0
0 0.343916 0
0 0.339637 0
0 0.333709 0
0 0.326138 0
0 0.316921 0
0 0.306057 0
0 0.293544 0
0 0.279385 0
0 0.263591 0
0 0.246191 0
0 0.227231 0
0 0.206785 0
0 0.184959 0
0 0.161901 0
0 0.137804 0
0 0.112911 0
0 0.0875195 0
0 0.0619767 0
0 0.0366806 0
0 0.0120734 0
0 0.0177234 0
0 0.0521111 0
0 0.0843926 0
0 0.114574 0
0 0.142636 0
0 0.168557 0
0 0.192321 0
0 0.213927 0
0 0.23339 0
0 0.250741 0
0 0.266022 0
0 0.279284 0
0 0.290585 0
0 0.299983 0
0 0.307539 0
0 0.313306 0
0 0.317338 0
0 0.319679 0
0 0.320368 0
0 0.319436 0
0 0.31691 0
0 0.312808 0
0 0.307145 0
0 0.299929 0
0 0.29117 0
0 0.280874 0
0 0.269053 0
0 0.255723 0
0 0.240911 0
0 0.224657 0
0 0.207019 0
0 0.188082 0
0 0.167955 0
0 0.146785 0
0 0.124753 0
0 0.102082 0
0 0.0790352 0
0 0.0559183 0
0 0.0330744 0
0 0.010883 0
0 0.016147 0
0 0.0474855 0
0 0.0769314 0
0 0.104503 0
0 0.13019 0
0 0.153974 0
0 0.175839 0
0 0.195777 0
0 0.213792 0
0 0.229899 0
0 0.244124 0
0 0.256503 0
0 0.267075 0
0 0.275884 0
0 0.282976 0
0 0.288392 0
0 0.292175 0
0 0.294363 0
0 0.294988 0
0 0.294079 0
0 0.291661 0
0 0.287754 0
0 0.282374 0
0 0.275538 0
0 0.267259 0
0 0.257553 0
0 0.246442 0
0 0.233951 0
0 0.220116 0
0 0.204988 0
0 0.188632 0
0 0.171136 0
0 0.152611 0
0 0.133198 0
0 0.113065 0
0 0.0924157 0
0 0.0714844 0
0 0.0505388 0
0 0.0298774 0
0 0.00982847 0
0 0.0147176 0
0 0.043289 0
0 0.0701549 0
0 0.0953412 0
0 0.118845 0
0 0.140651 0
0 0.160743 0
0 0.179109 0
0 0.195744 0
0 0.210655 0
0 0.223856 0
0 0.235369 0
0 0.24522 0
0 0.253442 0
0 0.260067 0
0 0.26513 0
0 0.268662 0
0 0.270696 0
0 0.27126 0
0 0.27038 0
0 0.268078 0
0 0.264376 0
0 0.259294 0
0 0.25285 0
0 0.245064 0
0 0.235958 0
0 0.22556 0
0 0.213902 0
0 0.201028 0
0 0.186993 0
0 0.171867 0
0 0.15574 0
0 0.138719 0
0 0.120937 0
0 0.102551 0
0 0.0837445 0
0 0.0647267 0
0 0.0457333 0
0 0.0270252 0
0 0.0088883 0
0 0.0134161 0
0 0.0394661 0
0 0.0639761 0
0 0.0869769 0
0 0.10847 0
0 0.128444 0
0 0.146882 0
0 0.16377 0
0 0.1791 0
0 0.192869 0
0 0.205083 0
0 0.215755 0
0 0.224902 0
0 0.232545 0
0 0.23871 0
0 0.243421 0
0 0.246706 0
0 0.248589 0
0 0.249095 0
0 0.248247 0
0 0.246068 0
0 0.242579 0
0 0.237801 0
0 0.231755 0
0 0.224466 0
0 0.215959 0
0 0.206266 0
0 0.195426 0
0 0.183486 0
0 0.170503 0
0 0.156551 0
0 0.141715 0
0 0.126101 0
0 0.109832 0
0 0.0930534 0
0 0.0759299 0
0 0.0586486 0
0 0.0414178 0
0 0.0244665 0
0 0.00804536 0
0 0.0122267 0
0 0.0359711 0
0 0.0583231 0
0 0.0793161 0
0 0.0989553 0
0 0.117231 0
0 0.134128 0
0 0.14963 0
0 0.163726 0
0 0.17641 0
0 0.18768 0
0 0.197543 0
0 0.206007 0
0 0.213088 0
0 0.218803 0
0 0.22317 0
0 0.226212 0
0 0.227948 0
0 0.2284 0
0 0.227589 0
0 0.225536 0
0 0.222263 0
0 0.217791 0
0 0.212144 0
0 0.205347 0
0 0.197431 0
0 0.188429 0
0 0.178384 0
0 0.167343 0
0 0.155368 0
0 0.142528 0
0 0.128908 0
0 0.114607 0
0 0.0997412 0
0 0.0844416 0
0 0.0688581 0
0 0.0531574 0
0 0.0375239 0
0 0.0221599 0
0 0.00728579 0
0 0.0111362 0
0 0.0327656 0
0 0.0531352 0
0 0.0722794 0
0 0.0902056 0
0 0.106906 0
0 0.122367 0
0 0.136571 0
0 0.149507 0
0 0.161162 0
0 0.171534 0
0 0.180622 0
0 0.18843 0
0 0.194967 0
0 0.200246 0
0 0.20428 0
0 0.207086 0
0 0.208681 0
0 0.209083 0
0 0.208312 0
0 0.206387 0
0 0.20333 0
0 0.199162 0
0 0.193909 0
0 0.187597 0
0 0.180257 0
0 0.171927 0
0 0.162647 0
0 0.152469 0
0 0.141451 0
0 0.129663 0
0 0.117184 0
0 0.104109 0
0 0.0905424 0
0 0.076606 0
0 0.0624342 0
0 0.0481761 0
0 0.0339956 0
0 0.0200713 0
0 0.0065983 0
0 0.0101333 0
0 0.0298172 0
0 0.0483608 0
0 0.0657988 0
0 0.08214 0
0 0.0973783 0
0 0.1115 0
0 0.12449 0
0 0.136334 0
0 0.147019 0
0 0.156538 0
0 0.164888 0
0 0.172069 0
0 0.178085 0
0 0.182945 0
0 0.186658 0
0 0.189237 0
0 0.190697 0
0 0.191054 0
0 0.190324 0
0 0.188528 0
0 0.185684 0
0 0.181816 0
0 0.176947 0
0 0.171107 0
0 0.164327 0
0 0.156643 0
0 0.148099 0
0 0.138743 0
0 0.128634 0
0 0.117836 0
0 0.106427 0
0 0.094493 0
0 0.0821319 0
0 0.0694533 0
0 0.0565784 0
0 0.0436407 0
0 0.0307859 0
0 0.0181726 0
0 0.00597348 0
0 0.00920855 0
0 0.0270977 0
0 0.0439554 0
0 0.0598155 0
0 0.0746875 0
0 0.0885667 0
0 0.101441 0
0 0.113294 0
0 0.124113 0
0 0.133883 0
0 0.142596 0
0 0.150245 0
0 0.156828 0
0 0.162346 0
0 0.166805 0
0 0.170211 0
0 0.172574 0
0 0.173906 0
0 0.174221 0
0 0.173535 0
0 0.171865 0
0 0.169232 0
0 0.165655 0
0 0.161162 0
0 0.155778 0
0 0.149537 0
0 0.142474 0
0 0.134631 0
0 0.126057 0
0 0.116806 0
0 0.106941 0
0 0.0965334 0
0 0.0856633 0
0 0.0744202 0
0 0.0629036 0
0 0.0512227 0
0 0.0394967 0
0 0.0278555 0
0 0.01644 0
0 0.00540347 0
0 0.00835353 0
0 0.0245829 0
0 0.0398802 0
0 0.0542778 0
0 0.0677857 0
0 0.0804 0
0 0.0921095 0
0 0.1029 0
0 0.112756 0
0 0.121665 0
0 0.129616 0
0 0.136601 0
0 0.142617 0
0 0.147662 0
0 0.151738 0
0 0.154851 0
0 0.157008 0
0 0.15822 0
0 0.158497 0
0 0.157856 0
0 0.156311 0
0 0.153882 0
0 0.150589 0
0 0.146458 0
0 0.141514 0
0 0.13579 0
0 0.12932 0
0 0.122145 0
0 0.114312 0
0 0.105871 0
0 0.0968825 0
0 0.0874122 0
0 0.0775338 0
0 0.0673292 0
0 0.056888 0
0 0.0463086 0
0 0.0356976 0
0 0.0251707 0
0 0.0148533 0
0 0.0048816 0
0 0.00756092 0
0 0.0222514 0
0 0.0361008 0
0 0.04914 0
0 0.0613788 0
0 0.0728142 0
0 0.083436 0
0 0.0932305 0
0 0.102184 0
0 0.110282 0
0 0.117514 0
0 0.123872 0
0 0.129349 0
0 0.133945 0
0 0.137658 0
0 0.140493 0
0 0.142455 0
0 0.143553 0
0 0.143797 0
0 0.1432 0
0 0.141777 0
0 0.139547 0
0 0.136528 0
0 0.132745 0
0 0.128224 0
0 0.122994 0
0 0.11709 0
0 0.110549 0
0 0.103416 0
0 0.0957401 0
0 0.0875751 0
0 0.0789823 0
0 0.0700293 0
0 0.0607902 0
0 0.0513462 0
0 0.0417854 0
0 0.0322032 0
0 0.0227027 0
0 0.0133952 0
0 0.00440212 0
0 0.0068242 0
0 0.020084 0
0 0.0325867 0
0 0.0443611 0
0 0.0554168 0
0 0.0657515 0
0 0.0753559 0
0 0.0842173 0
0 0.0923221 0
0 0.0996573 0
0 0.106212 0
0 0.111976 0
0 0.116945 0
0 0.121115 0
0 0.124484 0
0 0.127055 0
0 0.128833 0
0 0.129823 0
0 0.130037 0
0 0.129485 0
0 0.128181 0
0 0.126143 0
0 0.123388 0
0 0.119939 0
0 0.115822 0
0 0.111064 0
0 0.105697 0
0 0.0997588 0
0 0.0932889 0
0 0.086333 0
0 0.0789417 0
0 0.071171 0
0 0.0630824 0
0 0.0547428 0
0 0.0462253 0
0 0.0376089 0
0 0.0289786 0
0 0.0204262 0
0 0.0120507 0
0 0.00396007 0
0 0.00613753 0
0 0.0180636 0
0 0.0293103 0
0 0.0399042 0
0 0.0498546 0
0 0.0591595 0
0 0.0678106 0
0 0.0757962 0
0 0.0831035 0
0 0.0897202 0
0 0.0956352 0
0 0.10084 0
0 0.105327 0
0 0.109093 0
0 0.112136 0
0 0.114457 0
0 0.11606 0
0 0.116951 0
0 0.117137 0
0 0.11663 0
0 0.115442 0
0 0.113588 0
0 0.111087 0
0 0.107959 0
0 0.104227 0
0 0.0999189 0
0 0.0950638 0
0 0.0896958 0
0 0.0838525 0
0 0.077576 0
0 0.0709125 0
0 0.0639129 0
0 0.0566328 0
0 0.0491328 0
0 0.0414783 0
0 0.0337396 0
0 0.0259928 0
0 0.0183191 0
0 0.0108067 0
0 0.0035511 0
0 0.0054956 0
0 0.0161747 0
0 0.0262466 0
0 0.0357357 0
0 0.0446507 0
0 0.0529899 0
0 0.060746 0
0 0.0679082 0
0 0.0744646 0
0 0.0804038 0
0 0.0857151 0
0 0.0903899 0
0 0.0944214 0
0 0.0978054 0
0 0.10054 0
0 0.102625 0
0 0.104063 0
0 0.104859 0
0 0.105021 0
0 0.104558 0
0 0.103482 0
0 0.101806 0
0 0.0995483 0
0 0.0967268 0
0 0.0933636 0
0 0.0894835 0
0 0.0851144 0
0 0.0802873 0
0 0.075037 0
0 0.0694016 0
0 0.0634233 0
0 0.0571481 0
0 0.0506262 0
0 0.0439117 0
0 0.0370629 0
0 0.0301427 0
0 0.0232183 0
0 0.0163619 0
0 0.00965138 0
0 0.00317134 0
0 0.00489357 0
0 0.0144031 0
0 0.0233728 0
0 0.0318247 0
0 0.0397669 0
0 0.0471982 0
0 0.0541118 0
0 0.0604981 0
0 0.0663463 0
0 0.0716456 0
0 0.0763861 0
0 0.0805595 0
0 0.0841594 0
0 0.0871812 0
0 0.0896226 0
0 0.0914836 0
0 0.092766 0
0 0.0934741 0
0 0.0936143 0
0 0.093195 0
0 0.0922268 0
0 0.0907226 0
0 0.0886977 0
0 0.0861695 0
0 0.083158 0
0 0.0796861 0
0 0.0757791 0
0 0.0714654 0
0 0.0667766 0
0 0.0617473 0
0 0.0564155 0
0 0.0508224 0
0 0.0450129 0
0 0.0390353 0
0 0.0329414 0
0 0.0267867 0
0 0.0206307 0
0 0.014537 0
0 0.00857436 0
0 0.00281735 0
0 0.00432696 0
0 0.0127356 0
0 0.0206675 0
0 0.0281426 0
0 0.0351681 0
0 0.041743 0
0 0.0478614 0
0 0.0535146 0
0 0.0586929 0
0 0.0633864 0
0 0.0675861 0
0 0.0712841 0
0 0.0744743 0
0 0.0771525 0
0 0.079316 0
0 0.0809645 0
0 0.0820995 0
0 0.0827245 0
0 0.0828451 0
0 0.0824688 0
0 0.0816051 0
0 0.0802657 0
0 0.0784644 0
0 0.0762169 0
0 0.0735416 0
0 0.0704589 0
0 0.0669919 0
0 0.0631663 0
0 0.0590104 0
0 0.0545552 0
0 0.0498347 0
0 0.0448855 0
0 0.0397476 0
0 0.0344635 0
0 0.029079 0
0 0.0236429 0
0 0.0182074 0
0 0.0128285 0
0 0.00756621 0
0 0.00248602 0
0 0.00379162 0
0 0.0111601 0
0 0.0181113 0
0 0.0246627 0
0 0.0308211 0
0 0.0365855 0
0 0.0419507 0
0 0.0469091 0
0 0.0514519 0
0 0.0555704 0
0 0.0592562 0
0 0.0625023 0
0 0.065303 0
0 0.0676541 0
0 0.0695533 0
0 0.0709999 0
0 0.071995 0
0 0.0725416 0
0 0.0726446 0
0 0.0723106 0
0 0.071548 0
0 0.0703673 0
0 0.0687806 0
0 0.0668022 0
0 0.0644485 0
0 0.0617378 0
0 0.0586907 0
0 0.0553301 0
0 0.0516811 0
0 0.0477712 0
0 0.0436304 0
0 0.0392911 0
0 0.0347882 0
0 0.0301592 0
0 0.025444 0
0 0.0206852 0
0 0.0159283 0
0 0.0112219 0
0 0.00661833 0
0 0.00217453 0
0 0.00328365 0
0 0.00966508 0
0 0.0156854 0
0 0.0213601 0
0 0.0266948 0
0 0.031689 0
0 0.0363382 0
0 0.0406356 0
0 0.0445735 0
0 0.0481442 0
0 0.0513403 0
0 0.0541555 0
0 0.0565845 0
0 0.0586237 0
0 0.0602707 0
0 0.0615248 0
0 0.0623868 0
0 0.0628593 0
0 0.0629465 0
0 0.0626539 0
0 0.0619892 0
0 0.0609614 0
0 0.0595813 0
0 0.0578614 0
0 0.0558162 0
0 0.0534618 0
0 0.0508164 0
0 0.0478999 0
0 0.0447345 0
0 0.0413443 0
0 0.0377553 0
0 0.0339957 0
0 0.0300959 0
0 0.0260882 0
0 0.0220071 0
0 0.0178895 0
0 0.0137745 0
0 0.0097039 0
0 0.00572284 0
0 0.00188027 0
0 0.00279939 0
0 0.00823976 0
0 0.0133725 0
0 0.0182109 0
0 0.0227599 0
0 0.027019 0
0 0.0309844 0
0 0.0346503 0
0 0.03801 0
0 0.0410568 0
0 0.0437844 0
0 0.0461871 0
0 0.0482604 0
0 0.0500008 0
0 0.0514064 0
0 0.0524764 0
0 0.0532114 0
0 0.0536135 0
0 0.0536862 0
0 0.0534344 0
0 0.0528646 0
0 0.0519846 0
0 0.0508037 0
0 0.0493328 0
0 0.0475843 0
0 0.0455723 0
0 0.0433124 0
0 0.0408219 0
0 0.0381197 0
0 0.0352265 0
0 0.0321648 0
0 0.0289587 0
0 0.0256339 0
0 0.0222182 0
0 0.0187409 0
0 0.0152332 0
0 0.0117285 0
0 0.00826214 0
0 0.00487241 0
0 0.00160083 0
0 0.00233532 0
0 0.00687389 0
0 0.011156 0
0 0.0151927 0
0 0.0189883 0
0 0.0225423 0
0 0.0258516 0
0 0.0289113 0
0 0.0317158 0
0 0.0342593 0
0 0.0365366 0
0 0.0385428 0
0 0.040274 0
0 0.0417273 0
0 0.0429008 0
0 0.0437939 0
0 0.0444071 0
0 0.044742 0
0 0.0448015 0
0 0.0445898 0
0 0.0441122 0
0 0.0433755 0
0 0.0423873 0
0 0.0411571 0
0 0.0396951 0
0 0.0380133 0
0 0.0361249 0
0 0.0340444 0
0 0.0317877 0
0 0.0293722 0
0 0.0268168 0
0 0.0241414 0
0 0.0213679 0
0 0.0185191 0
0 0.0156196 0
0 0.0126953 0
0 0.009774 0
0 0.00688504 0
0 0.00406019 0
0 0.00133395 0
0 0.00188813 0
0 0.00555762 0
0 0.00901983 0
0 0.0122838 0
0 0.015353 0
0 0.0182271 0
0 0.0209035 0
0 0.0233782 0
0 0.0256467 0
0 0.0277044 0
0 0.0295467 0
0 0.0311699 0
0 0.0325706 0
0 0.0337464 0
0 0.0346958 0
0 0.0354182 0
0 0.0359139 0
0 0.0361842 0
0 0.0362316 0
0 0.0360593 0
0 0.0356718 0
0 0.0350744 0
0 0.0342735 0
0 0.0332767 0
0 0.0320926 0
0 0.0307307 0
0 0.0292019 0
0 0.0275179 0
0 0.0256918 0
0 0.0237377 0
0 0.0216707 0
0 0.0195073 0
0 0.017265 0
0 0.0149622 0
0 0.0126189 0
0 0.0102559 0
0 0.00789557 0
0 0.00556165 0
0 0.0032797 0
0 0.00107752 0
0 0.00145457 0
0 0.00428149 0
0 0.00694877 0
0 0.00946342 0
0 0.0118281 0
0 0.0140426 0
0 0.0161049 0
0 0.0180119 0
0 0.0197602 0
0 0.021346 0
0 0.022766 0
0 0.0240171 0
0 0.0250968 0
0 0.0260031 0
0 0.0267348 0
0 0.0272915 0
0 0.0276733 0
0 0.0278813 0
0 0.0279173 0
0 0.0277839 0
0 0.0274845 0
0 0.0270232 0
0 0.0264051 0
0 0.0256359 0
0 0.0247224 0
0 0.023672 0
0 0.022493 0
0 0.0211946 0
0 0.0197869 0
0 0.0182808 0
0 0.016688 0
0 0.0150211 0
0 0.0132937 0
0 0.0115201 0
0 0.00971539 0
0 0.00789581 0
0 0.00607844 0
0 0.00428156 0
0 0.00252479 0
0 0.000829492 0
0 0.00103153 0
0 0.00303628 0
0 0.00492786 0
0 0.00671124 0
0 0.00838832 0
0 0.00995894 0
0 0.0114217 0
0 0.0127744 0
0 0.0140145 0
0 0.0151395 0
0 0.0161468 0
0 0.0170344 0
0 0.0178003 0
0 0.0184433 0
0 0.0189624 0
0 0.0193572 0