# vtk DataFile Version 2.0
Velocidades
ASCII

DATASET STRUCTURED_GRID
DIMENSIONS   40   40   10

POINTS   16000   double
0.0125   0.0125   0.05
0.0125   0.0375   0.05
0.0125   0.0625   0.05
0.0125   0.0875   0.05
0.0125   0.1125   0.05
0.0125   0.1375   0.05
0.0125   0.1625   0.05
0.0125   0.1875   0.05
0.0125   0.2125   0.05
0.0125   0.2375   0.05
0.0125   0.2625   0.05
0.0125   0.2875   0.05
0.0125   0.3125   0.05
0.0125   0.3375   0.05
0.0125   0.3625   0.05
0.0125   0.3875   0.05
0.0125   0.4125   0.05
0.0125   0.4375   0.05
0.0125   0.4625   0.05
0.0125   0.4875   0.05
0.0125   0.5125   0.05
0.0125   0.5375   0.05
0.0125   0.5625   0.05
0.0125   0.5875   0.05
0.0125   0.6125   0.05
0.0125   0.6375   0.05
0.0125   0.6625   0.05
0.0125   0.6875   0.05
0.0125   0.7125   0.05
0.0125   0.7375   0.05
0.0125   0.7625   0.05
0.0125   0.7875   0.05
0.0125   0.8125   0.05
0.0125   0.8375   0.05
0.0125   0.8625   0.05
0.0125   0.8875   0.05
0.0125   0.9125   0.05
0.0125   0.9375   0.05
0.0125   0.9625   0.05
0.0125   0.9875   0.05
0.0375   0.0125   0.05
0.0375   0.0375   0.05
0.0375   0.0625   0.05
0.0375   0.0875   0.05
0.0375   0.1125   0.05
0.0375   0.1375   0.05
0.0375   0.1625   0.05
0.0375   0.1875   0.05
0.0375   0.2125   0.05
0.0375   0.2375   0.05
0.0375   0.2625   0.05
0.0375   0.2875   0.05
0.0375   0.3125   0.05
0.0375   0.3375   0.05
0.0375   0.3625   0.05
0.0375   0.3875   0.05
0.0375   0.4125   0.05
0.0375   0.4375   0.05
0.0375   0.4625   0.05
0.0375   0.4875   0.05
0.0375   0.5125   0.05
0.0375   0.5375   0.05
0.0375   0.5625   0.05
0.0375   0.5875   0.05
0.0375   0.6125   0.05
0.0375   0.6375   0.05
0.0375   0.6625   0.05
0.0375   0.6875   0.05
0.0375   0.7125   0.05
0.0375   0.7375   0.05
0.0375   0.7625   0.05
0.0375   0.7875   0.05
0.0375   0.8125   0.05
0.0375   0.8375   0.05
0.0375   0.8625   0.05
0.0375   0.8875   0.05
0.0375   0.9125   0.05
0.0375   0.9375   0.05
0.0375   0.9625   0.05
0.0375   0.9875   0.05
0.0625   0.0125   0.05
0.0625   0.0375   0.05
0.0625   0.0625   0.05
0.0625   0.0875   0.05
0.0625   0.1125   0.05
0.0625   0.1375   0.05
0.0625   0.1625   0.05
0.0625   0.1875   0.05
0.0625   0.2125   0.05
0.0625   0.2375   0.05
0.0625   0.2625   0.05
0.0625   0.2875   0.05
0.0625   0.3125   0.05
0.0625   0.3375   0.05
0.0625   0.3625   0.05
0.0625   0.3875   0.05
0.0625   0.4125   0.05
0.0625   0.4375   0.05
0.0625   0.4625   0.05
0.0625   0.4875   0.05
0.0625   0.5125   0.05
0.0625   0.5375   0.05
0.0625   0.5625   0.05
0.0625   0.5875   0.05
0.0625   0.6125   0.05
0.0625   0.6375   0.05
0.0625   0.6625   0.05
0.0625   0.6875   0.05
0.0625   0.7125   0.05
0.0625   0.7375   0.05
0.0625   0.7625   0.05
0.0625   0.7875   0.05
0.0625   0.8125   0.05
0.0625   0.8375   0.05
0.0625   0.8625   0.05
0.0625   0.8875   0.05
0.0625   0.9125   0.05
0.0625   0.9375   0.05
0.0625   0.9625   0.05
0.0625   0.9875   0.05
0.0875   0.0125   0.05
0.0875   0.0375   0.05
0.0875   0.0625   0.05
0.0875   0.0875   0.05
0.0875   0.1125   0.05
0.0875   0.1375   0.05
0.0875   0.1625   0.05
0.0875   0.1875   0.05
0.0875   0.2125   0.05
0.0875   0.2375   0.05
0.0875   0.2625   0.05
0.0875   0.2875   0.05
0.0875   0.3125   0.05
0.0875   0.3375   0.05
0.0875   0.3625   0.05
0.0875   0.3875   0.05
0.0875   0.4125   0.05
0.0875   0.4375   0.05
0.0875   0.4625   0.05
0.0875   0.4875   0.05
0.0875   0.5125   0.05
0.0875   0.5375   0.05
0.0875   0.5625   0.05
0.0875   0.5875   0.05
0.0875   0.6125   0.05
0.0875   0.6375   0.05
0.0875   0.6625   0.05
0.0875   0.6875   0.05
0.0875   0.7125   0.05
0.0875   0.7375   0.05
0.0875   0.7625   0.05
0.0875   0.7875   0.05
0.0875   0.8125   0.05
0.0875   0.8375   0.05
0.0875   0.8625   0.05
0.0875   0.8875   0.05
0.0875   0.9125   0.05
0.0875   0.9375   0.05
0.0875   0.9625   0.05
0.0875   0.9875   0.05
0.1125   0.0125   0.05
0.1125   0.0375   0.05
0.1125   0.0625   0.05
0.1125   0.0875   0.05
0.1125   0.1125   0.05
0.1125   0.1375   0.05
0.1125   0.1625   0.05
0.1125   0.1875   0.05
0.1125   0.2125   0.05
0.1125   0.2375   0.05
0.1125   0.2625   0.05
0.1125   0.2875   0.05
0.1125   0.3125   0.05
0.1125   0.3375   0.05
0.1125   0.3625   0.05
0.1125   0.3875   0.05
0.1125   0.4125   0.05
0.1125   0.4375   0.05
0.1125   0.4625   0.05
0.1125   0.4875   0.05
0.1125   0.5125   0.05
0.1125   0.5375   0.05
0.1125   0.5625   0.05
0.1125   0.5875   0.05
0.1125   0.6125   0.05
0.1125   0.6375   0.05
0.1125   0.6625   0.05
0.1125   0.6875   0.05
0.1125   0.7125   0.05
0.1125   0.7375   0.05
0.1125   0.7625   0.05
0.1125   0.7875   0.05
0.1125   0.8125   0.05
0.1125   0.8375   0.05
0.1125   0.8625   0.05
0.1125   0.8875   0.05
0.1125   0.9125   0.05
0.1125   0.9375   0.05
0.1125   0.9625   0.05
0.1125   0.9875   0.05
0.1375   0.0125   0.05
0.1375   0.0375   0.05
0.1375   0.0625   0.05
0.1375   0.0875   0.05
0.1375   0.1125   0.05
0.1375   0.1375   0.05
0.1375   0.1625   0.05
0.1375   0.1875   0.05
0.1375   0.2125   0.05
0.1375   0.2375   0.05
0.1375   0.2625   0.05
0.1375   0.2875   0.05
0.1375   0.3125   0.05
0.1375   0.3375   0.05
0.1375   0.3625   0.05
0.1375   0.3875   0.05
0.1375   0.4125   0.05
0.1375   0.4375   0.05
0.1375   0.4625   0.05
0.1375   0.4875   0.05
0.1375   0.5125   0.05
0.1375   0.5375   0.05
0.1375   0.5625   0.05
0.1375   0.5875   0.05
0.1375   0.6125   0.05
0.1375   0.6375   0.05
0.1375   0.6625   0.05
0.1375   0.6875   0.05
0.1375   0.7125   0.05
0.1375   0.7375   0.05
0.1375   0.7625   0.05
0.1375   0.7875   0.05
0.1375   0.8125   0.05
0.1375   0.8375   0.05
0.1375   0.8625   0.05
0.1375   0.8875   0.05
0.1375   0.9125   0.05
0.1375   0.9375   0.05
0.1375   0.9625   0.05
0.1375   0.9875   0.05
0.1625   0.0125   0.05
0.1625   0.0375   0.05
0.1625   0.0625   0.05
0.1625   0.0875   0.05
0.1625   0.1125   0.05
0.1625   0.1375   0.05
0.1625   0.1625   0.05
0.1625   0.1875   0.05
0.1625   0.2125   0.05
0.1625   0.2375   0.05
0.1625   0.2625   0.05
0.1625   0.2875   0.05
0.1625   0.3125   0.05
0.1625   0.3375   0.05
0.1625   0.3625   0.05
0.1625   0.3875   0.05
0.1625   0.4125   0.05
0.1625   0.4375   0.05
0.1625   0.4625   0.05
0.1625   0.4875   0.05
0.1625   0.5125   0.05
0.1625   0.5375   0.05
0.1625   0.5625   0.05
0.1625   0.5875   0.05
0.1625   0.6125   0.05
0.1625   0.6375   0.05
0.1625   0.6625   0.05
0.1625   0.6875   0.05
0.1625   0.7125   0.05
0.1625   0.7375   0.05
0.1625   0.7625   0.05
0.1625   0.7875   0.05
0.1625   0.8125   0.05
0.1625   0.8375   0.05
0.1625   0.8625   0.05
0.1625   0.8875   0.05
0.1625   0.9125   0.05
0.1625   0.9375   0.05
0.1625   0.9625   0.05
0.1625   0.9875   0.05
0.1875   0.0125   0.05
0.1875   0.0375   0.05
0.1875   0.0625   0.05
0.1875   0.0875   0.05
0.1875   0.1125   0.05
0.1875   0.1375   0.05
0.1875   0.1625   0.05
0.1875   0.1875   0.05
0.1875   0.2125   0.05
0.1875   0.2375   0.05
0.1875   0.2625   0.05
0.1875   0.2875   0.05
0.1875   0.3125   0.05
0.1875   0.3375   0.05
0.1875   0.3625   0.05
0.1875   0.3875   0.05
0.1875   0.4125   0.05
0.1875   0.4375   0.05
0.1875   0.4625   0.05
0.1875   0.4875   0.05
0.1875   0.5125   0.05
0.1875   0.5375   0.05
0.1875   0.5625   0.05
0.1875   0.5875   0.05
0.1875   0.6125   0.05
0.1875   0.6375   0.05
0.1875   0.6625   0.05
0.1875   0.6875   0.05
0.1875   0.7125   0.05
0.1875   0.7375   0.05
0.1875   0.7625   0.05
0.1875   0.7875   0.05
0.1875   0.8125   0.05
0.1875   0.8375   0.05
0.1875   0.8625   0.05
0.1875   0.8875   0.05
0.1875   0.9125   0.05
0.1875   0.9375   0.05
0.1875   0.9625   0.05
0.1875   0.9875   0.05
0.2125   0.0125   0.05
0.2125   0.0375   0.05
0.2125   0.0625   0.05
0.2125   0.0875   0.05
0.2125   0.1125   0.05
0.2125   0.1375   0.05
0.2125   0.1625   0.05
0.2125   0.1875   0.05
0.2125   0.2125   0.05
0.2125   0.2375   0.05
0.2125   0.2625   0.05
0.2125   0.2875   0.05
0.2125   0.3125   0.05
0.2125   0.3375   0.05
0.2125   0.3625   0.05
0.2125   0.3875   0.05
0.2125   0.4125   0.05
0.2125   0.4375   0.05
0.2125   0.4625   0.05
0.2125   0.4875   0.05
0.2125   0.5125   0.05
0.2125   0.5375   0.05
0.2125   0.5625   0.05
0.2125   0.5875   0.05
0.2125   0.6125   0.05
0.2125   0.6375   0.05
0.2125   0.6625   0.05
0.2125   0.6875   0.05
0.2125   0.7125   0.05
0.2125   0.7375   0.05
0.2125   0.7625   0.05
0.2125   0.7875   0.05
0.2125   0.8125   0.05
0.2125   0.8375   0.05
0.2125   0.8625   0.05
0.2125   0.8875   0.05
0.2125   0.9125   0.05
0.2125   0.9375   0.05
0.2125   0.9625   0.05
0.2125   0.9875   0.05
0.2375   0.0125   0.05
0.2375   0.0375   0.05
0.2375   0.0625   0.05
0.2375   0.0875   0.05
0.2375   0.1125   0.05
0.2375   0.1375   0.05
0.2375   0.1625   0.05
0.2375   0.1875   0.05
0.2375   0.2125   0.05
0.2375   0.2375   0.05
0.2375   0.2625   0.05
0.2375   0.2875   0.05
0.2375   0.3125   0.05
0.2375   0.3375   0.05
0.2375   0.3625   0.05
0.2375   0.3875   0.05
0.2375   0.4125   0.05
0.2375   0.4375   0.05
0.2375   0.4625   0.05
0.2375   0.4875   0.05
0.2375   0.5125   0.05
0.2375   0.5375   0.05
0.2375   0.5625   0.05
0.2375   0.5875   0.05
0.2375   0.6125   0.05
0.2375   0.6375   0.05
0.2375   0.6625   0.05
0.2375   0.6875   0.05
0.2375   0.7125   0.05
0.2375   0.7375   0.05
0.2375   0.7625   0.05
0.2375   0.7875   0.05
0.2375   0.8125   0.05
0.2375   0.8375   0.05
0.2375   0.8625   0.05
0.2375   0.8875   0.05
0.2375   0.9125   0.05
0.2375   0.9375   0.05
0.2375   0.9625   0.05
0.2375   0.9875   0.05
0.2625   0.0125   0.05
0.2625   0.0375   0.05
0.2625   0.0625   0.05
0.2625   0.0875   0.05
0.2625   0.1125   0.05
0.2625   0.1375   0.05
0.2625   0.1625   0.05
0.2625   0.1875   0.05
0.2625   0.2125   0.05
0.2625   0.2375   0.05
0.2625   0.2625   0.05
0.2625   0.2875   0.05
0.2625   0.3125   0.05
0.2625   0.3375   0.05
0.2625   0.3625   0.05
0.2625   0.3875   0.05
0.2625   0.4125   0.05
0.2625   0.4375   0.05
0.2625   0.4625   0.05
0.2625   0.4875   0.05
0.2625   0.5125   0.05
0.2625   0.5375   0.05
0.2625   0.5625   0.05
0.2625   0.5875   0.05
0.2625   0.6125   0.05
0.2625   0.6375   0.05
0.2625   0.6625   0.05
0.2625   0.6875   0.05
0.2625   0.7125   0.05
[...]
POINT_DATA   16000
VECTORS Velocidades double

0 0.321024 0
0 0.733484 0
0 0.857782 0
0 0.905648 0
0 0.928934 0
0 0.942403 0
0 0.951117 0
0 0.957166 0
0 0.961562 0
0 0.964856 0
0 0.967373 0
0 0.969319 0
0 0.97083 0
0 0.971997 0
0 0.972884 0
0 0.973536 0
0 0.973985 0
0 0.974254 0
0 0.974356 0
0 0.9743 0
0 0.974088 0
0 0.973719 0
0 0.973186 0
0 0.972474 0
0 0.971566 0
0 0.970434 0
0 0.969039 0
0 0.96733 0
0 0.965233 0
0 0.962648 0
0 0.959425 0
0 0.955343 0
0 0.950054 0
0 0.942974 0
0 0.933043 0
0 0.918078 0
0 0.892841 0
0 0.842307 0
0 0.715271 0
0 0.311322 0
0 0.187112 0
0 0.48117 0
0 0.647078 0
0 0.740316 0
0 0.795978 0
0 0.831589 0
0 0.855777 0
0 0.872992 0
0 0.885679 0
0 0.895266 0
0 0.902634 0
0 0.908354 0
0 0.912804 0
0 0.916249 0
0 0.918872 0
0 0.920802 0
0 0.922133 0
0 0.922928 0
0 0.92323 0
0 0.923062 0
0 0.922433 0
0 0.921338 0
0 0.919754 0
0 0.917645 0
0 0.914954 0
0 0.911602 0
0 0.90748 0
0 0.902438 0
0 0.896269 0
0 0.888685 0
0 0.879274 0
0 0.86743 0
0 0.85223 0
0 0.832199 0
0 0.804858 0
0 0.76578 0
0 0.706585 0
0 0.610831 0
0 0.44726 0
0 0.171719 0
0 0.127008 0
0 0.34735 0
0 0.503957 0
0 0.609746 0
0 0.681419 0
0 0.731169 0
0 0.76674 0
0 0.792894 0
0 0.812581 0
0 0.827671 0
0 0.839384 0
0 0.84854 0
0 0.855701 0
0 0.861265 0
0 0.865512 0
0 0.868644 0
0 0.870805 0
0 0.872096 0
0 0.872584 0
0 0.872307 0
0 0.871279 0
0 0.869489 0
0 0.866905 0
0 0.86347 0
0 0.859094 0
0 0.853655 0
0 0.846985 0
0 0.838855 0
0 0.828953 0
0 0.816854 0
0 0.801961 0
0 0.783427 0
0 0.760016 0
0 0.729879 0
0 0.690178 0
0 0.636482 0
0 0.561898 0
0 0.456265 0
0 0.307314 0
0 0.110218 0
0 0.0951317 0
0 0.268369 0
0 0.406048 0
0 0.509772 0
0 0.586533 0
0 0.643447 0
0 0.68612 0
0 0.718571 0
0 0.74359 0
0 0.7631 0
0 0.778435 0
0 0.790533 0
0 0.800062 0
0 0.807501 0
0 0.813202 0
0 0.817416 0
0 0.820329 0
0 0.822069 0
0 0.822723 0
0 0.82234 0
0 0.820938 0
0 0.818507 0
0 0.815003 0
0 0.810353 0
0 0.804445 0
0 0.797124 0
0 0.788181 0
0 0.777332 0
0 0.764204 0
0 0.748291 0
0 0.728913 0
0 0.705138 0
0 0.675679 0
0 0.638744 0
0 0.591843 0
0 0.531575 0
0 0.453559 0
0 0.352957 0
0 0.226635 0
0 0.078431 0
0 0.0757963 0
0 0.217295 0
0 0.336754 0
0 0.433105 0
0 0.50899 0
0 0.568237 0
0 0.614508 0
0 0.650817 0
0 0.679485 0
0 0.702249 0
0 0.72039 0
0 0.734851 0
0 0.746332 0
0 0.755351 0
0 0.762291 0
0 0.767439 0
0 0.771002 0
0 0.77313 0
0 0.773923 0
0 0.773439 0
0 0.771701 0
0 0.768694 0
0 0.764373 0
0 0.758653 0
0 0.751407 0
0 0.742462 0
0 0.731585 0
0 0.71847 0
0 0.702717 0
0 0.683804 0
0 0.661049 0
0 0.633564 0
0 0.60019 0
0 0.559434 0
0 0.509423 0
0 0.447934 0
0 0.372645 0
0 0.281848 0
0 0.175953 0
0 0.0597382 0
0 0.0628333 0
0 0.181742 0
0 0.28573 0
0 0.373391 0
0 0.445552 0
0 0.504178 0
0 0.551534 0
0 0.589734 0
0 0.620573 0
0 0.645494 0
0 0.665631 0
0 0.681859 0
0 0.694852 0
0 0.705125 0
0 0.71307 0
0 0.718983 0
0 0.723083 0
0 0.72553 0
0 0.726433 0
0 0.725855 0
0 0.723821 0
0 0.720318 0
0 0.715298 0
0 0.708672 0
0 0.700308 0
0 0.690027 0
0 0.677592 0
0 0.662697 0
0 0.644951 0
0 0.623861 0
0 0.598807 0
0 0.569019 0
0 0.533554 0
0 0.491295 0
0 0.440987 0
0 0.381362 0
0 0.31144 0
0 0.231077 0
0 0.141794 0
0 0.0476233 0
0 0.0534869 0
0 0.155527 0
0 0.246733 0
0 0.325923 0
0 0.393213 0
0 0.449571 0
0 0.496357 0
0 0.534997 0
0 0.566814 0
0 0.592948 0
0 0.614346 0
0 0.631778 0
0 0.645853 0
0 0.657057 0
0 0.665764 0
0 0.672268 0
0 0.676786 0
0 0.679481 0
0 0.680462 0
0 0.679798 0
0 0.677514 0
0 0.6736 0
0 0.668008 0
0 0.660651 0
0 0.6514 0
0 0.640082 0
0 0.626469 0
0 0.610275 0
0 0.591145 0
0 0.568642 0
0 0.542243 0
0 0.511329 0
0 0.475193 0
0 0.433072 0
0 0.38421 0
0 0.32801 0
0 0.264263 0
0 0.193508 0
0 0.117441 0
0 0.0391884 0
0 0.0463797 0
0 0.135311 0
0 0.215944 0
0 0.287391 0
0 0.349522 0
0 0.402787 0
0 0.447986 0
0 0.486059 0
0 0.517953 0
0 0.544537 0
0 0.566574 0
0 0.584707 0
0 0.599471 0
0 0.611299 0
0 0.620538 0
0 0.627462 0
0 0.632281 0
0 0.635151 0
0 0.636182 0
0 0.63544 0
0 0.632955 0
0 0.628717 0
0 0.622682 0
0 0.614769 0
0 0.60486 0
0 0.592794 0
0 0.578366 0
0 0.561322 0
0 0.541355 0
0 0.518104 0
0 0.49115 0
0 0.46003 0
0 0.424252 0
0 0.38334 0
0 0.336909 0
0 0.28478 0
0 0.227151 0
0 0.164804 0
0 0.0992898 0
0 0.0329941 0
0 0.0407559 0
0 0.119169 0
0 0.190961 0
0 0.255499 0
0 0.312588 0
0 0.362418 0
0 0.405451 0
0 0.442299 0
0 0.473623 0
0 0.500071 0
0 0.522239 0
0 0.540651 0
0 0.555759 0
0 0.567937 0
0 0.577495 0
0 0.584682 0
0 0.589692 0
0 0.592671 0
0 0.593724 0
0 0.592916 0
0 0.590275 0
0 0.585798 0
0 0.579445 0
0 0.571146 0
0 0.560794 0
0 0.54825 0
0 0.533335 0
0 0.515838 0
0 0.495505 0
0 0.472051 0
0 0.445164 0
0 0.414517 0
0 0.379796 0
0 0.340745 0
0 0.297224 0
0 0.249305 0
0 0.197376 0
0 0.142254 0
0 0.0852708 0
0 0.0282565 0
0 0.0361687 0
0 0.105921 0
0 0.170225 0
0 0.228641 0
0 0.280982 0
0 0.327309 0
0 0.367884 0
0 0.403098 0
0 0.433409 0
0 0.45929 0
0 0.481196 0
0 0.499546 0
0 0.514708 0
0 0.527001 0
0 0.536692 0
0 0.544001 0
0 0.549103 0
0 0.55213 0
0 0.553181 0
0 0.552317 0
0 0.549567 0
0 0.544931 0
0 0.538377 0
0 0.529846 0
0 0.519248 0
0 0.506465 0
0 0.491352 0
0 0.473737 0
0 0.453424 0
0 0.430199 0
0 0.403843 0
0 0.374144 0
0 0.340927 0
0 0.304089 0
0 0.263651 0
0 0.219819 0
0 0.17305 0
0 0.124116 0
0 0.0741289 0
0 0.0245164 0
0 0.0323371 0
0 0.0948063 0
0 0.152687 0
0 0.20568 0
0 0.253629 0
0 0.296534 0
0 0.334538 0
0 0.367889 0
0 0.396899 0
0 0.421908 0
0 0.443259 0
0 0.461278 0
0 0.476262 0
0 0.488474 0
0 0.498141 0
0 0.505451 0
0 0.510559 0
0 0.513583 0
0 0.514611 0
0 0.513703 0
0 0.510886 0
0 0.506165 0
0 0.499515 0
0 0.490889 0
0 0.480216 0
0 0.467402 0
0 0.452332 0
0 0.434875 0
0 0.414886 0
0 0.392216 0
0 0.366723 0
0 0.338287 0
0 0.306834 0
0 0.272366 0
0 0.235 0
0 0.195006 0
0 0.152852 0
0 0.109229 0
0 0.065064 0
0 0.0214879 0
0 0.029076 0
0 0.0853164 0
0 0.137622 0
0 0.185797 0
0 0.229716 0
0 0.269355 0
0 0.304787 0
0 0.336166 0
0 0.363701 0
0 0.387634 0
0 0.40822 0
0 0.425707 0
0 0.440332 0
0 0.452307 0
0 0.46182 0
0 0.469031 0
0 0.474072 0
0 0.477049 0
0 0.47804 0
0 0.477098 0
0 0.474253 0
0 0.469511 0
0 0.462858 0
0 0.454257 0
0 0.443655 0
0 0.430981 0
0 0.41615 0
0 0.399068 0
0 0.379635 0
0 0.357757 0
0 0.333352 0
0 0.306371 0
0 0.276811 0
0 0.244744 0
0 0.210337 0
0 0.173887 0
0 0.135839 0
0 0.0968007 0
0 0.0575451 0
0 0.0189846 0
0 0.0262582 0
0 0.0770967 0
0 0.124515 0
0 0.168388 0
0 0.208623 0
0 0.245187 0
0 0.278112 0
0 0.30749 0
0 0.333459 0
0 0.356189 0
0 0.375865 0
0 0.392676 0
0 0.406805 0
0 0.418422 0
0 0.427679 0
0 0.434711 0
0 0.439629 0
0 0.442524 0
0 0.443465 0
0 0.442501 0
0 0.439662 0
0 0.434956 0
0 0.428377 0
0 0.419901 0
0 0.40949 0
0 0.397095 0
0 0.382657 0
0 0.366115 0
0 0.347407 0
0 0.326482 0
0 0.303308 0
0 0.277884 0
0 0.250259 0
0 0.220544 0
0 0.188934 0
0 0.155725 0
0 0.121327 0
0 0.086272 0
0 0.0512071 0
0 0.0168801 0
0 0.0237931 0
0 0.0698933 0
0 0.112988 0
0 0.153004 0
0 0.189874 0
0 0.223565 0
0 0.254084 0
0 0.281485 0
0 0.305855 0
0 0.327312 0
0 0.345987 0
0 0.362023 0
0 0.375558 0
0 0.386726 0
0 0.395651 0
0 0.402442 0
0 0.407191 0
0 0.409978 0
0 0.410861 0
0 0.409886 0
0 0.407081 0
0 0.402458 0
0 0.396018 0
0 0.387748 0
0 0.377624 0
0 0.365616 0
0 0.351689 0
0 0.335807 0
0 0.31794 0
0 0.298073 0
0 0.276208 0
0 0.252381 0
0 0.226672 0
0 0.199216 0
0 0.170217 0
0 0.139958 0
0 0.108812 0
0 0.0772409 0
0 0.0457915 0
0 0.0150854 0
0 0.0216148 0
0 0.0635187 0
0 0.102759 0
0 0.1393 0
0 0.173096 0
0 0.204113 0
0 0.232349 0
0 0.257829 0
0 0.280607 0
0 0.300762 0
0 0.318387 0
0 0.333584 0
0 0.346459 0
0 0.357116 0
0 0.365652 0
0 0.372156 0
0 0.376704 0
0 0.379362 0
0 0.380183 0
0 0.379206 0
0 0.376459 0
0 0.371959 0
0 0.36571 0
0 0.357709 0
0 0.347947 0
0 0.336407 0
0 0.323074 0
0 0.307935 0
0 0.290986 0
0 0.272234 0
0 0.251711 0
0 0.229477 0
0 0.205629 0
0 0.180314 0
0 0.153735 0
0 0.126157 0
0 0.0979155 0
0 0.069411 0
0 0.0411105 0
0 0.0135366 0
0 0.0196737 0
0 0.0578319 0
0 0.0936151 0
0 0.127012 0
0 0.157993 0
0 0.18653 0
0 0.212612 0
0 0.236248 0
0 0.257468 0
0 0.276323 0
0 0.292876 0
0 0.307201 0
0 0.319377 0
0 0.329481 0
0 0.337589 0
0 0.343774 0
0 0.348097 0
0 0.350614 0
0 0.35137 0
0 0.350401 0
0 0.347733 0
0 0.343385 0
0 0.337367 0
0 0.329685 0
0 0.320337 0
0 0.309324 0
0 0.296643 0
0 0.282301 0
0 0.26631 0
0 0.2487 0
0 0.229518 0
0 0.20884 0
0 0.186776 0
0 0.163474 0
0 0.139129 0
0 0.113988 0
0 0.0883475 0
0 0.0625596 0
0 0.0370242 0
0 0.0121863 0
0 0.0179317 0
0 0.0527241 0
0 0.0853876 0
0 0.115929 0
0 0.14433 0
0 0.170568 0
0 0.194627 0
0 0.216507 0
0 0.236221 0
0 0.253799 0
0 0.269283 0
0 0.282723 0
0 0.294178 0
0 0.303705 0
0 0.311363 0
0 0.317209 0
0 0.321292 0
0 0.32366 0
0 0.324351 0
0 0.323397 0
0 0.320824 0
0 0.316652 0
0 0.310896 0
0 0.303566 0
0 0.294672 0
0 0.284223 0
0 0.272231 0
0 0.258713 0
0 0.243699 0
0 0.227229 0
0 0.209364 0
0 0.190189 0
0 0.169818 0
0 0.148398 0
0 0.126112 0
0 0.103185 0
0 0.0798842 0
0 0.056516 0
0 0.0334268 0
0 0.0109987 0
0 0.0163591 0
0 0.0481099 0
0 0.0779449 0
0 0.105883 0
0 0.131915 0
0 0.156023 0
0 0.178189 0
0 0.198405 0
0 0.216675 0
0 0.233013 0
0 0.247445 0
0 0.260006 0
0 0.270735 0
0 0.279675 0
0 0.286871 0
0 0.292367 0
0 0.296203 0
0 0.298418 0
0 0.299045 0
0 0.298113 0
0 0.295647 0
0 0.291668 0
0 0.286194 0
0 0.279242 0
0 0.270826 0
0 0.260964 0
0 0.249678 0
0 0.236996 0
0 0.222955 0
0 0.207607 0
0 0.19102 0
0 0.173282 0
0 0.154509 0
0 0.13484 0
0 0.114449 0
0 0.0935397 0
0 0.0723491 0
0 0.0511476 0
0 0.0302362 0
0 0.00994635 0
0 0.0149323 0
0 0.0439209 0
0 0.0711805 0
0 0.096738 0
0 0.120591 0
0 0.142724 0
0 0.163121 0
0 0.181768 0
0 0.198662 0
0 0.213807 0
0 0.227217 0
0 0.238914 0
0 0.248923 0
0 0.257278 0
0 0.264009 0
0 0.269152 0
0 0.272738 0
0 0.2748 0
0 0.275365 0
0 0.274461 0
0 0.272112 0
0 0.268338 0
0 0.26316 0
0 0.256599 0
0 0.248674 0
0 0.23941 0
0 0.228835 0
0 0.216984 0
0 0.203901 0
0 0.189644 0
0 0.174284 0
0 0.157912 0
0 0.140639 0
0 0.122599 0
0 0.103952 0
0 0.0848819 0
0 0.0656018 0
0 0.0463494 0
0 0.0273883 0
0 0.0090076 0
0 0.013632 0
0 0.0401016 0
0 0.0650075 0
0 0.0883816 0
0 0.110226 0
0 0.130529 0
0 0.149273 0
0 0.166445 0
0 0.182034 0
0 0.196038 0
0 0.208463 0
0 0.21932 0
0 0.228626 0
0 0.236403 0
0 0.242674 0
0 0.247466 0
0 0.250805 0
0 0.252715 0
0 0.253223 0
0 0.252352 0
0 0.250125 0
0 0.246563 0
0 0.241689 0
0 0.235525 0
0 0.228097 0
0 0.219431 0
0 0.20956 0
0 0.198526 0
0 0.186375 0
0 0.173169 0
0 0.158981 0
0 0.1439 0
0 0.128032 0
0 0.111504 0
0 0.094462 0
0 0.0770738 0
0 0.0595287 0
0 0.0420373 0
0 0.0248317 0
0 0.00816533 0
0 0.0124425 0
0 0.0366062 0
0 0.0593539 0
0 0.08072 0
0 0.10071 0
0 0.119315 0
0 0.136518 0
0 0.152303 0
0 0.166659 0
0 0.179578 0
0 0.191058 0
0 0.201106 0
0 0.20973 0
0 0.216944 0
0 0.222765 0
0 0.227213 0
0 0.230308 0
0 0.232072 0
0 0.232526 0
0 0.231692 0
0 0.229591 0
0 0.226245 0
0 0.221677 0
0 0.215912 0
0 0.208976 0
0 0.200901 0
0 0.191722 0
0 0.181482 0
0 0.170231 0
0 0.158032 0
0 0.144957 0
0 0.131091 0
0 0.116537 0
0 0.101412 0
0 0.0858495 0
0 0.0700013 0
0 0.0540369 0
0 0.0381432 0
0 0.0225249 0
0 0.0074057 0
0 0.0113505 0
0 0.0333965 0
0 0.0541591 0
0 0.0736739 0
0 0.0919488 0
0 0.108976 0
0 0.124741 0
0 0.139226 0
0 0.152419 0
0 0.164309 0
0 0.174889 0
0 0.184161 0
0 0.192127 0
0 0.198797 0
0 0.204182 0
0 0.208296 0
0 0.211156 0
0 0.212778 0
0 0.213182 0
0 0.212387 0
0 0.210415 0
0 0.207285 0
0 0.203022 0
0 0.197651 0
0 0.191201 0
0 0.183704 0
0 0.175197 0
0 0.165724 0
0 0.155338 0
0 0.144098 0
0 0.132076 0
0 0.119353 0
0 0.106026 0
0 0.0922021 0
0 0.0780044 0
0 0.0635698 0
0 0.0490498 0
0 0.0346107 0
0 0.0204339 0
0 0.0067174 0
0 0.0103449 0
0 0.0304399 0
0 0.0493716 0
0 0.0671754 0
0 0.0838607 0
0 0.0994213 0
0 0.113843 0
0 0.127111 0
0 0.139209 0
0 0.150125 0
0 0.15985 0
0 0.168382 0
0 0.175718 0
0 0.181865 0
0 0.18683 0
0 0.190622 0
0 0.193254 0
0 0.194741 0
0 0.1951 0
0 0.194347 0
0 0.192503 0
0 0.189588 0
0 0.185626 0
0 0.180642 0
0 0.174665 0
0 0.167729 0
0 0.159871 0
0 0.151136 0
0 0.141575 0
0 0.131246 0
0 0.120218 0
0 0.108568 0
0 0.0963856 0
0 0.0837703 0
0 0.0708337 0
0 0.0576994 0
0 0.0445031 0
0 0.0313931 0
0 0.0185305 0
0 0.00609105 0
0 0.00941605 0
0 0.0277085 0
0 0.0449468 0
0 0.0611657 0
0 0.0763752 0
0 0.0905705 0
0 0.103739 0
0 0.115865 0
0 0.126933 0
0 0.136929 0
0 0.145844 0
0 0.153671 0
0 0.160407 0
0 0.166054 0
0 0.170615 0
0 0.174099 0
0 0.176514 0
0 0.177872 0
0 0.178189 0
0 0.177481 0
0 0.175764 0
0 0.173061 0
0 0.169393 0
0 0.164785 0
0 0.159268 0
0 0.152874 0
0 0.14564 0
0 0.13761 0
0 0.128834 0
0 0.119368 0
0 0.109277 0
0 0.0986333 0
0 0.0875195 0
0 0.0760271 0
0 0.0642575 0
0 0.0523221 0
0 0.0403425 0
0 0.028451 0
0 0.016791 0
0 0.00551878 0
0 0.00855569 0
0 0.025178 0
0 0.0408461 0
0 0.0555933 0
0 0.0694299 0
0 0.0823522 0
0 0.0943486 0
0 0.105404 0
0 0.115503 0
0 0.124633 0
0 0.132781 0
0 0.139939 0
0 0.146104 0
0 0.151274 0
0 0.155451 0
0 0.158639 0
0 0.160847 0
0 0.162084 0
0 0.162364 0
0 0.1617 0
0 0.16011 0
0 0.157612 0
0 0.15423 0
0 0.149988 0
0 0.144914 0
0 0.139041 0
0 0.132405 0
0 0.125048 0
0 0.117017 0
0 0.108367 0
0 0.0991583 0
0 0.0894581 0
0 0.0793424 0
0 0.0688947 0
0 0.0582071 0
0 0.0473797 0
0 0.0365217 0
0 0.0257509 0
0 0.0151953 0
0 0.00499394 0
0 0.00775651 0
0 0.0228271 0
0 0.0370353 0
0 0.0504127 0
0 0.0629696 0
0 0.0747029 0
0 0.0856023 0
0 0.0956534 0
0 0.104842 0
0 0.113153 0
0 0.120576 0
0 0.127102 0
0 0.132724 0
0 0.13744 0
0 0.14125 0
0 0.144158 0
0 0.146169 0
0 0.147292 0
0 0.147538 0
0 0.146919 0
0 0.145453 0
0 0.143156 0
0 0.140051 0
0 0.136161 0
0 0.131513 0
0 0.126139 0
0 0.120074 0
0 0.113357 0
0 0.106034 0
0 0.0981553 0
0 0.0897769 0
0 0.0809617 0
0 0.071779 0
0 0.0623049 0
0 0.0526224 0
0 0.0428218 0
0 0.0330005 0
0 0.023264 0
0 0.0137261 0
0 0.00451082 0
0 0.00701203 0
0 0.0206368 0
0 0.033484 0
0 0.0455832 0
0 0.0569445 0
0 0.0675653 0
0 0.0774362 0
0 0.086544 0
0 0.0948746 0
0 0.102415 0
0 0.109152 0
0 0.115078 0
0 0.120185 0
0 0.124471 0
0 0.127933 0
0 0.130574 0
0 0.132399 0
0 0.133414 0
0 0.133629 0
0 0.133056 0
0 0.131711 0
0 0.129609 0
0 0.126771 0
0 0.123219 0
0 0.118981 0
0 0.114084 0
0 0.108563 0
0 0.102455 0
0 0.0958027 0
0 0.0886523 0
0 0.0810561 0
0 0.0730719 0
0 0.0647626 0
0 0.0561973 0
0 0.0474508 0
0 0.0386041 0
0 0.0297442 0
0 0.0209652 0
0 0.0123685 0
0 0.00406445 0
0 0.00631644 0
0 0.0185902 0
0 0.030165 0
0 0.0410684 0
0 0.0513097 0
0 0.0608872 0
0 0.0697921 0
0 0.0780125 0
0 0.0855349 0
0 0.0923466 0
0 0.0984361 0
0 0.103794 0
0 0.108413 0
0 0.11229 0
0 0.115422 0
0 0.11781 0
0 0.119457 0
0 0.120371 0
0 0.120559 0
0 0.120032 0
0 0.118804 0
0 0.11689 0
0 0.114309 0
0 0.111083 0
0 0.107236 0
0 0.102796 0
0 0.0977936 0
0 0.0922643 0
0 0.0862471 0
0 0.0797852 0
0 0.0729265 0
0 0.0657235 0
0 0.0582333 0
0 0.0505183 0
0 0.0426456 0
0 0.0346876 0
0 0.0267221 0
0 0.0188326 0
0 0.0111094 0
0 0.00365052 0
0 0.00566451 0
0 0.0166719 0
0 0.0270536 0
0 0.0368348 0
0 0.0460244 0
0 0.054621 0
0 0.0626167 0
0 0.0700005 0
0 0.0767601 0
0 0.0828834 0
0 0.0883594 0
0 0.0931791 0
0 0.0973353 0
0 0.100824 0
0 0.103641 0
0 0.105789 0
0 0.10727 0
0 0.108088 0
0 0.108251 0
0 0.10777 0
0 0.106656 0
0 0.104923 0
0 0.10259 0
0 0.0996763 0
0 0.0962042 0
0 0.0921996 0
0 0.0876915 0
0 0.0827122 0
0 0.0772976 0
0 0.0714873 0
0 0.0653247 0
0 0.0588575 0
0 0.0521372 0
0 0.0452197 0
0 0.038165 0
0 0.0310377 0
0 0.0239069 0
0 0.0168467 0
0 0.00993713 0
0 0.0032652 0
0 0.00505145 0
0 0.0148678 0
0 0.024127 0
0 0.032852 0
0 0.041051 0
0 0.0487228 0
0 0.0558604 0
0 0.0624538 0
0 0.0684918 0
0 0.0739632 0
0 0.0788576 0
0 0.0831665 0
0 0.0868829 0
0 0.0900022 0
0 0.0925218 0
0 0.0944416 0
0 0.0957635 0
0 0.096492 0
0 0.0966335 0
0 0.0961969 0
0 0.0951933 0
0 0.093636 0
0 0.091541 0
0 0.0889263 0
0 0.085813 0
0 0.0822247 0
0 0.0781879 0
0 0.0737319 0
0 0.0688896 0
0 0.0636968 0
0 0.0581927 0
0 0.0524201 0
0 0.0464252 0
0 0.0402579 0
0 0.0339715 0
0 0.0276232 0
0 0.0212742 0
0 0.0149901 0
0 0.00884145 0
0 0.00290508 0
0 0.00447285 0
0 0.013165 0
0 0.0213645 0
0 0.0290918 0
0 0.0363546 0
0 0.0431517 0
0 0.0494771 0
0 0.0553218 0
0 0.0606754 0
0 0.065528 0
0 0.0698699 0
0 0.0736931 0
0 0.076991 0
0 0.0797592 0
0 0.0819949 0
0 0.0836978 0
0 0.0848693 0
0 0.0855131 0
0 0.085635 0
0 0.0852427 0
0 0.0843463 0
0 0.0829578 0
0 0.0810917 0
0 0.0787644 0
0 0.0759949 0
0 0.0728047 0
0 0.0692178 0
0 0.0652607 0
0 0.0609629 0
0 0.0563566 0
0 0.0514769 0
0 0.0463619 0
0 0.0410526 0
0 0.0355932 0
0 0.0300308 0
0 0.0244158 0
0 0.0188021 0
0 0.0132472 0
0 0.007813 0
0 0.00256709 0
0 0.00392463 0
0 0.0115516 0
0 0.0187467 0
0 0.0255282 0
0 0.0319028 0
0 0.0378698 0
0 0.0434238 0
0 0.0485567 0
0 0.0532595 0
0 0.0575229 0
0 0.0613384 0
0 0.0646986 0
0 0.0675975 0
0 0.0700307 0
0 0.0719958 0
0 0.0734919 0
0 0.0745203 0
0 0.0750841 0
0 0.0751882 0
0 0.0748397 0
0 0.0740472 0
0 0.0728217 0
0 0.0711759 0
0 0.0691248 0
0 0.0666853 0
0 0.0638766 0
0 0.0607201 0
0 0.0572396 0
0 0.0534612 0
0 0.0494135 0
0 0.0451276 0
0 0.0406371 0
0 0.0359781 0
0 0.0311892 0
0 0.0263118 0
0 0.0213899 0
0 0.0164705 0
0 0.0116036 0
0 0.00684334 0
0 0.00224844 0
0 0.00340297 0
0 0.0100163 0
0 0.0162554 0
0 0.0221365 0
0 0.0276653 0
0 0.0328412 0
0 0.0376597 0
0 0.0421136 0
0 0.046195 0
0 0.0498958 0
0 0.0532082 0
0 0.0561258 0
0 0.0586429 0
0 0.0607557 0
0 0.0624618 0
0 0.0637604 0
0 0.0646523 0
0 0.0651402 0
0 0.0652283 0
0 0.0649228 0
0 0.0642312 0
0 0.0631633 0
0 0.0617301 0
0 0.059945 0
0 0.0578228 0
0 0.0553805 0
0 0.0526369 0
0 0.0496129 0
0 0.0463315 0
0 0.0428177 0
0 0.0390985 0
0 0.0352032 0
0 0.0311633 0
0 0.0270122 0
0 0.0227856 0
0 0.0185217 0
0 0.0142608 0
0 0.0100463 0
0 0.0059247 0
0 0.00194657 0
0 0.0029043 0
0 0.00854857 0
0 0.0138737 0
0 0.0188935 0
0 0.0236132 0
0 0.0280321 0
0 0.0321463 0
0 0.0359499 0
0 0.0394357 0
0 0.0425969 0
0 0.0454268 0
0 0.0479195 0
0 0.0500702 0
0 0.0518754 0
0 0.053333 0
0 0.0544421 0
0 0.0552033 0
0 0.0556189 0
0 0.0556925 0
0 0.0554293 0
0 0.0548359 0
0 0.0539206 0
0 0.0526931 0
0 0.0511648 0
0 0.0493486 0
0 0.0472593 0
0 0.0449131 0
0 0.042328 0
0 0.0395238 0
0 0.036522 0
0 0.0333458 0
0 0.0300204 0
0 0.0265724 0
0 0.0230306 0
0 0.0194254 0
0 0.0157891 0
0 0.0121561 0
0 0.00856322 0
0 0.00504989 0
0 0.00165913 0
0 0.00242519 0
0 0.00713842 0
0 0.0115853 0
0 0.0157774 0
0 0.0197192 0
0 0.0234101 0
0 0.0268469 0
0 0.0300245 0
0 0.032937 0
0 0.0355786 0
0 0.0379435 0
0 0.0400268 0
0 0.0418243 0
0 0.0433331 0
0 0.0445511 0
0 0.0454777 0
0 0.0461134 0
0 0.0464598 0
0 0.0465201 0
0 0.0462986 0
0 0.0458009 0
0 0.0450338 0
0 0.0440058 0
0 0.0427264 0
0 0.0412064 0
0 0.0394584 0
0 0.0374961 0
0 0.0353345 0
0 0.0329905 0
0 0.0304819 0
0 0.0278284 0
0 0.0250509 0
0 0.0221718 0
0 0.019215 0
0 0.016206 0
0 0.0131715 0
0 0.0101403 0
0 0.00714294 0
0 0.00421222 0
0 0.00138389 0
0 0.00196241 0
0 0.00577627 0
0 0.0093747 0
0 0.0127671 0
0 0.0159571 0
0 0.0189444 0
0 0.0217262 0
0 0.0242983 0
0 0.0266562 0
0 0.0287948 0
0 0.0307096 0
0 0.0323965 0
0 0.033852 0
0 0.0350737 0
0 0.0360599 0
0 0.03681 0
0 0.0373242 0
0 0.0376042 0
0 0.0376522 0
0 0.0374718 0
0 0.0370675 0
0 0.0364451 0
0 0.0356113 0
0 0.0345738 0
0 0.0333418 0
0 0.0319252 0
0 0.0303352 0
0 0.0285843 0
0 0.026686 0
0 0.0246549 0
0 0.0225069 0
0 0.0202591 0
0 0.0179295 0
0 0.0155375 0
0 0.0131035 0
0 0.0106495 0
0 0.00819835 0
0 0.00577482 0
0 0.00340537 0
0 0.0011188 0
0 0.00151282 0
0 0.00445293 0
0 0.00722703 0
0 0.00984241 0
0 0.0123018 0
0 0.014605 0
0 0.01675 0
0 0.0187334 0
0 0.0205517 0
0 0.0222011 0
0 0.0236779 0
0 0.0249789 0
0 0.0261016 0
0 0.0270438 0
0 0.0278044 0
0 0.0283828 0
0 0.0287792 0
0 0.0289947 0
0 0.0290312 0
0 0.0288914 0
0 0.0285789 0
0 0.0280981 0
0 0.0274541 0
0 0.026653 0
0 0.0257019 0
0 0.0246086 0
0 0.0233816 0
0 0.0220308 0
0 0.0205664 0
0 0.019 0
0 0.0173436 0
0 0.0156106 0
0 0.0138148 0
0 0.0119711 0
0 0.0100954 0
0 0.00820441 0
0 0.00631586 0
0 0.00444871 0
0 0.00262333 0
0 0.000861859 0
0 0.00107339 0
0 0.00315949 0
0 0.00512783 0
0 0.00698359 0
0 0.00872875 0
0 0.0103631 0
0 0.0118853 0
0 0.0132929 0
0 0.0145833 0
0 0.0157539 0
0 0.0168021 0
0 0.0177256 0
0 0.0185224 0
0 0.0191912 0
0 0.019731 0
0 0.0201415 0
0 0.0204227 0