# vtk DataFile Version 2.0
Velocidades
ASCII

DATASET STRUCTURED_GRID
DIMENSIONS   40   40   20

POINTS   32000   double
0.0125   0.0125   0.025
0.0125   0.0375   0.025
0.0125   0.0625   0.025
0.0125   0.0875   0.025
0.0125   0.1125   0.025
0.0125   0.1375   0.025
0.0125   0.1625   0.025
0.0125   0.1875   0.025
0.0125   0.2125   0.025
0.0125   0.2375   0.025
0.0125   0.2625   0.025
0.0125   0.2875   0.025
0.0125   0.3125   0.025
0.0125   0.3375   0.025
0.0125   0.3625   0.025
0.0125   0.3875   0.025
0.0125   0.4125   0.025
0.0125   0.4375   0.025
0.0125   0.4625   0.025
0.0125   0.4875   0.025
0.0125   0.5125   0.025
0.0125   0.5375   0.025
0.0125   0.5625   0.025
0.0125   0.5875   0.025
0.0125   0.6125   0.025
0.0125   0.6375   0.025
0.0125   0.6625   0.025
0.0125   0.6875   0.025
0.0125   0.7125   0.025
0.0125   0.7375   0.025
0.0125   0.7625   0.025
0.0125   0.7875   0.025
0.0125   0.8125   0.025
0.0125   0.8375   0.025
0.0125   0.8625   0.025
0.0125   0.8875   0.025
0.0125   0.9125   0.025
0.0125   0.9375   0.025
0.0125   0.9625   0.025
0.0125   0.9875   0.025
0.0375   0.0125   0.025
0.0375   0.0375   0.025
0.0375   0.0625   0.025
0.0375   0.0875   0.025
0.0375   0.1125   0.025
0.0375   0.1375   0.025
0.0375   0.1625   0.025
0.0375   0.1875   0.025
0.0375   0.2125   0.025
0.0375   0.2375   0.025
0.0375   0.2625   0.025
0.0375   0.2875   0.025
0.0375   0.3125   0.025
0.0375   0.3375   0.025
0.0375   0.3625   0.025
0.0375   0.3875   0.025
0.0375   0.4125   0.025
0.0375   0.4375   0.025
0.0375   0.4625   0.025
0.0375   0.4875   0.025
0.0375   0.5125   0.025
0.0375   0.5375   0.025
0.0375   0.5625   0.025
0.0375   0.5875   0.025
0.0375   0.6125   0.025
0.0375   0.6375   0.025
0.0375   0.6625   0.025
0.0375   0.6875   0.025
0.0375   0.7125   0.025
0.0375   0.7375   0.025
0.0375   0.7625   0.025
0.0375   0.7875   0.025
0.0375   0.8125   0.025
0.0375   0.8375   0.025
0.0375   0.8625   0.025
0.0375   0.8875   0.025
0.0375   0.9125   0.025
0.0375   0.9375   0.025
0.0375   0.9625   0.025
0.0375   0.9875   0.025
0.0625   0.0125   0.025
0.0625   0.0375   0.025
0.0625   0.0625   0.025
0.0625   0.0875   0.025
0.0625   0.1125   0.025
0.0625   0.1375   0.025
0.0625   0.1625   0.025
0.0625   0.1875   0.025
0.0625   0.2125   0.025
0.0625   0.2375   0.025
0.0625   0.2625   0.025
0.0625   0.2875   0.025
0.0625   0.3125   0.025
0.0625   0.3375   0.025
0.0625   0.3625   0.025
0.0625   0.3875   0.025
0.0625   0.4125   0.025
0.0625   0.4375   0.025
0.0625   0.4625   0.025
0.0625   0.4875   0.025
0.0625   0.5125   0.025
0.0625   0.5375   0.025
0.0625   0.5625   0.025
0.0625   0.5875   0.025
0.0625   0.6125   0.025
0.0625   0.6375   0.025
0.0625   0.6625   0.025
0.0625   0.6875   0.025
0.0625   0.7125   0.025
0.0625   0.7375   0.025
0.0625   0.7625   0.025
0.0625   0.7875   0.025
0.0625   0.8125   0.025
0.0625   0.8375   0.025
0.0625   0.8625   0.025
0.0625   0.8875   0.025
0.0625   0.9125   0.025
0.0625   0.9375   0.025
0.0625   0.9625   0.025
0.0625   0.9875   0.025
0.0875   0.0125   0.025
0.0875   0.0375   0.025
0.0875   0.0625   0.025
0.0875   0.0875   0.025
0.0875   0.1125   0.025
0.0875   0.1375   0.025
0.0875   0.1625   0.025
0.0875   0.1875   0.025
0.0875   0.2125   0.025
0.0875   0.2375   0.025
0.0875   0.2625   0.025
0.0875   0.2875   0.025
0.0875   0.3125   0.025
0.0875   0.3375   0.025
0.0875   0.3625   0.025
0.0875   0.3875   0.025
0.0875   0.4125   0.025
0.0875   0.4375   0.025
0.0875   0.4625   0.025
0.0875   0.4875   0.025
0.0875   0.5125   0.025
0.0875   0.5375   0.025
0.0875   0.5625   0.025
0.0875   0.5875   0.025
0.0875   0.6125   0.025
0.0875   0.6375   0.025
0.0875   0.6625   0.025
0.0875   0.6875   0.025
0.0875   0.7125   0.025
0.0875   0.7375   0.025
0.0875   0.7625   0.025
0.0875   0.7875   0.025
0.0875   0.8125   0.025
0.0875   0.8375   0.025
0.0875   0.8625   0.025
0.0875   0.8875   0.025
0.0875   0.9125   0.025
0.0875   0.9375   0.025
0.0875   0.9625   0.025
0.0875   0.9875   0.025
0.1125   0.0125   0.025
0.1125   0.0375   0.025
0.1125   0.0625   0.025
0.1125   0.0875   0.025
0.1125   0.1125   0.025
0.1125   0.1375   0.025
0.1125   0.1625   0.025
0.1125   0.1875   0.025
0.1125   0.2125   0.025
0.1125   0.2375   0.025
0.1125   0.2625   0.025
0.1125   0.2875   0.025
0.1125   0.3125   0.025
0.1125   0.3375   0.025
0.1125   0.3625   0.025
0.1125   0.3875   0.025
0.1125   0.4125   0.025
0.1125   0.4375   0.025
0.1125   0.4625   0.025
0.1125   0.4875   0.025
0.1125   0.5125   0.025
0.1125   0.5375   0.025
0.1125   0.5625   0.025
0.1125   0.5875   0.025
0.1125   0.6125   0.025
0.1125   0.6375   0.025
0.1125   0.6625   0.025
0.1125   0.6875   0.025
0.1125   0.7125   0.025
0.1125   0.7375   0.025
0.1125   0.7625   0.025
0.1125   0.7875   0.025
0.1125   0.8125   0.025
0.1125   0.8375   0.025
0.1125   0.8625   0.025
0.1125   0.8875   0.025
0.1125   0.9125   0.025
0.1125   0.9375   0.025
0.1125   0.9625   0.025
0.1125   0.9875   0.025
0.1375   0.0125   0.025
0.1375   0.0375   0.025
0.1375   0.0625   0.025
0.1375   0.0875   0.025
0.1375   0.1125   0.025
0.1375   0.1375   0.025
0.1375   0.1625   0.025
0.1375   0.1875   0.025
0.1375   0.2125   0.025
0.1375   0.2375   0.025
0.1375   0.2625   0.025
0.1375   0.2875   0.025
0.1375   0.3125   0.025
0.1375   0.3375   0.025
0.1375   0.3625   0.025
0.1375   0.3875   0.025
0.1375   0.4125   0.025
0.1375   0.4375   0.025
0.1375   0.4625   0.025
0.1375   0.4875   0.025
0.1375   0.5125   0.025
0.1375   0.5375   0.025
0.1375   0.5625   0.025
0.1375   0.5875   0.025
0.1375   0.6125   0.025
0.1375   0.6375   0.025
0.1375   0.6625   0.025
0.1375   0.6875   0.025
0.1375   0.7125   0.025
0.1375   0.7375   0.025
0.1375   0.7625   0.025
0.1375   0.7875   0.025
0.1375   0.8125   0.025
0.1375   0.8375   0.025
0.1375   0.8625   0.025
0.1375   0.8875   0.025
0.1375   0.9125   0.025
0.1375   0.9375   0.025
0.1375   0.9625   0.025
0.1375   0.9875   0.025
0.1625   0.0125   0.025
0.1625   0.0375   0.025
0.1625   0.0625   0.025
0.1625   0.0875   0.025
0.1625   0.1125   0.025
0.1625   0.1375   0.025
0.1625   0.1625   0.025
0.1625   0.1875   0.025
0.1625   0.2125   0.025
0.1625   0.2375   0.025
0.1625   0.2625   0.025
0.1625   0.2875   0.025
0.1625   0.3125   0.025
0.1625   0.3375   0.025
0.1625   0.3625   0.025
0.1625   0.3875   0.025
0.1625   0.4125   0.025
0.1625   0.4375   0.025
0.1625   0.4625   0.025
0.1625   0.4875   0.025
0.1625   0.5125   0.025
0.1625   0.5375   0.025
0.1625   0.5625   0.025
0.1625   0.5875   0.025
0.1625   0.6125   0.025
0.1625   0.6375   0.025
0.1625   0.6625   0.025
0.1625   0.6875   0.025
0.1625   0.7125   0.025
0.1625   0.7375   0.025
0.1625   0.7625   0.025
0.1625   0.7875   0.025
0.1625   0.8125   0.025
0.1625   0.8375   0.025
0.1625   0.8625   0.025
0.1625   0.8875   0.025
0.1625   0.9125   0.025
0.1625   0.9375   0.025
0.1625   0.9625   0.025
0.1625   0.9875   0.025
0.1875   0.0125   0.025
0.1875   0.0375   0.025
0.1875   0.0625   0.025
0.1875   0.0875   0.025
0.1875   0.1125   0.025
0.1875   0.1375   0.025
0.1875   0.1625   0.025
0.1875   0.1875   0.025
0.1875   0.2125   0.025
0.1875   0.2375   0.025
0.1875   0.2625   0.025
0.1875   0.2875   0.025
0.1875   0.3125   0.025
0.1875   0.3375   0.025
0.1875   0.3625   0.025
0.1875   0.3875   0.025
0.1875   0.4125   0.025
0.1875   0.4375   0.025
0.1875   0.4625   0.025
0.1875   0.4875   0.025
0.1875   0.5125   0.025
0.1875   0.5375   0.025
0.1875   0.5625   0.025
0.1875   0.5875   0.025
0.1875   0.6125   0.025
0.1875   0.6375   0.025
0.1875   0.6625   0.025
0.1875   0.6875   0.025
0.1875   0.7125   0.025
0.1875   0.7375   0.025
0.1875   0.7625   0.025
0.1875   0.7875   0.025
0.1875   0.8125   0.025
0.1875   0.8375   0.025
0.1875   0.8625   0.025
0.1875   0.8875   0.025
0.1875   0.9125   0.025
0.1875   0.9375   0.025
0.1875   0.9625   0.025
0.1875   0.9875   0.025
0.2125   0.0125   0.025
0.2125   0.0375   0.025
0.2125   0.0625   0.025
0.2125   0.0875   0.025
0.2125   0.1125   0.025
0.2125   0.1375   0.025
0.2125   0.1625   0.025
0.2125   0.1875   0.025
0.2125   0.2125   0.025
0.2125   0.2375   0.025
0.2125   0.2625   0.025
0.2125   0.2875   0.025
0.2125   0.3125   0.025
0.2125   0.3375   0.025
0.2125   0.3625   0.025
0.2125   0.3875   0.025
0.2125   0.4125   0.025
0.2125   0.4375   0.025
0.2125   0.4625   0.025
0.2125   0.4875   0.025
0.2125   0.5125   0.025
0.2125   0.5375   0.025
0.2125   0.5625   0.025
0.2125   0.5875   0.025
0.2125   0.6125   0.025
0.2125   0.6375   0.025
0.2125   0.6625   0.025
0.2125   0.6875   0.025
0.2125   0.7125   0.025
0.2125   0.7375   0.025
0.2125   0.7625   0.025
0.2125   0.7875   0.025
0.2125   0.8125   0.025
0.2125   0.8375   0.025
0.2125   0.8625   0.025
0.2125   0.8875   0.025
0.2125   0.9125   0.025
0.2125   0.9375   0.025
0.2125   0.9625   0.025
0.2125   0.9875   0.025
0.2375   0.0125   0.025
0.2375   0.0375   0.025
0.2375   0.0625   0.025
0.2375   0.0875   0.025
0.2375   0.1125   0.025
0.2375   0.1375   0.025
0.2375   0.1625   0.025
0.2375   0.1875   0.025
0.2375   0.2125   0.025
0.2375   0.2375   0.025
0.2375   0.2625   0.025
0.2375   0.2875   0.025
0.2375   0.3125   0.025
0.2375   0.3375   0.025
0.2375   0.3625   0.025
0.2375   0.3875   0.025
0.2375   0.4125   0.025
0.2375   0.4375   0.025
0.2375   0.4625   0.025
0.2375   0.4875   0.025
0.2375   0.5125   0.025
0.2375   0.5375   0.025
0.2375   0.5625   0.025
0.2375   0.5875   0.025
0.2375   0.6125   0.025
0.2375   0.6375   0.025
0.2375   0.6625   0.025
0.2375   0.6875   0.025
0.2375   0.7125   0.025
0.2375   0.7375   0.025
0.2375   0.7625   0.025
0.2375   0.7875   0.025
0.2375   0.8125   0.025
0.2375   0.8375   0.025
0.2375   0.8625   0.025
0.2375   0.8875   0.025
0.2375   0.9125   0.025
0.2375   0.9375   0.025
0.2375   0.9625   0.025
0.2375   0.9875   0.025
0.2625   0.0125   0.025
0.2625   0.0375   0.025
0.2625   0.0625   0.025
0.2625   0.0875   0.025
0.2625   0.1125   0.025
0.2625   0.1375   0.025
0.2625   0.1625   0.025
0.2625   0.1875   0.025
0.2625   0.2125   0.025
0.2625   0.2375   0.025
0.2625   0.2625   0.025
[...]
POINT_DATA   32000
VECTORS Velocidades double

0 0.327834 0
0 0.746169 0
0 0.868078 0
0 0.913313 0
0 0.93451 0
0 0.946356 0
0 0.953785 0
0 0.958795 0
0 0.962335 0
0 0.964911 0
0 0.966818 0
0 0.968239 0
0 0.969293 0
0 0.970059 0
0 0.970591 0
0 0.970927 0
0 0.971092 0
0 0.971102 0
0 0.970967 0
0 0.970689 0
0 0.970268 0
0 0.969696 0
0 0.968961 0
0 0.968045 0
0 0.966923 0
0 0.96556 0
0 0.963908 0
0 0.961907 0
0 0.959469 0
0 0.956475 0
0 0.952752 0
0 0.948043 0
0 0.941948 0
0 0.933798 0
0 0.922382 0
0 0.905225 0
0 0.876519 0
0 0.820304 0
0 0.68604 0
0 0.294858 0
0 0.200237 0
0 0.508126 0
0 0.67243 0
0 0.760717 0
0 0.811402 0
0 0.842728 0
0 0.863353 0
0 0.877612 0
0 0.887825 0
0 0.895319 0
0 0.900897 0
0 0.905068 0
0 0.90817 0
0 0.910428 0
0 0.911999 0
0 0.91299 0
0 0.913476 0
0 0.913504 0
0 0.913101 0
0 0.912277 0
0 0.911028 0
0 0.909333 0
0 0.907157 0
0 0.904448 0
0 0.901131 0
0 0.897108 0
0 0.892245 0
0 0.886363 0
0 0.879222 0
0 0.870486 0
0 0.859683 0
0 0.846129 0
0 0.828791 0
0 0.806051 0
0 0.775242 0
0 0.731758 0
0 0.667298 0
0 0.566698 0
0 0.404223 0
0 0.151765 0
0 0.142068 0
0 0.380128 0
0 0.537549 0
0 0.638425 0
0 0.70392 0
0 0.747763 0
0 0.77812 0
0 0.799785 0
0 0.815625 0
0 0.827408 0
0 0.836261 0
0 0.842925 0
0 0.847902 0
0 0.851538 0
0 0.854071 0
0 0.855672 0
0 0.856454 0
0 0.856493 0
0 0.855832 0
0 0.854488 0
0 0.852452 0
0 0.849695 0
0 0.846161 0
0 0.841768 0
0 0.836403 0
0 0.829912 0
0 0.822094 0
0 0.812682 0
0 0.801317 0
0 0.787519 0
0 0.770625 0
0 0.749714 0
0 0.723469 0
0 0.689979 0
0 0.646423 0
0 0.588635 0
0 0.510629 0
0 0.404662 0
0 0.263794 0
0 0.0919805 0
0 0.110162 0
0 0.302345 0
0 0.442888 0
0 0.542648 0
0 0.613128 0
0 0.663414 0
0 0.69987 0
0 0.72675 0
0 0.74686 0
0 0.762067 0
0 0.773628 0
0 0.782406 0
0 0.789003 0
0 0.793841 0
0 0.797223 0
0 0.79936 0
0 0.8004 0
0 0.80044 0
0 0.799537 0
0 0.797712 0
0 0.794957 0
0 0.791233 0
0 0.78647 0
0 0.780565 0
0 0.773375 0
0 0.764712 0
0 0.754329 0
0 0.741903 0
0 0.727017 0
0 0.70912 0
0 0.687487 0
0 0.661155 0
0 0.628839 0
0 0.588825 0
0 0.538875 0
0 0.476187 0
0 0.397645 0
0 0.300777 0
0 0.186243 0
0 0.0624733 0
0 0.0899824 0
0 0.250154 0
0 0.37372 0
0 0.467139 0
0 0.537139 0
0 0.58961 0
0 0.629168 0
0 0.659224 0
0 0.682229 0
0 0.699926 0
0 0.713554 0
0 0.724001 0
0 0.731908 0
0 0.737736 0
0 0.741822 0
0 0.744405 0
0 0.745656 0
0 0.745685 0
0 0.744561 0
0 0.742309 0
0 0.73892 0
0 0.734351 0
0 0.728524 0
0 0.721324 0
0 0.712591 0
0 0.702119 0
0 0.689642 0
0 0.674821 0
0 0.657223 0
0 0.636306 0
0 0.61138 0
0 0.581584 0
0 0.545846 0
0 0.502876 0
0 0.451201 0
0 0.389328 0
0 0.316165 0
0 0.231876 0
0 0.139328 0
0 0.0457853 0
0 0.0758602 0
0 0.212383 0
0 0.321014 0
0 0.406535 0
0 0.473331 0
0 0.525326 0
0 0.565804 0
0 0.597379 0
0 0.622059 0
0 0.641362 0
0 0.656419 0
0 0.668078 0
0 0.676967 0
0 0.683555 0
0 0.688187 0
0 0.691117 0
0 0.692525 0
0 0.692532 0
0 0.691212 0
0 0.688594 0
0 0.684671 0
0 0.679398 0
0 0.672695 0
0 0.664443 0
0 0.65448 0
0 0.642598 0
0 0.628533 0
0 0.611959 0
0 0.592473 0
0 0.569585 0
0 0.542709 0
0 0.511152 0
0 0.474126 0
0 0.430786 0
0 0.380328 0
0 0.322193 0
0 0.256426 0
0 0.184241 0
0 0.108711 0
0 0.0353167 0
0 0.0652568 0
0 0.183462 0
0 0.279338 0
0 0.356883 0
0 0.419273 0
0 0.469253 0
0 0.509185 0
0 0.541036 0
0 0.566402 0
0 0.586545 0
0 0.602452 0
0 0.614889 0
0 0.624441 0
0 0.631558 0
0 0.636578 0
0 0.639753 0
0 0.641265 0
0 0.641239 0
0 0.639752 0
0 0.636835 0
0 0.632484 0
0 0.626658 0
0 0.619277 0
0 0.610227 0
0 0.599354 0
0 0.586461 0
0 0.571306 0
0 0.553596 0
0 0.532981 0
0 0.509055 0
0 0.481358 0
0 0.449385 0
0 0.412619 0
0 0.370589 0
0 0.322977 0
0 0.269792 0
0 0.211622 0
0 0.14995 0
0 0.0874695 0
0 0.0282237 0
0 0.0568915 0
0 0.160369 0
0 0.245363 0
0 0.315397 0
0 0.372973 0
0 0.420121 0
0 0.45858 0
0 0.489833 0
0 0.515128 0
0 0.53549 0
0 0.551754 0
0 0.564584 0
0 0.574509 0
0 0.58194 0
0 0.587197 0
0 0.59052 0
0 0.592086 0
0 0.592019 0
0 0.590395 0
0 0.587249 0
0 0.582579 0
0 0.576348 0
0 0.568485 0
0 0.558886 0
0 0.547411 0
0 0.533886 0
0 0.5181 0
0 0.499804 0
0 0.478715 0
0 0.45452 0
0 0.426885 0
0 0.395477 0
0 0.360003 0
0 0.320269 0
0 0.27627 0
0 0.228319 0
0 0.177205 0
0 0.124361 0
0 0.0719986 0
0 0.0231326 0
0 0.0500528 0
0 0.141345 0
0 0.216979 0
0 0.280133 0
0 0.332887 0
0 0.376825 0
0 0.413263 0
0 0.443334 0
0 0.468009 0
0 0.488111 0
0 0.50433 0
0 0.517232 0
0 0.527277 0
0 0.534833 0
0 0.540191 0
0 0.543575 0
0 0.545151 0
0 0.545036 0
0 0.543307 0
0 0.539999 0
0 0.535115 0
0 0.528624 0
0 0.520466 0
0 0.510549 0
0 0.498755 0
0 0.484935 0
0 0.468917 0
0 0.450502 0
0 0.429474 0
0 0.405607 0
0 0.378682 0
0 0.348506 0
0 0.314956 0
0 0.278022 0
0 0.237883 0
0 0.19499 0
0 0.15016 0
0 0.104665 0
0 0.0602845 0
0 0.0193141 0
0 0.044314 0
0 0.125296 0
0 0.192803 0
0 0.24972 0
0 0.297838 0
0 0.338445 0
0 0.37257 0
0 0.401091 0
0 0.424768 0
0 0.444257 0
0 0.460122 0
0 0.472836 0
0 0.482792 0
0 0.490313 0
0 0.495657 0
0 0.499026 0
0 0.500573 0
0 0.50041 0
0 0.498607 0
0 0.495202 0
0 0.490202 0
0 0.483583 0
0 0.475297 0
0 0.465269 0
0 0.453403 0
0 0.439579 0
0 0.423662 0
0 0.405504 0
0 0.38495 0
0 0.361852 0
0 0.336084 0
0 0.30756 0
0 0.276274 0
0 0.242334 0
0 0.206012 0
0 0.167801 0
0 0.128468 0
0 0.0891026 0
0 0.0511347 0
0 0.0163506 0
0 0.0394032 0
0 0.111513 0
0 0.171897 0
0 0.223177 0
0 0.266932 0
0 0.304237 0
0 0.335924 0
0 0.362684 0
0 0.385116 0
0 0.403746 0
0 0.419027 0
0 0.431354 0
0 0.441057 0
0 0.448413 0
0 0.453647 0
0 0.456939 0
0 0.458429 0
0 0.458216 0
0 0.456369 0
0 0.452926 0
0 0.447898 0
0 0.441269 0
0 0.433002 0
0 0.423041 0
0 0.41131 0
0 0.39772 0
0 0.382171 0
0 0.364559 0
0 0.344784 0
0 0.322761 0
0 0.298435 0
0 0.271799 0
0 0.242922 0
0 0.211979 0
0 0.179279 0
0 0.145309 0
0 0.110755 0
0 0.0765344 0
0 0.0438058 0
0 0.0139875 0
0 0.0351388 0
0 0.0995126 0
0 0.153602 0
0 0.199792 0
0 0.239485 0
0 0.273604 0
0 0.302834 0
0 0.327731 0
0 0.348773 0
0 0.366378 0
0 0.380917 0
0 0.39271 0
0 0.402034 0
0 0.409124 0
0 0.414175 0
0 0.417343 0
0 0.418752 0
0 0.418493 0
0 0.416631 0
0 0.413202 0
0 0.408222 0
0 0.401682 0
0 0.393559 0
0 0.383811 0
0 0.372384 0
0 0.359215 0
0 0.344237 0
0 0.327383 0
0 0.308599 0
0 0.287847 0
0 0.265127 0
0 0.240483 0
0 0.214032 0
0 0.185979 0
0 0.15664 0
0 0.126467 0
0 0.0960633 0
0 0.0661969 0
0 0.0378141 0
0 0.0120617 0
0 0.0313941 0
0 0.0889541 0
0 0.137445 0
0 0.179031 0
0 0.21497 0
0 0.246063 0
0 0.272886 0
0 0.295894 0
0 0.315472 0
0 0.331957 0
0 0.345647 0
0 0.356805 0
0 0.365662 0
0 0.372413 0
0 0.377224 0
0 0.380232 0
0 0.381546 0
0 0.381246 0
0 0.379393 0
0 0.376024 0
0 0.371155 0
0 0.364789 0
0 0.356909 0
0 0.347491 0
0 0.336498 0
0 0.323892 0
0 0.309631 0
0 0.293682 0
0 0.276024 0
0 0.256657 0
0 0.235615 0
0 0.21298 0
0 0.18889 0
0 0.163561 0
0 0.137298 0
0 0.110509 0
0 0.083716 0
0 0.057564 0
0 0.032833 0
0 0.0104646 0
0 0.028078 0
0 0.0795903 0
0 0.123075 0
0 0.160494 0
0 0.192975 0
0 0.221224 0
0 0.245732 0
0 0.266876 0
0 0.28497 0
0 0.300287 0
0 0.313068 0
0 0.323528 0
0 0.331857 0
0 0.338218 0
0 0.342752 0
0 0.345576 0
0 0.346785 0
0 0.346452 0
0 0.34463 0
0 0.341357 0
0 0.336653 0
0 0.330524 0
0 0.322966 0
0 0.313966 0
0 0.303505 0
0 0.291561 0
0 0.278118 0
0 0.263166 0
0 0.246709 0
0 0.228775 0
0 0.209422 0
0 0.18875 0
0 0.16691 0
0 0.144114 0
0 0.120644 0
0 0.0968634 0
0 0.073222 0
0 0.0502629 0
0 0.028635 0
0 0.00912109 0
0 0.0251227 0
0 0.0712362 0
0 0.110226 0
0 0.143868 0
0 0.173174 0
0 0.19877 0
0 0.221079 0
0 0.240418 0
0 0.257046 0
0 0.271184 0
0 0.283029 0
0 0.292757 0
0 0.300522 0
0 0.306463 0
0 0.310696 0
0 0.313322 0
0 0.314422 0
0 0.314061 0
0 0.31229 0
0 0.309143 0
0 0.304644 0
0 0.298803 0
0 0.291625 0
0 0.283106 0
0 0.273243 0
0 0.262028 0
0 0.249463 0
0 0.235555 0
0 0.22033 0
0 0.203831 0
0 0.186134 0
0 0.167345 0
0 0.147617 0
0 0.127152 0
0 0.106206 0
0 0.0850996 0
0 0.064219 0
0 0.0440234 0
0 0.0250571 0
0 0.00797758 0
0 0.0224767 0
0 0.0637496 0
0 0.0986917 0
0 0.128906 0
0 0.155303 0
0 0.178437 0
0 0.198677 0
0 0.216291 0
0 0.231496 0
0 0.244472 0
0 0.255381 0
0 0.264365 0
0 0.271552 0
0 0.277057 0
0 0.280977 0
0 0.283397 0
0 0.284388 0
0 0.284009 0
0 0.282303 0
0 0.279306 0
0 0.27504 0
0 0.269523 0
0 0.262765 0
0 0.25477 0
0 0.245545 0
0 0.235097 0
0 0.223438 0
0 0.210591 0
0 0.196593 0
0 0.1815 0
0 0.165394 0
0 0.148385 0
0 0.130621 0
0 0.112287 0
0 0.0936167 0
0 0.0748885 0
0 0.0564346 0
0 0.0386449 0
0 0.0219794 0
0 0.00699505 0
0 0.0200996 0
0 0.0570192 0
0 0.0883082 0
0 0.115411 0
0 0.139145 0
0 0.160004 0
0 0.178311 0
0 0.194295 0
0 0.208137 0
0 0.219987 0
0 0.229977 0
0 0.238225 0
0 0.244834 0
0 0.249899 0
0 0.253503 0
0 0.255718 0
0 0.256604 0
0 0.256213 0
0 0.254585 0
0 0.251753 0
0 0.247743 0
0 0.242573 0
0 0.236258 0
0 0.228811 0
0 0.220246 0
0 0.210578 0
0 0.19983 0
0 0.188033 0
0 0.175234 0
0 0.161494 0
0 0.146898 0
0 0.131554 0
0 0.115601 0
0 0.0992095 0
0 0.082586 0
0 0.0659744 0
0 0.0496603 0
0 0.0339758 0
0 0.0193122 0
0 0.0061443 0
0 0.0179589 0
0 0.050955 0
0 0.0789426 0
0 0.10322 0
0 0.124521 0
0 0.143285 0
0 0.159795 0
0 0.17425 0
0 0.186802 0
0 0.197575 0
0 0.206679 0
0 0.214209 0
0 0.220251 0
0 0.224884 0
0 0.228177 0
0 0.23019 0
0 0.230976 0
0 0.23058 0
0 0.229039 0
0 0.226384 0
0 0.222641 0
0 0.21783 0
0 0.211971 0
0 0.205081 0
0 0.197179 0
0 0.188288 0
0 0.178436 0
0 0.167662 0
0 0.156016 0
0 0.143561 0
0 0.130383 0
0 0.116584 0
0 0.102293 0
0 0.0876652 0
0 0.0728819 0
0 0.0581562 0
0 0.0437339 0
0 0.0298994 0
0 0.0169867 0
0 0.00540305 0
0 0.0160283 0
0 0.0454834 0
0 0.0704849 0
0 0.0921975 0
0 0.111278 0
0 0.128118 0
0 0.142967 0
0 0.155997 0
0 0.167337 0
0 0.177091 0
0 0.185349 0
0 0.19219 0
0 0.197686 0
0 0.2019 0
0 0.204891 0
0 0.20671 0
0 0.207403 0
0 0.207008 0
0 0.20556 0
0 0.203089 0
0 0.199618 0
0 0.195171 0
0 0.189769 0
0 0.183433 0
0 0.176186 0
0 0.168054 0
0 0.159071 0
0 0.149278 0
0 0.138727 0
0 0.127482 0
0 0.115624 0
0 0.10325 0
0 0.0904786 0
0 0.0774473 0
0 0.064317 0
0 0.051273 0
0 0.0385273 0
0 0.0263238 0
0 0.0149492 0
0 0.00475398 0
0 0.0142856 0
0 0.0405428 0
0 0.0628426 0
0 0.0822274 0
0 0.0992849 0
0 0.114363 0
0 0.127682 0
0 0.139391 0
0 0.1496 0
0 0.158397 0
0 0.165857 0
0 0.172045 0
0 0.17702 0
0 0.180834 0
0 0.183537 0
0 0.185173 0
0 0.185779 0
0 0.185392 0
0 0.184041 0
0 0.181754 0
0 0.178556 0
0 0.17447 0
0 0.169518 0
0 0.163723 0
0 0.157112 0
0 0.149712 0
0 0.14156 0
0 0.132698 0
0 0.123177 0
0 0.113061 0
0 0.102425 0
0 0.09136 0
0 0.0799719 0
0 0.0683841 0
0 0.0567381 0
0 0.0451949 0
0 0.0339376 0
0 0.0231761 0
0 0.0131571 0
0 0.00418336 0
0 0.0127121 0
0 0.0360804 0
0 0.055936 0
0 0.07321 0
0 0.0884264 0
0 0.101895 0
0 0.113809 0
0 0.124299 0
0 0.13346 0
0 0.141366 0
0 0.148079 0
0 0.153652 0
0 0.158135 0
0 0.161572 0
0 0.164003 0
0 0.165466 0
0 0.165995 0
0 0.165619 0
0 0.164367 0
0 0.162264 0
0 0.159334 0
0 0.1556 0
0 0.151085 0
0 0.145813 0
0 0.139811 0
0 0.13311 0
0 0.125744 0
0 0.117757 0
0 0.109198 0
0 0.100128 0
0 0.0906177 0
0 0.0807488 0
0 0.0706172 0
0 0.0603324 0
0 0.0500183 0
0 0.0398151 0
0 0.0298811 0
0 0.0203972 0
0 0.0115762 0
0 0.00368016 0
0 0.0112913 0
0 0.0320504 0
0 0.0496959 0
0 0.0650572 0
0 0.0786009 0
0 0.0906019 0
0 0.101231 0
0 0.110602 0
0 0.118796 0
0 0.125875 0
0 0.131893 0
0 0.136893 0
0 0.140916 0
0 0.143999 0
0 0.146177 0
0 0.14748 0
0 0.147938 0
0 0.147578 0
0 0.146424 0
0 0.144501 0
0 0.141831 0
0 0.138436 0
0 0.13434 0
0 0.129567 0
0 0.124144 0
0 0.118102 0
0 0.111475 0
0 0.104304 0
0 0.0966383 0
0 0.0885331 0
0 0.0800535 0
0 0.0712744 0
0 0.0622813 0
0 0.0531708 0
0 0.0440514 0
0 0.0350451 0
0 0.0262887 0
0 0.0179385 0
0 0.0101783 0
0 0.00323535 0
0 0.0100091 0
0 0.0284125 0
0 0.0440608 0
0 0.0576909 0
0 0.0697172 0
0 0.0803833 0
0 0.0898397 0
0 0.0981855 0
0 0.105491 0
0 0.111809 0
0 0.117184 0
0 0.121653 0
0 0.125249 0
0 0.128004 0
0 0.129946 0
0 0.131102 0
0 0.131497 0
0 0.131155 0
0 0.130099 0
0 0.12835 0
0 0.125929 0
0 0.122858 0
0 0.11916 0
0 0.114859 0
0 0.10998 0
0 0.104554 0
0 0.0986155 0
0 0.0922024 0
0 0.08536 0
0 0.0781401 0
0 0.070602 0
0 0.062813 0
0 0.0548492 0
0 0.0467957 0
0 0.0387474 0
0 0.0308102 0
0 0.0231025 0
0 0.0157595 0
0 0.00894005 0
0 0.00284147 0
0 0.00885251 0
0 0.0251307 0
0 0.0389757 0
0 0.0510406 0
0 0.0616925 0
0 0.0711467 0
0 0.0795358 0
0 0.0869462 0
0 0.0934384 0
0 0.099058 0
0 0.103842 0
0 0.107821 0
0 0.111023 0
0 0.113475 0
0 0.1152 0
0 0.116222 0
0 0.116561 0
0 0.11624 0
0 0.115278 0
0 0.113695 0
0 0.111511 0
0 0.108746 0
0 0.105423 0
0 0.101564 0
0 0.097194 0
0 0.0923423 0
0 0.0870408 0
0 0.081326 0
0 0.0752397 0
0 0.068829 0
0 0.0621477 0
0 0.0552559 0
0 0.048221 0
0 0.0411178 0
0 0.0340292 0
0 0.0270469 0
0 0.0202736 0
0 0.013826 0
0 0.00784188 0
0 0.0024922 0
0 0.00781009 0
0 0.0221725 0
0 0.0343907 0
0 0.0450421 0
0 0.054451 0
0 0.0628071 0
0 0.070227 0
0 0.0767862 0
0 0.0825368 0
0 0.0875176 0
0 0.0917598 0
0 0.0952895 0
0 0.0981303 0
0 0.100304 0
0 0.101831 0
0 0.10273 0
0 0.103021 0
0 0.102721 0
0 0.10185 0
0 0.100425 0
0 0.0984638 0
0 0.0959867 0
0 0.0930135 0
0 0.0895662 0
0 0.0856687 0
0 0.0813479 0
0 0.0766337 0
0 0.07156 0
0 0.066165 0
0 0.0604915 0
0 0.0545877 0
0 0.0485071 0
0 0.0423092 0
0 0.0360594 0
0 0.02983 0
0 0.0237006 0
0 0.01776 0
0 0.0121091 0
0 0.00686699 0
0 0.00218221 0
0 0.00687129 0
0 0.019508 0
0 0.0302602 0
0 0.0396366 0
0 0.0479227 0
0 0.0552856 0
0 0.0618273 0
0 0.0676137 0
0 0.0726898 0
0 0.0770887 0
0 0.0808368 0
0 0.0839562 0
0 0.0864664 0
0 0.0883857 0
0 0.0897313 0
0 0.09052 0
0 0.0907681 0
0 0.0904916 0
0 0.0897067 0
0 0.0884299 0
0 0.086678 0
0 0.0844687 0
0 0.0818209 0
0 0.0787551 0
0 0.0752936 0
0 0.0714614 0
0 0.067286 0
0 0.0627985 0
0 0.0580335 0
0 0.0530296 0
0 0.0478296 0
0 0.0424811 0
0 0.0370361 0
0 0.031552 0
0 0.0260915 0
0 0.0207237 0
0 0.0155252 0
0 0.0105833 0
0 0.00600094 0
0 0.00190687 0
0 0.00602642 0
0 0.0171099 0
0 0.026542 0
0 0.0347693 0
0 0.0420426 0
0 0.0485084 0
0 0.0542558 0
0 0.0593421 0
0 0.0638063 0
0 0.0676766 0
0 0.0709753 0
0 0.0737209 0
0 0.0759301 0
0 0.077618 0
0 0.0787994 0
0 0.0794884 0
0 0.0796991 0
0 0.0794459 0
0 0.0787428 0
0 0.0776049 0
0 0.0760473 0
0 0.0740863 0
0 0.0717393 0
0 0.0690251 0
0 0.0659645 0
0 0.0625801 0
0 0.0588972 0
0 0.054944 0
0 0.0507514 0
0 0.0463541 0
0 0.04179 0
0 0.037101 0
0 0.0323327 0
0 0.027535 0
0 0.0227623 0
0 0.0180744 0
0 0.0135374 0
0 0.00922669 0
0 0.00523113 0
0 0.00166216 0
0 0.00526649 0
0 0.0149527 0
0 0.0231968 0
0 0.0303895 0
0 0.0367501 0
0 0.0424065 0
0 0.0474365 0
0 0.0518898 0
0 0.0557998 0
0 0.0591909 0
0 0.0620818 0
0 0.0644882 0
0 0.0664239 0
0 0.0679019 0
0 0.0689346 0
0 0.069534 0
0 0.0697125 0
0 0.0694823 0
0 0.0688563 0
0 0.0678475 0
0 0.0664698 0
0 0.064738 0
0 0.0626679 0
0 0.0602766 0
0 0.057583 0
0 0.0546077 0
0 0.0513736 0
0 0.0479059 0
0 0.0442324 0
0 0.0403836 0
0 0.0363931 0
0 0.0322976 0
0 0.0281368 0
0 0.0239541 0
0 0.0197965 0
0 0.0157156 0
0 0.0117685 0
0 0.00801983 0
0 0.00454645 0
0 0.00144453 0
0 0.00458313 0
0 0.0130128 0
0 0.0201882 0
0 0.0264496 0
0 0.0319881 0
0 0.0369149 0
0 0.0412975 0
0 0.0451789 0
0 0.048588 0
0 0.0515454 0
0 0.054067 0
0 0.056166 0
0 0.057854 0
0 0.059142 0
0 0.0600404 0
0 0.0605595 0
0 0.0607101 0
0 0.0605027 0
0 0.0599486 0
0 0.0590595 0
0 0.0578478 0
0 0.0563267 0
0 0.0545105 0
0 0.0524148 0
0 0.0500564 0
0 0.0474539 0
0 0.0446279 0
0 0.0416006 0
0 0.0383968 0
0 0.0350434 0
0 0.0315698 0
0 0.0280078 0
0 0.0243922 0
0 0.0207604 0
0 0.017153 0
0 0.0136142 0
0 0.0101931 0
0 0.00694537 0
0 0.003937 0
0 0.00125084 0
0 0.00396849 0
0 0.0112679 0
0 0.0174817 0
0 0.0229049 0
0 0.0277029 0
0 0.0319721 0
0 0.0357708 0
0 0.039136 0
0 0.0420924 0
0 0.0446577 0
0 0.0468451 0
0 0.048666 0
0 0.0501299 0
0 0.0512462 0
0 0.0520235 0
0 0.0524709 0
0 0.0525972 0
0 0.052412 0
0 0.0519249 0
0 0.0511464 0
0 0.0500873 0
0 0.0487595 0
0 0.0471758 0
0 0.0453499 0
0 0.0432971 0
0 0.0410338 0
0 0.0385781 0
0 0.0359499 0
0 0.0331708 0
0 0.0302644 0
0 0.0272563 0
0 0.0241742 0
0 0.0210479 0
0 0.0179096 0
0 0.0147944 0
0 0.0117401 0
0 0.00878862 0
0 0.00598774 0
0 0.00339391 0
0 0.00107825 0
0 0.00341519 0
0 0.00969699 0
0 0.015045 0
0 0.0197132 0
0 0.0238439 0
0 0.02752 0
0 0.0307918 0
0 0.0336909 0
0 0.0362383 0
0 0.038449 0
0 0.0403343 0
0 0.0419035 0
0 0.0431648 0
0 0.0441259 0
0 0.0447942 0
0 0.0451772 0
0 0.0452828 0
0 0.0451189 0
0 0.0446942 0
0 0.0440175 0
0 0.0430985 0
0 0.0419478 0
0 0.0405765 0
0 0.0389968 0
0 0.0372222 0
0 0.0352671 0
0 0.0331476 0
0 0.0308808 0
0 0.0284858 0
0 0.0259828 0
0 0.0233941 0
0 0.0207435 0
0 0.0180567 0
0 0.0153613 0
0 0.0126869 0
0 0.0100661 0
0 0.00753453 0
0 0.00513282 0
0 0.00290916 0
0 0.000924216 0
0 0.00291622 0
0 0.00828035 0
0 0.0128474 0
0 0.0168343 0
0 0.0203626 0
0 0.0235032 0
0 0.0262989 0
0 0.0287766 0
0 0.030954 0
0 0.0328439 0
0 0.0344557 0
0 0.0357971 0
0 0.036875 0
0 0.0376959 0
0 0.0382658 0
0 0.0385914 0
0 0.038679 0
0 0.0385356 0
0 0.0381686 0
0 0.0375857 0
0 0.0367954 0
0 0.0358067 0
0 0.0346295 0
0 0.0332745 0
0 0.0317533 0
0 0.0300785 0
0 0.0282641 0
0 0.026325 0
0 0.0242774 0
0 0.022139 0
0 0.0199287 0
0 0.0176669 0
0 0.0153755 0
0 0.0130779 0
0 0.0107994 0
0 0.00856733 0
0 0.00641198 0
0 0.00436774 0
0 0.00247539 0
0 0.00078639 0
0 0.00246496 0
0 0.00699911 0
0 0.0108597 0
0 0.0142302 0
0 0.0172133 0
0 0.0198691 0
0 0.0222334 0
0 0.0243292 0
0 0.0261712 0
0 0.0277701 0
0 0.0291337 0
0 0.0302685 0
0 0.0311802 0
0 0.031874 0
0 0.0323552 0
0 0.0326291 0
0 0.0327012 0
0 0.0325774 0
0 0.0322639 0
0 0.0317675 0
0 0.0310953 0
0 0.0302552 0
0 0.0292556 0
0 0.0281058 0
0 0.0268157 0
0 0.0253963 0
0 0.0238594 0
0 0.0222178 0
0 0.0204855 0
0 0.0186773 0
0 0.0168093 0
0 0.0148988 0
0 0.0129642 0
0 0.0110252 0
0 0.00910304 0
0 0.00722074 0
0 0.00540365 0
0 0.00368062 0
0 0.00208587 0
0 0.00066263 0
0 0.00205508 0
0 0.00583532 0
0 0.00905413 0
0 0.0118645 0
0 0.0143522 0
0 0.016567 0
0 0.0185391 0
0 0.0202873 0
0 0.0218241 0
0 0.0231581 0
0 0.0242958 0
0 0.0252425 0
0 0.0260029 0
0 0.0265812 0
0 0.0269819 0
0 0.0272092 0
0 0.0272679 0
0 0.0271628 0
0 0.0268991 0
0 0.0264825 0
0 0.0259191 0
0 0.0252155 0
0 0.0243789 0
0 0.0234171 0
0 0.0223386 0
0 0.0211525 0
0 0.0198689 0
0 0.0184986 0
0 0.0170532 0
0 0.0155453 0
0 0.0139882 0
0 0.0123964 0
0 0.0107851 0
0 0.00917081 0
0 0.00757107 0
0 0.00600495 0
0 0.00449345 0
0 0.00306047 0
0 0.00173435 0
0 0.00055095 0
0 0.00168051 0
0 0.00477178 0
0 0.00740404 0
0 0.0097024 0
0 0.011737 0
0 0.0135487 0
0 0.0151619 0
0 0.0165921 0
0 0.0178495 0
0 0.0189409 0
0 0.0198718 0
0 0.0206463 0
0 0.0212682 0
0 0.0217411 0
0 0.0220683 0
0 0.0222535 0
0 0.0223004 0
0 0.0222131 0
0 0.0219959 0
0 0.0216533 0
0 0.0211905 0
0 0.020613 0
0 0.0199267 0
0 0.019138 0
0 0.018254 0
0 0.0172823 0
0 0.0162311 0
0 0.0151094 0
0 0.0139268 0
0 0.0126934 0
0 0.0114204 0
0 0.0101194 0
0 0.00880305 0
0 0.0074846 0
0 0.00617839 0
0 0.00489995 0
0 0.00366635 0
0 0.002497 0
0 0.00141499 0
0 0.000449492 0
0 0.00133544 0
0 0.00379198 0
0 0.00588381 0
0 0.00771037 0
0 0.00932743 0
0 0.0107674 0
0 0.0120497 0
0 0.0131867 0
0 0.0141862 0
0 0.0150539 0
0 0.015794 0
0 0.0164097 0
0 0.016904 0
0 0.0172796 0
0 0.0175394 0
0 0.017686 0
0 0.0177226 0
0 0.0176523 0
0 0.0174786 0
0 0.0172052 0
0 0.016836 0
0 0.0163757 0
0 0.0158288 0
0 0.0152007 0
0 0.0144969 0
0 0.0137235 0
0 0.0128873 0
0 0.0119952 0
0 0.0110549 0
0 0.0100747 0
0 0.00906327 0
0 0.00802994 0
0 0.00698466 0
0 0.00593801 0
0 0.00490132 0
0 0.00388687 0
0 0.00290816 0
0 0.00198055 0
0 0.0011223 0
0 0.000356509 0
0 0.00101423 0
0 0.00287992 0
0 0.00446866 0
0 0.00585597 0
0 0.00708421 0
0 0.00817799 0
0 0.0091521 0
0 0.0100158 0
0 0.0107752 0
0 0.0114344 0
0 0.0119966 0
0 0.0124643 0
0 0.0128398 0
0 0.013125 0
0 0.0133221 0
0 0.0134331 0
0 0.0134605 0
0 0.0134066 0
0 0.013274 0
0 0.0130655 0
0 0.0127844 0
0 0.0124339 0
0 0.0120177 0
0 0.0115398 0
0 0.0110045 0
0 0.0104165 0
0 0.00978078 0
0 0.00910285 0
0 0.0083885 0
0 0.00764398 0
0 0.00687595 0
0 0.00609148 0
0 0.00529811 0
0 0.00450387 0
0 0.00371733 0
0 0.00294777 0
0 0.00220543 0
0 0.00150192 0
0 0.000851061 0
0 0.000270345 0
0 0.00071142 0
0 0.00202009 0
0 0.00313451 0
0 0.00410766 0
0 0.00496926 0