# vtk DataFile Version 2.0
Presion
ASCII

DATASET STRUCTURED_GRID
DIMENSIONS   40   40   20

POINTS   32000   double
0.0125   0.0125   0.025
0.0375   0.0125   0.025
0.0625   0.0125   0.025
0.0875   0.0125   0.025
0.1125   0.0125   0.025
0.1375   0.0125   0.025
0.1625   0.0125   0.025
0.1875   0.0125   0.025
0.2125   0.0125   0.025
0.2375   0.0125   0.025
0.2625   0.0125   0.025
0.2875   0.0125   0.025
0.3125   0.0125   0.025
0.3375   0.0125   0.025
0.3625   0.0125   0.025
0.3875   0.0125   0.025
0.4125   0.0125   0.025
0.4375   0.0125   0.025
0.4625   0.0125   0.025
0.4875   0.0125   0.025
0.5125   0.0125   0.025
0.5375   0.0125   0.025
0.5625   0.0125   0.025
0.5875   0.0125   0.025
0.6125   0.0125   0.025
0.6375   0.0125   0.025
0.6625   0.0125   0.025
0.6875   0.0125   0.025
0.7125   0.0125   0.025
0.7375   0.0125   0.025
0.7625   0.0125   0.025
0.7875   0.0125   0.025
0.8125   0.0125   0.025
0.8375   0.0125   0.025
0.8625   0.0125   0.025
0.8875   0.0125   0.025
0.9125   0.0125   0.025
0.9375   0.0125   0.025
0.9625   0.0125   0.025
0.9875   0.0125   0.025
0.0125   0.0375   0.025
0.0375   0.0375   0.025
0.0625   0.0375   0.025
0.0875   0.0375   0.025
0.1125   0.0375   0.025
0.1375   0.0375   0.025
0.1625   0.0375   0.025
0.1875   0.0375   0.025
0.2125   0.0375   0.025
0.2375   0.0375   0.025
0.2625   0.0375   0.025
0.2875   0.0375   0.025
0.3125   0.0375   0.025
0.3375   0.0375   0.025
0.3625   0.0375   0.025
0.3875   0.0375   0.025
0.4125   0.0375   0.025
0.4375   0.0375   0.025
0.4625   0.0375   0.025
0.4875   0.0375   0.025
0.5125   0.0375   0.025
0.5375   0.0375   0.025
0.5625   0.0375   0.025
0.5875   0.0375   0.025
0.6125   0.0375   0.025
0.6375   0.0375   0.025
0.6625   0.0375   0.025
0.6875   0.0375   0.025
0.7125   0.0375   0.025
0.7375   0.0375   0.025
0.7625   0.0375   0.025
0.7875   0.0375   0.025
0.8125   0.0375   0.025
0.8375   0.0375   0.025
0.8625   0.0375   0.025
0.8875   0.0375   0.025
0.9125   0.0375   0.025
0.9375   0.0375   0.025
0.9625   0.0375   0.025
0.9875   0.0375   0.025
0.0125   0.0625   0.025
0.0375   0.0625   0.025
0.0625   0.0625   0.025
0.0875   0.0625   0.025
0.1125   0.0625   0.025
0.1375   0.0625   0.025
0.1625   0.0625   0.025
0.1875   0.0625   0.025
0.2125   0.0625   0.025
0.2375   0.0625   0.025
0.2625   0.0625   0.025
0.2875   0.0625   0.025
0.3125   0.0625   0.025
0.3375   0.0625   0.025
0.3625   0.0625   0.025
0.3875   0.0625   0.025
0.4125   0.0625   0.025
0.4375   0.0625   0.025
0.4625   0.0625   0.025
0.4875   0.0625   0.025
0.5125   0.0625   0.025
0.5375   0.0625   0.025
0.5625   0.0625   0.025
0.5875   0.0625   0.025
0.6125   0.0625   0.025
0.6375   0.0625   0.025
0.6625   0.0625   0.025
0.6875   0.0625   0.025
0.7125   0.0625   0.025
0.7375   0.0625   0.025
0.7625   0.0625   0.025
0.7875   0.0625   0.025
0.8125   0.0625   0.025
0.8375   0.0625   0.025
0.8625   0.0625   0.025
0.8875   0.0625   0.025
0.9125   0.0625   0.025
0.9375   0.0625   0.025
0.9625   0.0625   0.025
0.9875   0.0625   0.025
0.0125   0.0875   0.025
0.0375   0.0875   0.025
0.0625   0.0875   0.025
0.0875   0.0875   0.025
0.1125   0.0875   0.025
0.1375   0.0875   0.025
0.1625   0.0875   0.025
0.1875   0.0875   0.025
0.2125   0.0875   0.025
0.2375   0.0875   0.025
0.2625   0.0875   0.025
0.2875   0.0875   0.025
0.3125   0.0875   0.025
0.3375   0.0875   0.025
0.3625   0.0875   0.025
0.3875   0.0875   0.025
0.4125   0.0875   0.025
0.4375   0.0875   0.025
0.4625   0.0875   0.025
0.4875   0.0875   0.025
0.5125   0.0875   0.025
0.5375   0.0875   0.025
0.5625   0.0875   0.025
0.5875   0.0875   0.025
0.6125   0.0875   0.025
0.6375   0.0875   0.025
0.6625   0.0875   0.025
0.6875   0.0875   0.025
0.7125   0.0875   0.025
0.7375   0.0875   0.025
0.7625   0.0875   0.025
0.7875   0.0875   0.025
0.8125   0.0875   0.025
0.8375   0.0875   0.025
0.8625   0.0875   0.025
0.8875   0.0875   0.025
0.9125   0.0875   0.025
0.9375   0.0875   0.025
0.9625   0.0875   0.025
0.9875   0.0875   0.025
0.0125   0.1125   0.025
0.0375   0.1125   0.025
0.0625   0.1125   0.025
0.0875   0.1125   0.025
0.1125   0.1125   0.025
0.1375   0.1125   0.025
0.1625   0.1125   0.025
0.1875   0.1125   0.025
0.2125   0.1125   0.025
0.2375   0.1125   0.025
0.2625   0.1125   0.025
0.2875   0.1125   0.025
0.3125   0.1125   0.025
0.3375   0.1125   0.025
0.3625   0.1125   0.025
0.3875   0.1125   0.025
0.4125   0.1125   0.025
0.4375   0.1125   0.025
0.4625   0.1125   0.025
0.4875   0.1125   0.025
0.5125   0.1125   0.025
0.5375   0.1125   0.025
0.5625   0.1125   0.025
0.5875   0.1125   0.025
0.6125   0.1125   0.025
0.6375   0.1125   0.025
0.6625   0.1125   0.025
0.6875   0.1125   0.025
0.7125   0.1125   0.025
0.7375   0.1125   0.025
0.7625   0.1125   0.025
0.7875   0.1125   0.025
0.8125   0.1125   0.025
0.8375   0.1125   0.025
0.8625   0.1125   0.025
0.8875   0.1125   0.025
0.9125   0.1125   0.025
0.9375   0.1125   0.025
0.9625   0.1125   0.025
0.9875   0.1125   0.025
0.0125   0.1375   0.025
0.0375   0.1375   0.025
0.0625   0.1375   0.025
0.0875   0.1375   0.025
0.1125   0.1375   0.025
0.1375   0.1375   0.025
0.1625   0.1375   0.025
0.1875   0.1375   0.025
0.2125   0.1375   0.025
0.2375   0.1375   0.025
0.2625   0.1375   0.025
0.2875   0.1375   0.025
0.3125   0.1375   0.025
0.3375   0.1375   0.025
0.3625   0.1375   0.025
0.3875   0.1375   0.025
0.4125   0.1375   0.025
0.4375   0.1375   0.025
0.4625   0.1375   0.025
0.4875   0.1375   0.025
0.5125   0.1375   0.025
0.5375   0.1375   0.025
0.5625   0.1375   0.025
0.5875   0.1375   0.025
0.6125   0.1375   0.025
0.6375   0.1375   0.025
0.6625   0.1375   0.025
0.6875   0.1375   0.025
0.7125   0.1375   0.025
0.7375   0.1375   0.025
0.7625   0.1375   0.025
0.7875   0.1375   0.025
0.8125   0.1375   0.025
0.8375   0.1375   0.025
0.8625   0.1375   0.025
0.8875   0.1375   0.025
0.9125   0.1375   0.025
0.9375   0.1375   0.025
0.9625   0.1375   0.025
0.9875   0.1375   0.025
0.0125   0.1625   0.025
0.0375   0.1625   0.025
0.0625   0.1625   0.025
0.0875   0.1625   0.025
0.1125   0.1625   0.025
0.1375   0.1625   0.025
0.1625   0.1625   0.025
0.1875   0.1625   0.025
0.2125   0.1625   0.025
0.2375   0.1625   0.025
0.2625   0.1625   0.025
0.2875   0.1625   0.025
0.3125   0.1625   0.025
0.3375   0.1625   0.025
0.3625   0.1625   0.025
0.3875   0.1625   0.025
0.4125   0.1625   0.025
0.4375   0.1625   0.025
0.4625   0.1625   0.025
0.4875   0.1625   0.025
0.5125   0.1625   0.025
0.5375   0.1625   0.025
0.5625   0.1625   0.025
0.5875   0.1625   0.025
0.6125   0.1625   0.025
0.6375   0.1625   0.025
0.6625   0.1625   0.025
0.6875   0.1625   0.025
0.7125   0.1625   0.025
0.7375   0.1625   0.025
0.7625   0.1625   0.025
0.7875   0.1625   0.025
0.8125   0.1625   0.025
0.8375   0.1625   0.025
0.8625   0.1625   0.025
0.8875   0.1625   0.025
0.9125   0.1625   0.025
0.9375   0.1625   0.025
0.9625   0.1625   0.025
0.9875   0.1625   0.025
0.0125   0.1875   0.025
0.0375   0.1875   0.025
0.0625   0.1875   0.025
0.0875   0.1875   0.025
0.1125   0.1875   0.025
0.1375   0.1875   0.025
0.1625   0.1875   0.025
0.1875   0.1875   0.025
0.2125   0.1875   0.025
0.2375   0.1875   0.025
0.2625   0.1875   0.025
0.2875   0.1875   0.025
0.3125   0.1875   0.025
0.3375   0.1875   0.025
0.3625   0.1875   0.025
0.3875   0.1875   0.025
0.4125   0.1875   0.025
0.4375   0.1875   0.025
0.4625   0.1875   0.025
0.4875   0.1875   0.025
0.5125   0.1875   0.025
0.5375   0.1875   0.025
0.5625   0.1875   0.025
0.5875   0.1875   0.025
0.6125   0.1875   0.025
0.6375   0.1875   0.025
0.6625   0.1875   0.025
0.6875   0.1875   0.025
0.7125   0.1875   0.025
0.7375   0.1875   0.025
0.7625   0.1875   0.025
0.7875   0.1875   0.025
0.8125   0.1875   0.025
0.8375   0.1875   0.025
0.8625   0.1875   0.025
0.8875   0.1875   0.025
0.9125   0.1875   0.025
0.9375   0.1875   0.025
0.9625   0.1875   0.025
0.9875   0.1875   0.025
0.0125   0.2125   0.025
0.0375   0.2125   0.025
0.0625   0.2125   0.025
0.0875   0.2125   0.025
0.1125   0.2125   0.025
0.1375   0.2125   0.025
0.1625   0.2125   0.025
0.1875   0.2125   0.025
0.2125   0.2125   0.025
0.2375   0.2125   0.025
0.2625   0.2125   0.025
0.2875   0.2125   0.025
0.3125   0.2125   0.025
0.3375   0.2125   0.025
0.3625   0.2125   0.025
0.3875   0.2125   0.025
0.4125   0.2125   0.025
0.4375   0.2125   0.025
0.4625   0.2125   0.025
0.4875   0.2125   0.025
0.5125   0.2125   0.025
0.5375   0.2125   0.025
0.5625   0.2125   0.025
0.5875   0.2125   0.025
0.6125   0.2125   0.025
0.6375   0.2125   0.025
0.6625   0.2125   0.025
0.6875   0.2125   0.025
0.7125   0.2125   0.025
0.7375   0.2125   0.025
0.7625   0.2125   0.025
0.7875   0.2125   0.025
0.8125   0.2125   0.025
0.8375   0.2125   0.025
0.8625   0.2125   0.025
0.8875   0.2125   0.025
0.9125   0.2125   0.025
0.9375   0.2125   0.025
0.9625   0.2125   0.025
0.9875   0.2125   0.025
0.0125   0.2375   0.025
0.0375   0.2375   0.025
0.0625   0.2375   0.025
0.0875   0.2375   0.025
0.1125   0.2375   0.025
0.1375   0.2375   0.025
0.1625   0.2375   0.025
0.1875   0.2375   0.025
0.2125   0.2375   0.025
0.2375   0.2375   0.025
0.2625   0.2375   0.025
0.2875   0.2375   0.025
0.3125   0.2375   0.025
0.3375   0.2375   0.025
0.3625   0.2375   0.025
0.3875   0.2375   0.025
0.4125   0.2375   0.025
0.4375   0.2375   0.025
0.4625   0.2375   0.025
0.4875   0.2375   0.025
0.5125   0.2375   0.025
0.5375   0.2375   0.025
0.5625   0.2375   0.025
0.5875   0.2375   0.025
0.6125   0.2375   0.025
0.6375   0.2375   0.025
0.6625   0.2375   0.025
0.6875   0.2375   0.025
0.7125   0.2375   0.025
0.7375   0.2375   0.025
0.7625   0.2375   0.025
0.7875   0.2375   0.025
0.8125   0.2375   0.025
0.8375   0.2375   0.025
0.8625   0.2375   0.025
0.8875   0.2375   0.025
0.9125   0.2375   0.025
0.9375   0.2375   0.025
0.9625   0.2375   0.025
0.9875   0.2375   0.025
0.0125   0.2625   0.025
0.0375   0.2625   0.025
0.0625   0.2625   0.025
0.0875   0.2625   0.025
0.1125   0.2625   0.025
0.1375   0.2625   0.025
0.1625   0.2625   0.025
0.1875   0.2625   0.025
0.2125   0.2625   0.025
0.2375   0.2625   0.025
0.2625   0.2625   0.025
[...]
POINT_DATA   32000
SCALARS Presion double
LOOKUP_TABLE   Presion

0 0 0 0 0 0 0 0 0 0 0 0 0 0 0 0 0 0 0 0 0 0 0 0 0 0 0 0 0 0 0 0 0 0 0 0 0 0 0 0 -5.15096e-06 -5.10759e-06 -5.02803e-06 -4.91615e-06 -4.77443e-06 -4.60476e-06 -4.40869e-06 -4.18758e-06 -3.94261e-06 -3.67477e-06 -3.38484e-06 -3.07344e-06 -2.74076e-06 -2.38682e-06 -2.01142e-06 -1.61412e-06 -1.19433e-06 -7.51351e-07 -2.84494e-07 2.06853e-07 7.23094e-07 1.26427e-06 1.82999e-06 2.41923e-06 3.03014e-06 3.65994e-06 4.30477e-06 4.95954e-06 5.61792e-06 6.27226e-06 6.91368e-06 7.53236e-06 8.1175e-06 8.65799e-06 9.1428e-06 9.56153e-06 9.90506e-06 1.01662e-05 1.03402e-05 1.04258e-05 -1.02925e-05 -1.02067e-05 -1.00483e-05 -9.82494e-06 -9.54161e-06 -9.20215e-06 -8.8098e-06 -8.36737e-06 -7.87731e-06 -7.3417e-06 -6.76213e-06 -6.13991e-06 -5.47546e-06 -4.76884e-06 -4.01962e-06 -3.22691e-06 -2.3895e-06 -1.50596e-06 -5.74821e-07 4.05207e-07 1.43502e-06 2.5148e-06 3.6439e-06 4.82036e-06 6.04063e-06 7.29929e-06 8.58871e-06 9.89886e-06 1.12171e-05 1.25282e-05 1.38144e-05 1.50559e-05 1.62311e-05 1.73174e-05 1.82925e-05 1.91354e-05 1.98275e-05 2.03541e-05 2.07055e-05 2.08788e-05 -1.54343e-05 -1.53061e-05 -1.50687e-05 -1.47333e-05 -1.43074e-05 -1.37971e-05 -1.32073e-05 -1.25425e-05 -1.18066e-05 -1.10028e-05 -1.01337e-05 -9.20139e-06 -8.20651e-06 -7.14921e-06 -6.02881e-06 -4.84394e-06 -3.59265e-06 -2.27268e-06 -8.81654e-07 5.82568e-07 2.12157e-06 3.73589e-06 5.42484e-06 7.18579e-06 9.01376e-06 1.09009e-05 1.28362e-05 1.48046e-05 1.67876e-05 1.87622e-05 2.07017e-05 2.25762e-05 2.43527e-05 2.59969e-05 2.74746e-05 2.87533e-05 2.98043e-05 3.06047e-05 3.11394e-05 3.14034e-05 -2.05856e-05 -2.04145e-05 -2.00971e-05 -1.9648e-05 -1.90777e-05 -1.83943e-05 -1.76049e-05 -1.67158e-05 -1.57324e-05 -1.46594e-05 -1.35006e-05 -1.22589e-05 -1.09353e-05 -9.53007e-06 -8.04222e-06 -6.46979e-06 -4.81e-06 -3.05955e-06 -1.21496e-06 7.27019e-07 2.76895e-06 4.91204e-06 7.15595e-06 9.49775e-06 1.19314e-05 1.44471e-05 1.70305e-05 1.96624e-05 2.2318e-05 2.49671e-05 2.75736e-05 3.00973e-05 3.24932e-05 3.47143e-05 3.67136e-05 3.84461e-05 3.98719e-05 4.0959e-05 4.16859e-05 4.20451e-05 -2.57559e-05 -2.5541e-05 -2.51416e-05 -2.45764e-05 -2.38584e-05 -2.29984e-05 -2.20058e-05 -2.0889e-05 -1.96555e-05 -1.83116e-05 -1.68625e-05 -1.5312e-05 -1.36618e-05 -1.19121e-05 -1.00616e-05 -8.10764e-06 -6.04646e-06 -3.87345e-06 -1.58372e-06 8.27424e-07 3.36391e-06 6.02807e-06 8.82035e-06 1.17381e-05 1.47747e-05 1.79189e-05 2.11538e-05 2.4456e-05 2.77952e-05 3.11335e-05 3.44259e-05 3.76209e-05 4.0661e-05 4.34855e-05 4.60329e-05 4.82444e-05 5.00671e-05 5.14585e-05 5.23899e-05 5.28503e-05 -3.09552e-05 -3.0695e-05 -3.02109e-05 -2.95255e-05 -2.86552e-05 -2.76134e-05 -2.64124e-05 -2.50631e-05 -2.35755e-05 -2.19579e-05 -2.02171e-05 -1.83583e-05 -1.63837e-05 -1.42937e-05 -1.20866e-05 -9.75881e-06 -7.30525e-06 -4.71975e-06 -1.99565e-06 8.73634e-07 3.89387e-06 7.06906e-06 1.04011e-05 1.3888e-05 1.75237e-05 2.12959e-05 2.51859e-05 2.91667e-05 3.32029e-05 3.72492e-05 4.12513e-05 4.51461e-05 4.88624e-05 5.23244e-05 5.54545e-05 5.81777e-05 6.04264e-05 6.21455e-05 6.32974e-05 6.38672e-05 -3.61942e-05 -3.58866e-05 -3.5314e-05 -3.45031e-05 -3.34738e-05 -3.2243e-05 -3.08263e-05 -2.92376e-05 -2.749e-05 -2.55944e-05 -2.35598e-05 -2.13928e-05 -1.90963e-05 -1.6671e-05 -1.41145e-05 -1.14222e-05 -8.58741e-06 -5.60194e-06 -2.45689e-06 8.56707e-07 4.34705e-06 8.02045e-06 1.18809e-05 1.59282e-05 2.01572e-05 2.45558e-05 2.91042e-05 3.37728e-05 3.85215e-05 4.32981e-05 4.80387e-05 5.26681e-05 5.71003e-05 6.12425e-05 6.49987e-05 6.82753e-05 7.09869e-05 7.30635e-05 7.44565e-05 7.5146e-05 -4.14852e-05 -4.11275e-05 -4.0461e-05 -3.95171e-05 -3.83199e-05 -3.68903e-05 -3.52477e-05 -3.34103e-05 -3.13946e-05 -2.92149e-05 -2.68829e-05 -2.4407e-05 -2.17913e-05 -1.90364e-05 -1.61393e-05 -1.30939e-05 -9.89136e-06 -6.52121e-06 -2.97169e-06 7.69157e-07 4.71261e-06 8.86805e-06 1.32424e-05 1.78382e-05 2.26522e-05 2.76737e-05 3.28829e-05 3.82486e-05 4.37268e-05 4.92591e-05 5.47719e-05 6.01775e-05 6.53734e-05 7.02479e-05 7.46838e-05 7.85654e-05 8.17862e-05 8.42576e-05 8.59178e-05 8.67399e-05 -4.68423e-05 -4.64307e-05 -4.56633e-05 -4.45766e-05 -4.31996e-05 -4.15578e-05 -3.96757e-05 -3.75765e-05 -3.52815e-05 -3.28092e-05 -3.01745e-05 -2.73886e-05 -2.44563e-05 -2.13785e-05 -1.81511e-05 -1.47662e-05 -1.12124e-05 -7.47607e-06 -3.54207e-06 6.0523e-07 4.98091e-06 9.59823e-06 1.4468e-05 1.95965e-05 2.49837e-05 3.06217e-05 3.6492e-05 4.25633e-05 4.8789e-05 5.51051e-05 6.14288e-05 6.7659e-05 7.36755e-05 7.93451e-05 8.45257e-05 8.90756e-05 9.28625e-05 9.57753e-05 9.77351e-05 9.87063e-05 -5.2282e-05 -5.18117e-05 -5.09342e-05 -4.96917e-05 -4.81189e-05 -4.62473e-05 -4.41075e-05 -4.17292e-05 -3.91396e-05 -3.63628e-05 -3.34181e-05 -3.03196e-05 -2.70735e-05 -2.36806e-05 -2.01355e-05 -1.64275e-05 -1.25421e-05 -8.46185e-06 -4.1674e-06 3.61233e-07 5.14371e-06 1.0198e-05 1.55399e-05 2.11805e-05 2.71246e-05 3.33685e-05 3.9897e-05 4.66805e-05 5.36714e-05 6.08015e-05 6.79793e-05 7.50899e-05 8.19938e-05 8.85332e-05 9.45372e-05 9.98326e-05 0.000104256 0.000107667 0.000109967 0.000111108 -5.78245e-05 -5.72892e-05 -5.62894e-05 -5.48743e-05 -5.30848e-05 -5.09599e-05 -4.85383e-05 -4.58575e-05 -4.29529e-05 -3.98556e-05 -3.65905e-05 -3.31756e-05 -2.96188e-05 -2.59202e-05 -2.20724e-05 -1.80612e-05 -1.38679e-05 -9.47026e-06 -4.84404e-06 3.59019e-08 5.19456e-06 1.06555e-05 1.64404e-05 2.25665e-05 2.90452e-05 3.58788e-05 4.30578e-05 5.05565e-05 5.83289e-05 6.63043e-05 7.43838e-05 8.24383e-05 9.03076e-05 9.78055e-05 0.000104727 0.000110862 0.000116007 0.000119988 0.000122678 0.000124013 -6.34945e-05 -6.2886e-05 -6.17485e-05 -6.01386e-05 -5.81052e-05 -5.56965e-05 -5.29609e-05 -4.99466e-05 -4.66994e-05 -4.32599e-05 -3.96605e-05 -3.59239e-05 -3.20597e-05 -2.80672e-05 -2.39352e-05 -1.96451e-05 -1.51723e-05 -1.0489e-05 -5.56492e-06 -3.69181e-07 5.12918e-06 1.09601e-05 1.7152e-05 2.37299e-05 3.07132e-05 3.81129e-05 4.59277e-05 5.41391e-05 6.27059e-05 7.15579e-05 8.05904e-05 8.96608e-05 9.85859e-05 0.000107148 0.000115101 0.000122188 0.00012816 0.000132798 0.000135939 0.0001375 -6.93226e-05 -6.86307e-05 -6.73356e-05 -6.55025e-05 -6.319e-05 -6.04573e-05 -5.73654e-05 -5.39763e-05 -5.03497e-05 -4.65389e-05 -4.25864e-05 -3.8521e-05 -3.43542e-05 -3.00826e-05 -2.569e-05 -2.11507e-05 -1.64329e-05 -1.15013e-05 -6.31914e-06 -8.49118e-07 4.9461e-06 1.11032e-05 1.76585e-05 2.46456e-05 3.20942e-05 4.00263e-05 4.84526e-05 5.73659e-05 6.67341e-05 7.6492e-05 8.65321e-05 9.66992e-05 0.000106785 0.000116535 0.000125656 0.000133834 0.000140762 0.000146164 0.000149832 0.000151658 -7.53476e-05 -7.45592e-05 -7.30813e-05 -7.09889e-05 -6.83518e-05 -6.52428e-05 -6.1739e-05 -5.79201e-05 -5.38645e-05 -4.96432e-05 -4.53126e-05 -4.09098e-05 -3.64473e-05 -3.19171e-05 -2.72944e-05 -2.25431e-05 -1.76216e-05 -1.24859e-05 -7.09173e-06 -1.39517e-06 4.64735e-06 1.10794e-05 1.79454e-05 2.5289e-05 3.31518e-05 4.15701e-05 5.05703e-05 6.01621e-05 7.03292e-05 8.10174e-05 9.21218e-05 0.000103476 0.000114846 0.000125933 0.000136386 0.000145823 0.000153863 0.000160161 0.000164452 0.000166591 -8.16182e-05 -8.07171e-05 -7.90249e-05 -7.66274e-05 -7.36078e-05 -7.00549e-05 -6.60657e-05 -6.17433e-05 -5.71917e-05 -5.25067e-05 -4.77651e-05 -4.30149e-05 -3.82686e-05 -3.35088e-05 -2.86964e-05 -2.37804e-05 -1.87055e-05 -1.34173e-05 -7.86346e-06 -1.9942e-06 4.23949e-06 1.08873e-05 1.80017e-05 2.56372e-05 3.3849e-05 4.26908e-05 5.22096e-05 6.24388e-05 7.33868e-05 8.50204e-05 9.72459e-05 0.00010989 0.000122689 0.000135291 0.000147275 0.000158176 0.000167521 0.000174878 0.000179908 0.00018242 -8.81956e-05 -8.7162e-05 -8.52167e-05 -8.24575e-05 -7.89821e-05 -7.48982e-05 -7.03271e-05 -6.54021e-05 -6.02624e-05 -5.50403e-05 -4.98435e-05 -4.47362e-05 -3.97274e-05 -3.47815e-05 -2.98353e-05 -2.48151e-05 -1.96477e-05 -1.42663e-05 -8.61104e-06 -2.62798e-06 3.73499e-06 1.05318e-05 1.78223e-05 2.56718e-05 3.41508e-05 4.33328e-05 5.32907e-05 6.40902e-05 7.57767e-05 8.83542e-05 0.000101755 0.000115806 0.000130208 0.000144543 0.000158302 0.000170916 0.000181802 0.000190418 0.000196331 0.000199289 -9.51569e-05 -9.39671e-05 -9.17219e-05 -8.85316e-05 -8.45093e-05 -7.97835e-05 -7.45039e-05 -6.88421e-05 -6.29857e-05 -5.71223e-05 -5.14099e-05 -4.59394e-05 -4.07078e-05 -3.56434e-05 -3.06421e-05 -2.55965e-05 -2.04098e-05 -1.50019e-05 -9.30758e-06 -3.2724e-06 3.15418e-06 1.00267e-05 1.74106e-05 2.53821e-05 3.40274e-05 4.34414e-05 5.37272e-05 6.49922e-05 7.73362e-05 9.08257e-05 0.000105446 0.00012104 0.000137263 0.000153604 0.000169439 0.000184072 0.000196785 0.000206903 0.000213875 0.000217372 -0.000102598 -0.000101224 -9.8624e-05 -9.49199e-05 -9.024e-05 -8.47335e-05 -7.85809e-05 -7.19995e-05 -6.52424e-05 -5.85827e-05 -5.22682e-05 -4.64406e-05 -4.10622e-05 -3.59879e-05 -3.10446e-05 -2.60759e-05 -2.09567e-05 -1.55946e-05 -9.92363e-06 -3.89618e-06 2.52833e-06 9.39813e-06 1.67829e-05 2.477e-05 3.34604e-05 4.29696e-05 5.34318e-05 6.50037e-05 7.78616e-05 9.2175e-05 0.000108038 0.000125345 0.000143674 0.000162372 0.000180658 0.000197682 0.000212568 0.000224482 0.000232727 0.000236872 -0.000110636 -0.000109047 -0.000106029 -0.000101716 -9.6248e-05 -8.97918e-05 -8.25562e-05 -7.48068e-05 -6.68796e-05 -5.91789e-05 -5.21243e-05 -4.59809e-05 -4.06057e-05 -3.56999e-05 -3.09771e-05 -2.62163e-05 -2.12641e-05 -1.60209e-05 -1.04288e-05 -4.45874e-06 1.90475e-06 8.68992e-06 1.59731e-05 2.38557e-05 3.24514e-05 4.18898e-05 5.2329e-05 6.39753e-05 7.71009e-05 9.20412e-05 0.000109114 0.00012837 0.000149212 0.000170736 0.000191943 0.000211806 0.000229275 0.000243335 0.000253109 0.000258037 -0.000119412 -0.000117574 -0.00011407 -0.000109043 -0.00010264 -9.50376e-05 -8.64608e-05 -7.72123e-05 -6.77134e-05 -5.85553e-05 -5.04995e-05 -4.41875e-05 -3.912e-05 -3.46755e-05 -3.04004e-05 -2.60083e-05 -2.13294e-05 -1.62709e-05 -1.07949e-05 -4.90641e-06 1.35749e-06 7.97013e-06 1.50363e-05 2.26828e-05 3.10318e-05 4.02115e-05 5.03823e-05 6.17768e-05 7.47611e-05 8.99084e-05 0.000108001 0.00012961 0.000153608 0.000178605 0.000203319 0.000226545 0.000247069 0.000263678 0.000275285 0.000281155 -0.000129094 -0.00012697 -0.00012291 -0.000117059 -0.000109567 -0.000100605 -9.0392e-05 -7.92276e-05 -6.75687e-05 -5.61939e-05 -4.64996e-05 -4.05235e-05 -3.63924e-05 -3.28702e-05 -2.9337e-05 -2.5491e-05 -2.11861e-05 -1.63585e-05 -1.10017e-05 -5.16697e-06 1.01402e-06 7.33831e-06 1.40473e-05 2.13195e-05 2.9273e-05 3.80067e-05 4.76398e-05 5.83665e-05 7.05659e-05 8.50395e-05 0.000103444 0.00012834 0.00015661 0.000185976 0.000214895 0.000242065 0.000266159 0.000285771 0.000299558 0.00030656 -0.000139872 -0.000137428 -0.00013274 -0.000125959 -0.000117228 -0.000106702 -9.45611e-05 -8.1028e-05 -6.64329e-05 -5.14458e-05 -3.80795e-05 -3.43203e-05 -3.23705e-05 -3.04001e-05 -2.79192e-05 -2.47749e-05 -2.09163e-05 -1.63352e-05 -1.10553e-05 -5.1521e-06 1.1387e-06 6.92266e-06 1.30836e-05 1.98486e-05 2.7289e-05 3.54332e-05 4.43012e-05 5.39347e-05 6.4482e-05 7.65306e-05 9.25548e-05 0.000123668 0.000158209 0.000193081 0.000226931 0.000258616 0.000286804 0.000309907 0.000326274 0.00033463 -0.000151961 -0.000149161 -0.000143778 -0.000135968 -0.00012587 -0.000113615 -9.93304e-05 -8.31032e-05 -6.49031e-05 -4.42903e-05 -1.92691e-05 -2.55358e-05 -2.76095e-05 -2.7692e-05 -2.64273e-05 -2.4046e-05 -2.06521e-05 -1.63041e-05 -1.10356e-05 -4.83856e-06 2.44534e-06 6.79497e-06 1.21692e-05 1.83422e-05 2.52239e-05 3.27365e-05 4.07679e-05 4.91177e-05 5.73642e-05 6.44226e-05 6.68261e-05 0.000115648 0.000159286 0.000200595 0.000239888 0.000276538 0.0003093 0.000336403 0.000355801 0.000365776 -0.000165593 -0.000162403 -0.000156261 -0.000147332 -0.00013576 -0.000121669 -0.000105161 -8.62747e-05 -6.49099e-05 -4.06639e-05 -1.25828e-05 -2.00851e-05 -2.39956e-05 -2.55011e-05 -2.52351e-05 -2.35249e-05 -2.05491e-05 -1.64124e-05 -1.11751e-05 -4.85467e-06 2.59018e-06 6.37713e-06 1.118e-05 1.68384e-05 2.32234e-05 3.01966e-05 3.75648e-05 4.50146e-05 5.19879e-05 5.7434e-05 5.94334e-05 0.000113014 0.000162644 0.000209657 0.000254344 0.000296191 0.000333938 0.000365567 0.000388513 0.000400432 -0.000181015 -0.000177399 -0.00017043 -0.000160296 -0.000147154 -0.000131144 -0.000112384 -9.09448e-05 -6.6819e-05 -3.98899e-05 -9.99541e-06 -1.72675e-05 -2.18471e-05 -2.41586e-05 -2.45799e-05 -2.33769e-05 -2.07285e-05 -1.67567e-05 -1.15467e-05 -5.15802e-06 2.35927e-06 5.75558e-06 1.01368e-05 1.53968e-05 2.14087e-05 2.8017e-05 3.50108e-05 4.20849e-05 4.87839e-05 5.44562e-05 5.83383e-05 0.000114667 0.000168735 0.000220757 0.000270661 0.00031784 0.000360944 0.000397659 0.000424768 0.000439037 -0.000198483 -0.000194399 -0.000186531 -0.000175093 -0.000160274 -0.000142248 -0.000121178 -9.72017e-05 -7.04334e-05 -4.09806e-05 -9.03353e-06 -1.60705e-05 -2.0917e-05 -2.36772e-05 -2.45387e-05 -2.36816e-05 -2.12554e-05 -1.73799e-05 -1.21534e-05 -5.66263e-06 2.00084e-06 5.04816e-06 9.10208e-06 1.4077e-05 1.98564e-05 2.62925e-05 3.31951e-05 4.03178e-05 4.73494e-05 5.39398e-05 5.98222e-05 0.000119067 0.000177173 0.000233905 0.00028895 0.000341607 0.000390445 0.000432864 0.000464876 0.000482023 -0.000218265 -0.000213662 -0.000204801 -0.000191939 -0.000175308 -0.00015513 -0.000131625 -0.000105009 -7.54954e-05 -4.33285e-05 -8.83694e-06 -1.58618e-05 -2.08977e-05 -2.39433e-05 -2.50873e-05 -2.44481e-05 -2.21446e-05 -1.82871e-05 -1.29765e-05 -6.31076e-06 1.60467e-06 4.33015e-06 8.1285e-06 1.292e-05 1.85988e-05 2.50345e-05 3.20708e-05 3.95255e-05 4.72002e-05 5.49148e-05 6.25821e-05 0.000125244 0.000187475 0.000248918 0.000309164 0.000367494 0.000422466 0.00047127 0.000509079 0.000529795 -0.000240632 -0.000235445 -0.000225476 -0.000211034 -0.000192411 -0.000169891 -0.000143759 -0.000114302 -8.181e-05 -4.66041e-05 -9.06544e-06 -1.62891e-05 -2.15467e-05 -2.48183e-05 -2.61541e-05 -2.56397e-05 -2.3374e-05 -1.94572e-05 -1.39878e-05 -7.06451e-06 1.2078e-06 3.64366e-06 7.24947e-06 1.1946e-05 1.76364e-05 2.42087e-05 3.15393e-05 3.94979e-05 4.79607e-05 5.68341e-05 6.60902e-05 0.000132641 0.000199247 0.000265559 0.000331171 0.000395413 0.000456935 0.000512852 0.000557526 0.000582723 -0.000265867 -0.000260011 -0.000248779 -0.000232556 -0.000211709 -0.000186599 -0.000157584 -0.000125015 -8.92414e-05 -5.06258e-05 -9.56535e-06 -1.71522e-05 -2.26892e-05 -2.61723e-05 -2.76477e-05 -2.71916e-05 -2.48941e-05 -2.08494e-05 -1.51512e-05 -7.8932e-06 8.28124e-07 3.01269e-06 6.48475e-06 1.11625e-05 1.69549e-05 2.37658e-05 3.14976e-05 4.00579e-05 4.93693e-05 5.9383e-05 7.00909e-05 0.000140919 0.000212181 0.000283585 0.000354783 0.000425209 0.00049369 0.000557463 0.00061024 0.000641119 -0.000294261 -0.00028762 -0.000274922 -0.000256655 -0.000233288 -0.000205279 -0.000173069 -0.000137072 -9.76807e-05 -5.52781e-05 -1.02555e-05 -1.83258e-05 -2.41929e-05 -2.78853e-05 -2.94662e-05 -2.90184e-05 -2.66335e-05 -2.24041e-05 -1.64193e-05 -8.76444e-06 4.77399e-07 2.45474e-06 5.84937e-06 1.05736e-05 1.65389e-05 2.36602e-05 3.18595e-05 4.10708e-05 5.12469e-05 6.23657e-05 7.443e-05 0.000149833 0.000226005 0.000302736 0.000379762 0.000456653 0.00053248 0.000604816 0.000667071 0.000705206 -0.000326113 -0.00031853 -0.000304091 -0.000283434 -0.000257172 -0.000225891 -0.000190127 -0.000150358 -0.000107009 -6.04623e-05 -1.10822e-05 -1.97156e-05 -2.59424e-05 -2.98371e-05 -3.14936e-05 -3.10133e-05 -2.84973e-05 -2.40406e-05 -1.7729e-05 -9.63758e-06 1.68044e-07 1.98924e-06 5.36219e-06 1.01893e-05 1.63813e-05 2.38602e-05 3.25619e-05 4.24399e-05 5.34687e-05 6.56462e-05 7.89889e-05 0.000159173 0.000240451 0.00032271 0.000405795 0.000489424 0.00057295 0.00065447 0.000727638 0.00077507 -0.000361732 -0.000352981 -0.00033642 -0.000312913 -0.000283285 -0.000248286 -0.000208571 -0.000164681 -0.000117057 -6.60603e-05 -1.19974e-05 -2.12307e-05 -2.7818e-05 -3.18932e-05 -3.35921e-05 -3.30432e-05 -3.03633e-05 -2.56533e-05 -1.89968e-05 -1.04582e-05 -8.24105e-08 1.64385e-06 5.05229e-06 1.00318e-05 1.64896e-05 2.4352e-05 3.35656e-05 4.40989e-05 5.59443e-05 6.91183e-05 8.36568e-05 0.000168725 0.000255217 0.00034314 0.000432466 0.000523076 0.000614609 0.000705803 0.000791251 0.000850587 -0.000401427 -0.000391172 -0.000371947 -0.000344973 -0.000311382 -0.000272149 -0.000228062 -0.000179722 -0.000127566 -7.19022e-05 -1.29435e-05 -2.27634e-05 -2.96765e-05 -3.38907e-05 -3.55924e-05 -3.4943e-05 -3.20781e-05 -2.71078e-05 -2.01149e-05 -1.1154e-05 -2.48017e-07 1.45865e-06 4.96268e-06 1.01376e-05 1.68864e-05 2.51389e-05 3.48508e-05 4.60034e-05 5.86044e-05 7.26894e-05 8.83185e-05 0.000178256 0.000269955 0.000363567 0.000459219 0.000556983 0.000656772 0.000757979 0.00085681 0.000931301 -0.000445492 -0.000433211 -0.000410525 -0.000379242 -0.000340946 -0.000296899 -0.000248029 -0.000194973 -0.000138135 -7.77328e-05 -1.38405e-05 -2.41709e-05 -3.13355e-05 -3.56276e-05 -3.72883e-05 -3.65129e-05 -3.34573e-05 -2.82415e-05 -2.09509e-05 -1.16333e-05 -2.92619e-07 1.48686e-06 5.14896e-06 1.05543e-05 1.76043e-05 2.62342e-05 3.64085e-05 4.81198e-05 6.13897e-05 7.62709e-05 9.28489e-05 0.000187503 0.000284256 0.000383427 0.000485339 0.000590292 0.000698483 0.000809901 0.000922693 0.00101625 -0.000494173 -0.000478999 -0.00045165 -0.00041492 -0.000371032 -0.00032157 -0.000267575 -0.000209672 -0.000148177 -8.31789e-05 -1.45715e-05 -2.5262e-05 -3.2566e-05 -3.68627e-05 -3.84428e-05 -3.753e-05 -3.42977e-05 -2.88766e-05 -2.13583e-05 -1.17914e-05 -1.71415e-07 1.7891e-06 5.6694e-06 1.13276e-05 1.86714e-05 2.76452e-05 3.82239e-05 5.04104e-05 6.42369e-05 7.97684e-05 9.71114e-05 0.000196172 0.000297645 0.000402048 0.000509935 0.000621889 0.000738423 0.000860126 0.000986632 0.00110371 -0.000547561 -0.000527964 -0.000494122 -0.000450472 -0.000400038 -0.000344667 -0.000285402 -0.000222755 -0.000156893 -8.7733e-05 -1.49737e-05 -2.57981e-05 -3.31075e-05 -3.73426e-05 -3.88221e-05 -3.77853e-05 -3.44163e-05 -2.8856e-05 -2.12072e-05 -1.15323e-05 1.59771e-07 2.41449e-06 6.55969e-06 1.24728e-05 2.00806e-05 2.93433e-05 4.02481e-05 5.28066e-05 6.70572e-05 8.30685e-05 0.000100955 0.000203934 0.00030959 0.00041866 0.000531949 0.000650393 0.000774832 0.000906743 0.00104564 0.00119072 -0.000605261 -0.000578389 -0.000535389 -0.00048318 -0.000425468 -0.000364076 -0.000299805 -0.00023291 -0.000163332 -9.07996e-05 -1.48533e-05 -2.55421e-05 -3.27418e-05 -3.68864e-05 -3.82849e-05 -3.71722e-05 -3.37344e-05 -2.81209e-05 -2.0452e-05 -1.08198e-05 7.19089e-07 3.35846e-06 7.78313e-06 1.39231e-05 2.17403e-05 3.12171e-05 4.23542e-05 5.517e-05 6.97037e-05 8.60164e-05 0.00010421 0.000210424 0.000319503 0.000432409 0.000550197 0.000674201 0.000805528 0.000947191 0.00109608 0.00127243 -0.000665172 -0.000625718 -0.000570421 -0.000508671 -0.000443905 -0.000377265 -0.000308979 -0.000238896 -0.000166686 -9.19206e-05 -1.409e-05 -2.44312e-05 -3.14874e-05 -3.55794e-05 -3.69633e-05 -3.58527e-05 -3.24289e-05 -2.68486e-05 -1.92525e-05 -9.77506e-06 1.44386e-06 4.48531e-06 9.1497e-06 1.54534e-05 2.34038e-05 3.30081e-05 4.42791e-05 5.72398e-05 7.19257e-05 8.83813e-05 0.000106673 0.000215233 0.000326754 0.000442403 0.000563441 0.000691584 0.00082811 0.000978002 0.00113425 0.00134072 -0.000718015 -0.000658776 -0.000590792 -0.00052152 -0.000452138 -0.000382493 -0.000312122 -0.000240498 -0.000167092 -9.13951e-05 -1.29745e-05 -2.29916e-05 -2.99877e-05 -3.41085e-05 -3.55491e-05 -3.4502e-05 -3.11444e-05 -2.56383e-05 -1.81406e-05 -8.82216e-06 2.0919e-06 5.41464e-06 1.02145e-05 1.65937e-05 2.45969e-05 3.42482e-05 4.55685e-05 5.85825e-05 7.33211e-05 8.98142e-05 0.000108086 0.000217898 0.000330695 0.000447771 0.000570529 0.000700865 0.000840376 0.00099474 0.0011573 0.00138247 0 0 0 0 0 0 0 0 0 0 0 0 0 0 0 0 0 0 0 0 0 0 0 0 0 0 0 0 0 0 0 0 0 0 0 0 0 0 0 0 -5.11405e-06 -5.07602e-06 -5.00234e-06 -4.8956e-06 -4.75812e-06 -4.59189e-06 -4.39868e-06 -4.17998e-06 -3.9371e-06 -3.67114e-06 -3.38293e-06 -3.07315e-06 -2.74203e-06 -2.38965e-06 -2.0158e-06 -1.62007e-06 -1.20189e-06 -7.60577e-07 -2.95437e-07 1.94149e-07 7.08601e-07 1.24799e-06 1.81197e-06 2.39957e-06 3.00904e-06 3.6377e-06 4.28179e-06 4.9364e-06 5.5953e-06 6.25102e-06 6.89482e-06 7.51696e-06 8.10672e-06 8.653e-06 9.14468e-06 9.57121e-06 9.92319e-06 