# vtk DataFile Version 2.0
Presion
ASCII

DATASET STRUCTURED_GRID
DIMENSIONS   40   40   20

POINTS   32000   double
0.0125   0.0125   0.025
0.0375   0.0125   0.025
0.0625   0.0125   0.025
0.0875   0.0125   0.025
0.1125   0.0125   0.025
0.1375   0.0125   0.025
0.1625   0.0125   0.025
0.1875   0.0125   0.025
0.2125   0.0125   0.025
0.2375   0.0125   0.025
0.2625   0.0125   0.025
0.2875   0.0125   0.025
0.3125   0.0125   0.025
0.3375   0.0125   0.025
0.3625   0.0125   0.025
0.3875   0.0125   0.025
0.4125   0.0125   0.025
0.4375   0.0125   0.025
0.4625   0.0125   0.025
0.4875   0.0125   0.025
0.5125   0.0125   0.025
0.5375   0.0125   0.025
0.5625   0.0125   0.025
0.5875   0.0125   0.025
0.6125   0.0125   0.025
0.6375   0.0125   0.025
0.6625   0.0125   0.025
0.6875   0.0125   0.025
0.7125   0.0125   0.025
0.7375   0.0125   0.025
0.7625   0.0125   0.025
0.7875   0.0125   0.025
0.8125   0.0125   0.025
0.8375   0.0125   0.025
0.8625   0.0125   0.025
0.8875   0.0125   0.025
0.9125   0.0125   0.025
0.9375   0.0125   0.025
0.9625   0.0125   0.025
0.9875   0.0125   0.025
0.0125   0.0375   0.025
0.0375   0.0375   0.025
0.0625   0.0375   0.025
0.0875   0.0375   0.025
0.1125   0.0375   0.025
0.1375   0.0375   0.025
0.1625   0.0375   0.025
0.1875   0.0375   0.025
0.2125   0.0375   0.025
0.2375   0.0375   0.025
0.2625   0.0375   0.025
0.2875   0.0375   0.025
0.3125   0.0375   0.025
0.3375   0.0375   0.025
0.3625   0.0375   0.025
0.3875   0.0375   0.025
0.4125   0.0375   0.025
0.4375   0.0375   0.025
0.4625   0.0375   0.025
0.4875   0.0375   0.025
0.5125   0.0375   0.025
0.5375   0.0375   0.025
0.5625   0.0375   0.025
0.5875   0.0375   0.025
0.6125   0.0375   0.025
0.6375   0.0375   0.025
0.6625   0.0375   0.025
0.6875   0.0375   0.025
0.7125   0.0375   0.025
0.7375   0.0375   0.025
0.7625   0.0375   0.025
0.7875   0.0375   0.025
0.8125   0.0375   0.025
0.8375   0.0375   0.025
0.8625   0.0375   0.025
0.8875   0.0375   0.025
0.9125   0.0375   0.025
0.9375   0.0375   0.025
0.9625   0.0375   0.025
0.9875   0.0375   0.025
0.0125   0.0625   0.025
0.0375   0.0625   0.025
0.0625   0.0625   0.025
0.0875   0.0625   0.025
0.1125   0.0625   0.025
0.1375   0.0625   0.025
0.1625   0.0625   0.025
0.1875   0.0625   0.025
0.2125   0.0625   0.025
0.2375   0.0625   0.025
0.2625   0.0625   0.025
0.2875   0.0625   0.025
0.3125   0.0625   0.025
0.3375   0.0625   0.025
0.3625   0.0625   0.025
0.3875   0.0625   0.025
0.4125   0.0625   0.025
0.4375   0.0625   0.025
0.4625   0.0625   0.025
0.4875   0.0625   0.025
0.5125   0.0625   0.025
0.5375   0.0625   0.025
0.5625   0.0625   0.025
0.5875   0.0625   0.025
0.6125   0.0625   0.025
0.6375   0.0625   0.025
0.6625   0.0625   0.025
0.6875   0.0625   0.025
0.7125   0.0625   0.025
0.7375   0.0625   0.025
0.7625   0.0625   0.025
0.7875   0.0625   0.025
0.8125   0.0625   0.025
0.8375   0.0625   0.025
0.8625   0.0625   0.025
0.8875   0.0625   0.025
0.9125   0.0625   0.025
0.9375   0.0625   0.025
0.9625   0.0625   0.025
0.9875   0.0625   0.025
0.0125   0.0875   0.025
0.0375   0.0875   0.025
0.0625   0.0875   0.025
0.0875   0.0875   0.025
0.1125   0.0875   0.025
0.1375   0.0875   0.025
0.1625   0.0875   0.025
0.1875   0.0875   0.025
0.2125   0.0875   0.025
0.2375   0.0875   0.025
0.2625   0.0875   0.025
0.2875   0.0875   0.025
0.3125   0.0875   0.025
0.3375   0.0875   0.025
0.3625   0.0875   0.025
0.3875   0.0875   0.025
0.4125   0.0875   0.025
0.4375   0.0875   0.025
0.4625   0.0875   0.025
0.4875   0.0875   0.025
0.5125   0.0875   0.025
0.5375   0.0875   0.025
0.5625   0.0875   0.025
0.5875   0.0875   0.025
0.6125   0.0875   0.025
0.6375   0.0875   0.025
0.6625   0.0875   0.025
0.6875   0.0875   0.025
0.7125   0.0875   0.025
0.7375   0.0875   0.025
0.7625   0.0875   0.025
0.7875   0.0875   0.025
0.8125   0.0875   0.025
0.8375   0.0875   0.025
0.8625   0.0875   0.025
0.8875   0.0875   0.025
0.9125   0.0875   0.025
0.9375   0.0875   0.025
0.9625   0.0875   0.025
0.9875   0.0875   0.025
0.0125   0.1125   0.025
0.0375   0.1125   0.025
0.0625   0.1125   0.025
0.0875   0.1125   0.025
0.1125   0.1125   0.025
0.1375   0.1125   0.025
0.1625   0.1125   0.025
0.1875   0.1125   0.025
0.2125   0.1125   0.025
0.2375   0.1125   0.025
0.2625   0.1125   0.025
0.2875   0.1125   0.025
0.3125   0.1125   0.025
0.3375   0.1125   0.025
0.3625   0.1125   0.025
0.3875   0.1125   0.025
0.4125   0.1125   0.025
0.4375   0.1125   0.025
0.4625   0.1125   0.025
0.4875   0.1125   0.025
0.5125   0.1125   0.025
0.5375   0.1125   0.025
0.5625   0.1125   0.025
0.5875   0.1125   0.025
0.6125   0.1125   0.025
0.6375   0.1125   0.025
0.6625   0.1125   0.025
0.6875   0.1125   0.025
0.7125   0.1125   0.025
0.7375   0.1125   0.025
0.7625   0.1125   0.025
0.7875   0.1125   0.025
0.8125   0.1125   0.025
0.8375   0.1125   0.025
0.8625   0.1125   0.025
0.8875   0.1125   0.025
0.9125   0.1125   0.025
0.9375   0.1125   0.025
0.9625   0.1125   0.025
0.9875   0.1125   0.025
0.0125   0.1375   0.025
0.0375   0.1375   0.025
0.0625   0.1375   0.025
0.0875   0.1375   0.025
0.1125   0.1375   0.025
0.1375   0.1375   0.025
0.1625   0.1375   0.025
0.1875   0.1375   0.025
0.2125   0.1375   0.025
0.2375   0.1375   0.025
0.2625   0.1375   0.025
0.2875   0.1375   0.025
0.3125   0.1375   0.025
0.3375   0.1375   0.025
0.3625   0.1375   0.025
0.3875   0.1375   0.025
0.4125   0.1375   0.025
0.4375   0.1375   0.025
0.4625   0.1375   0.025
0.4875   0.1375   0.025
0.5125   0.1375   0.025
0.5375   0.1375   0.025
0.5625   0.1375   0.025
0.5875   0.1375   0.025
0.6125   0.1375   0.025
0.6375   0.1375   0.025
0.6625   0.1375   0.025
0.6875   0.1375   0.025
0.7125   0.1375   0.025
0.7375   0.1375   0.025
0.7625   0.1375   0.025
0.7875   0.1375   0.025
0.8125   0.1375   0.025
0.8375   0.1375   0.025
0.8625   0.1375   0.025
0.8875   0.1375   0.025
0.9125   0.1375   0.025
0.9375   0.1375   0.025
0.9625   0.1375   0.025
0.9875   0.1375   0.025
0.0125   0.1625   0.025
0.0375   0.1625   0.025
0.0625   0.1625   0.025
0.0875   0.1625   0.025
0.1125   0.1625   0.025
0.1375   0.1625   0.025
0.1625   0.1625   0.025
0.1875   0.1625   0.025
0.2125   0.1625   0.025
0.2375   0.1625   0.025
0.2625   0.1625   0.025
0.2875   0.1625   0.025
0.3125   0.1625   0.025
0.3375   0.1625   0.025
0.3625   0.1625   0.025
0.3875   0.1625   0.025
0.4125   0.1625   0.025
0.4375   0.1625   0.025
0.4625   0.1625   0.025
0.4875   0.1625   0.025
0.5125   0.1625   0.025
0.5375   0.1625   0.025
0.5625   0.1625   0.025
0.5875   0.1625   0.025
0.6125   0.1625   0.025
0.6375   0.1625   0.025
0.6625   0.1625   0.025
0.6875   0.1625   0.025
0.7125   0.1625   0.025
0.7375   0.1625   0.025
0.7625   0.1625   0.025
0.7875   0.1625   0.025
0.8125   0.1625   0.025
0.8375   0.1625   0.025
0.8625   0.1625   0.025
0.8875   0.1625   0.025
0.9125   0.1625   0.025
0.9375   0.1625   0.025
0.9625   0.1625   0.025
0.9875   0.1625   0.025
0.0125   0.1875   0.025
0.0375   0.1875   0.025
0.0625   0.1875   0.025
0.0875   0.1875   0.025
0.1125   0.1875   0.025
0.1375   0.1875   0.025
0.1625   0.1875   0.025
0.1875   0.1875   0.025
0.2125   0.1875   0.025
0.2375   0.1875   0.025
0.2625   0.1875   0.025
0.2875   0.1875   0.025
0.3125   0.1875   0.025
0.3375   0.1875   0.025
0.3625   0.1875   0.025
0.3875   0.1875   0.025
0.4125   0.1875   0.025
0.4375   0.1875   0.025
0.4625   0.1875   0.025
0.4875   0.1875   0.025
0.5125   0.1875   0.025
0.5375   0.1875   0.025
0.5625   0.1875   0.025
0.5875   0.1875   0.025
0.6125   0.1875   0.025
0.6375   0.1875   0.025
0.6625   0.1875   0.025
0.6875   0.1875   0.025
0.7125   0.1875   0.025
0.7375   0.1875   0.025
0.7625   0.1875   0.025
0.7875   0.1875   0.025
0.8125   0.1875   0.025
0.8375   0.1875   0.025
0.8625   0.1875   0.025
0.8875   0.1875   0.025
0.9125   0.1875   0.025
0.9375   0.1875   0.025
0.9625   0.1875   0.025
0.9875   0.1875   0.025
0.0125   0.2125   0.025
0.0375   0.2125   0.025
0.0625   0.2125   0.025
0.0875   0.2125   0.025
0.1125   0.2125   0.025
0.1375   0.2125   0.025
0.1625   0.2125   0.025
0.1875   0.2125   0.025
0.2125   0.2125   0.025
0.2375   0.2125   0.025
0.2625   0.2125   0.025
0.2875   0.2125   0.025
0.3125   0.2125   0.025
0.3375   0.2125   0.025
0.3625   0.2125   0.025
0.3875   0.2125   0.025
0.4125   0.2125   0.025
0.4375   0.2125   0.025
0.4625   0.2125   0.025
0.4875   0.2125   0.025
0.5125   0.2125   0.025
0.5375   0.2125   0.025
0.5625   0.2125   0.025
0.5875   0.2125   0.025
0.6125   0.2125   0.025
0.6375   0.2125   0.025
0.6625   0.2125   0.025
0.6875   0.2125   0.025
0.7125   0.2125   0.025
0.7375   0.2125   0.025
0.7625   0.2125   0.025
0.7875   0.2125   0.025
0.8125   0.2125   0.025
0.8375   0.2125   0.025
0.8625   0.2125   0.025
0.8875   0.2125   0.025
0.9125   0.2125   0.025
0.9375   0.2125   0.025
0.9625   0.2125   0.025
0.9875   0.2125   0.025
0.0125   0.2375   0.025
0.0375   0.2375   0.025
0.0625   0.2375   0.025
0.0875   0.2375   0.025
0.1125   0.2375   0.025
0.1375   0.2375   0.025
0.1625   0.2375   0.025
0.1875   0.2375   0.025
0.2125   0.2375   0.025
0.2375   0.2375   0.025
0.2625   0.2375   0.025
0.2875   0.2375   0.025
0.3125   0.2375   0.025
0.3375   0.2375   0.025
0.3625   0.2375   0.025
0.3875   0.2375   0.025
0.4125   0.2375   0.025
0.4375   0.2375   0.025
0.4625   0.2375   0.025
0.4875   0.2375   0.025
0.5125   0.2375   0.025
0.5375   0.2375   0.025
0.5625   0.2375   0.025
0.5875   0.2375   0.025
0.6125   0.2375   0.025
0.6375   0.2375   0.025
0.6625   0.2375   0.025
0.6875   0.2375   0.025
0.7125   0.2375   0.025
0.7375   0.2375   0.025
0.7625   0.2375   0.025
0.7875   0.2375   0.025
0.8125   0.2375   0.025
0.8375   0.2375   0.025
0.8625   0.2375   0.025
0.8875   0.2375   0.025
0.9125   0.2375   0.025
0.9375   0.2375   0.025
0.9625   0.2375   0.025
0.9875   0.2375   0.025
0.0125   0.2625   0.025
0.0375   0.2625   0.025
0.0625   0.2625   0.025
0.0875   0.2625   0.025
0.1125   0.2625   0.025
0.1375   0.2625   0.025
0.1625   0.2625   0.025
0.1875   0.2625   0.025
0.2125   0.2625   0.025
0.2375   0.2625   0.025
0.2625   0.2625   0.025
[...]
POINT_DATA   32000
SCALARS Presion double
LOOKUP_TABLE   Presion

0 0 0 0 0 0 0 0 0 0 0 0 0 0 0 0 0 0 0 0 0 0 0 0 0 0 0 0 0 0 0 0 0 0 0 0 0 0 0 0 -0.00201293 -0.00239074 -0.00303203 -0.00376565 -0.00451277 -0.00522237 -0.00585702 -0.00638894 -0.00679809 -0.00707065 -0.00719771 -0.00717436 -0.00699899 -0.00667295 -0.00620047 -0.0055887 -0.00484788 -0.00399145 -0.00303613 -0.0020018 -0.000911256 0.000210255 0.00133566 0.00243687 0.00348562 0.00445452 0.005318 0.00605327 0.00664132 0.0070677 0.00732331 0.00740504 0.00731617 0.00706651 0.00667215 0.00615472 0.00554047 0.00486172 0.00417425 0.00366361 -0.00218206 -0.0024017 -0.00290426 -0.00354479 -0.00423203 -0.00490522 -0.00552187 -0.00605158 -0.0064727 -0.00677013 -0.00693378 -0.00695754 -0.00683854 -0.0065768 -0.00617507 -0.00563886 -0.00497654 -0.00419945 -0.00332199 -0.00236154 -0.00133826 -0.000274815 0.000804183 0.00187277 0.00290442 0.00387283 0.00475292 0.00552169 0.00615924 0.00664966 0.00698195 0.00715079 0.0071573 0.0070096 0.00672332 0.00632245 0.00584137 0.00533139 0.00488094 0.00467278 -0.00186334 -0.00214931 -0.00264671 -0.00326536 -0.00393227 -0.00459284 -0.00520706 -0.0057458 -0.00618806 -0.00651881 -0.00672757 -0.00680739 -0.00675417 -0.00656633 -0.00624471 -0.00579262 -0.00521593 -0.0045233 -0.00372624 -0.00283923 -0.0018796 -0.000867428 0.000174891 0.00122306 0.00225156 0.00323436 0.00414588 0.00496192 0.00566073 0.00622409 0.00663841 0.00689574 0.00699472 0.00694149 0.00675052 0.00644587 0.00606339 0.00565575 0.00530343 0.00513365 -0.00127385 -0.00170599 -0.00227686 -0.00293122 -0.00361718 -0.00429211 -0.00492305 -0.00548522 -0.0059602 -0.00633432 -0.00659746 -0.00674221 -0.00676335 -0.0066576 -0.00642361 -0.0060621 -0.00557608 -0.00497107 -0.00425541 -0.00344044 -0.00254055 -0.00157328 -0.000559031 0.00047922 0.00151644 0.00252627 0.00348191 0.00435719 0.00512773 0.00577226 0.00627388 0.0066213 0.00681006 0.00684352 0.00673384 0.00650302 0.00618442 0.00582547 0.00549201 0.00527202 -0.000554539 -0.00115583 -0.00183891 -0.00256651 -0.00330257 -0.00401631 -0.00468317 -0.00528414 -0.00580457 -0.00623301 -0.00656026 -0.0067788 -0.00688241 -0.00686609 -0.00672619 -0.00646065 -0.00606933 -0.00555446 -0.00492096 -0.00417688 -0.00333365 -0.00240624 -0.00141318 -0.000376351 0.000679433 0.00172706 0.00273805 0.00368367 0.00453628 0.00527078 0.00586618 0.00630706 0.00658498 0.00669964 0.00665984 0.00648435 0.00620274 0.00585648 0.0055001 0.00520025 0.000197167 -0.00057385 -0.0013845 -0.00220614 -0.00301334 -0.00378505 -0.00450457 -0.00515882 -0.00573727 -0.00623104 -0.00663218 -0.00693325 -0.00712716 -0.00720724 -0.0071675 -0.00700301 -0.00671042 -0.00628848 -0.0057386 -0.00506544 -0.00427732 -0.00338662 -0.00240995 -0.0013681 -0.000285789 0.000808954 0.00188565 0.00291258 0.00385824 0.00469301 0.00539095 0.00593156 0.00630143 0.00649566 0.00651891 0.00638613 0.00612309 0.00576668 0.0053647 0.00497411 0.000908595 -2.38651e-05 -0.000964538 -0.00188928 -0.00277988 -0.00362281 -0.00440807 -0.00512792 -0.00577575 -0.00634521 -0.00682962 -0.00722173 -0.00751363 -0.00769703 -0.00776364 -0.00770566 -0.00751648 -0.0071913 -0.00672793 -0.00612747 -0.005395 -0.00454011 -0.00357729 -0.0025261 -0.00141104 -0.000261049 0.000891259 0.00201086 0.00306187 0.00400939 0.00482162 0.0054719 0.00594078 0.00621771 0.00630241 0.0062057 0.00594994 0.00556902 0.00510783 0.00462052 0.00152173 0.000439695 -0.000626474 -0.00165568 -0.0026351 -0.00355715 -0.00441731 -0.00521238 -0.00593914 -0.00659347 -0.00716985 -0.00766112 -0.00805861 -0.00835245 -0.0085321 -0.00858692 -0.00850702 -0.00828403 -0.007912 -0.0073883 -0.00671449 -0.00589704 -0.004948 -0.00388532 -0.00273297 -0.00152065 -0.00028305 0.000941291 0.00211163 0.00318705 0.00412886 0.00490304 0.00548281 0.00585078 0.00600081 0.00593913 0.00568501 0.00527066 0.00474071 0.00415068 0.00198786 0.000769641 -0.000413641 -0.00154376 -0.00261246 -0.00361711 -0.00455773 -0.00543484 -0.00624803 -0.006995 -0.00767111 -0.00826922 -0.00877987 -0.00919164 -0.00949179 -0.00966689 -0.00970376 -0.00959037 -0.00931685 -0.00887659 -0.00826722 -0.00749168 -0.00655902 -0.00548504 -0.0042927 -0.00301204 -0.00167965 -0.000337668 0.000967898 0.00218935 0.00327998 0.00419704 0.0049049 0.00537786 0.0056027 0.00558037 0.005327 0.00487398 0.00426745 0.00356692 0.00226465 0.000924436 -0.000365351 -0.00158968 -0.00274464 -0.00383197 -0.00485554 -0.00581895 -0.00672403 -0.0075699 -0.00835254 -0.00906469 -0.00969606 -0.0102337 -0.0106628 -0.010967 -0.01113 -0.0111359 -0.0109707 -0.0106234 -0.0100874 -0.00936135 -0.00845062 -0.00736818 -0.00613522 -0.00478152 -0.00334523 -0.00187197 -0.000413338 0.000975415 0.00223838 0.0033225 0.00418146 0.00477943 0.0050945 0.00512121 0.00487208 0.00437805 0.00368784 0.00286667 0.00231464 0.000867192 -0.000517113 -0.00182693 -0.00306269 -0.00423023 -0.00533678 -0.00638852 -0.00738909 -0.00833868 -0.00923366 -0.0100665 -0.0108262 -0.0114982 -0.0120655 -0.0125093 -0.0128097 -0.0129469 -0.0129026 -0.0126611 -0.0122106 -0.011545 -0.0106651 -0.00958008 -0.0083084 -0.00687879 -0.00533026 -0.0037117 -0.00208044 -0.000499992 0.000963271 0.0022442 0.00328363 0.00403333 0.00446054 0.00455172 0.00431483 0.00378014 0.00299957 0.00204511 0.00210452 0.000565125 -0.000900784 -0.00228602 -0.00359545 -0.00483881 -0.0060264 -0.00716665 -0.00826464 -0.0093214 -0.0103336 -0.0112933 -0.0121887 -0.0130039 -0.0137199 -0.0143149 -0.0147659 -0.015049 -0.0151411 -0.0150212 -0.0146719 -0.0140814 -0.013245 -0.0121667 -0.0108614 -0.00935538 -0.00768781 -0.00591018 -0.00408551 -0.00228614 -0.000590178 0.000923148 0.00217934 0.00311489 0.00368343 0.00386095 0.00364926 0.00307723 0.00220011 0.00109729 0.00160489 -1.06381e-05 -0.00154458 -0.00299426 -0.00436905 -0.00568242 -0.00694755 -0.00817482 -0.00937063 -0.0105367 -0.0116698 -0.0127619 -0.0138003 -0.0147678 -0.0156433 -0.0164026 -0.0170191 -0.0174646 -0.0177112 -0.0177319 -0.0175031 -0.0170063 -0.0162299 -0.0151718 -0.0138417 -0.0122622 -0.0104713 -0.00852203 -0.00648286 -0.00443518 -0.00247006 -0.000682844 0.000833717 0.0019974 0.00274467 0.00303782 0.00287007 0.00226759 0.00128859 2.01948e-05 0.000790334 -0.000885011 -0.00247295 -0.00397551 -0.00540647 -0.00678291 -0.00812066 -0.00943199 -0.0107245 -0.0120005 -0.0132571 -0.0144861 -0.015674 -0.0168026 -0.0178489 -0.0187862 -0.0195842 -0.0202106 -0.0206319 -0.0208151 -0.0207293 -0.0203484 -0.0196529 -0.0186331 -0.0172916 -0.0156459 -0.0137309 -0.0116001 -0.00932633 -0.00700001 -0.00472603 -0.00261794 -0.000789936 0.000652974 0.00162556 0.00207217 0.00197402 0.00135243 0.000267695 -0.00118529 -0.000360212 -0.00207874 -0.0037064 -0.00524987 -0.00672712 -0.00815863 -0.00956276 -0.0109536 -0.0123398 -0.0137248 -0.0151058 -0.0164747 -0.0178177 -0.0191154 -0.0203434 -0.0214722 -0.0224683 -0.0232949 -0.0239128 -0.0242823 -0.0243648 -0.0241255 -0.023536 -0.0225771 -0.0212428 -0.0195434 -0.0175087 -0.0151908 -0.0126651 -0.0100307 -0.0074064 -0.00492599 -0.00272837 -0.00094604 0.00030856 0.000956278 0.000961611 0.000337834 -0.000854153 -0.00251208 -0.0018631 -0.00360813 -0.00526125 -0.00683343 -0.00834648 -0.00982397 -0.0112867 -0.0127505 -0.0142256 -0.0157161 -0.0172203 -0.0187302 -0.0202318 -0.021705 -0.023124 -0.0244571 -0.0256672 -0.0267131 -0.0275499 -0.0281306 -0.0284086 -0.0283394 -0.0278843 -0.0270136 -0.0257106 -0.0239761 -0.0218325 -0.0193277 -0.0165381 -0.0135691 -0.0105537 -0.00764692 -0.00501557 -0.00282478 -0.00122079 -0.000313311 -0.00016092 -0.000762961 -0.00206034 -0.00394423 -0.00372953 -0.00548476 -0.0071494 -0.00873805 -0.0102757 -0.0117888 -0.0133003 -0.0148283 -0.0163844 -0.0179744 -0.0195974 -0.0212462 -0.0229072 -0.0245597 -0.0261767 -0.0277245 -0.0291627 -0.0304456 -0.0315224 -0.032339 -0.0328398 -0.0329704 -0.0326809 -0.0319293 -0.0306868 -0.0289421 -0.0267077 -0.0240243 -0.0209659 -0.0176422 -0.0141986 -0.0108115 -0.00767855 -0.00500258 -0.00297114 -0.00173329 -0.00137906 -0.00192687 -0.00332313 -0.0054539 -0.00596518 -0.00771536 -0.00937834 -0.0109713 -0.0125216 -0.0140581 -0.0156062 -0.0171861 -0.018812 -0.0204912 -0.0222248 -0.0240067 -0.0258237 -0.0276554 -0.0294738 -0.0312431 -0.0329201 -0.0344545 -0.0357898 -0.0368645 -0.0376141 -0.0379737 -0.0378814 -0.0372822 -0.0361331 -0.0344092 -0.0321096 -0.0292649 -0.0259427 -0.0222534 -0.0183517 -0.0144345 -0.0107315 -0.00748823 -0.00494156 -0.00329034 -0.00266689 -0.00311769 -0.00460014 -0.00699764 -0.00857004 -0.0103017 -0.0119511 -0.0135364 -0.0150864 -0.0166318 -0.0182008 -0.0198164 -0.0214959 -0.0232493 -0.0250801 -0.0269839 -0.0289487 -0.0309545 -0.0329725 -0.0349653 -0.0368867 -0.0386824 -0.04029 -0.0416407 -0.0426613 -0.0432761 -0.043411 -0.042997 -0.0419764 -0.0403081 -0.037976 -0.0349963 -0.0314265 -0.0273725 -0.0229942 -0.0185057 -0.0141683 -0.0102737 -0.00711643 -0.00495682 -0.00398317 -0.00428211 -0.00583022 -0.00851202 -0.0115384 -0.0132411 -0.014867 -0.016433 -0.017968 -0.0195048 -0.0210745 -0.0227042 -0.0244151 -0.0262214 -0.0281296 -0.030138 -0.0322362 -0.0344047 -0.0366145 -0.0388265 -0.040992 -0.0430522 -0.0449393 -0.0465777 -0.0478851 -0.0487756 -0.0491628 -0.0489639 -0.0481052 -0.0465289 -0.0442011 -0.0411208 -0.0373305 -0.0329265 -0.0280675 -0.0229796 -0.0179528 -0.0133263 -0.00945886 -0.00668539 -0.00526645 -0.00534501 -0.00692848 -0.00990856 -0.0148594 -0.0165267 -0.0181217 -0.0196572 -0.0211609 -0.0226672 -0.0242115 -0.0258267 -0.0275396 -0.0293698 -0.0313284 -0.0334168 -0.035627 -0.0379401 -0.0403269 -0.0427469 -0.0451484 -0.0474688 -0.0496348 -0.051564 -0.0531657 -0.0543441 -0.0550009 -0.0550396 -0.0543712 -0.0529204 -0.0506341 -0.0474919 -0.0435173 -0.038791 -0.0334635 -0.0277652 -0.0220087 -0.0165786 -0.0119026 -0.00840214 -0.00642918 -0.00620367 -0.00778047 -0.0110676 -0.0185176 -0.0201491 -0.0217095 -0.0232036 -0.0246564 -0.0261046 -0.0275902 -0.0291536 -0.0308302 -0.0326469 -0.0346204 -0.0367566 -0.0390496 -0.041482 -0.0440239 -0.0466331 -0.0492551 -0.051823 -0.0542583 -0.0564718 -0.0583651 -0.0598327 -0.0607653 -0.0610537 -0.060594 -0.059294 -0.0570816 -0.0539151 -0.0497964 -0.0447852 -0.0390166 -0.0327158 -0.0262086 -0.0199184 -0.0143421 -0.00999844 -0.00735053 -0.00672112 -0.00823538 -0.0118316 -0.0224946 -0.0240976 -0.0256241 -0.0270659 -0.028444 -0.0297993 -0.0311829 -0.0326472 -0.0342389 -0.0359949 -0.0379393 -0.0400829 -0.0424228 -0.0449421 -0.0476103 -0.0503831 -0.0532024 -0.0559971 -0.058683 -0.0611643 -0.063335 -0.0650807 -0.0662821 -0.0668181 -0.0665713 -0.0654338 -0.0633155 -0.060154 -0.0559279 -0.0506726 -0.0445007 -0.0376222 -0.030364 -0.0231771 -0.0166224 -0.0113213 -0.00786794 -0.00671812 -0.00809796 -0.0119964 -0.0267708 -0.0283634 -0.0298619 -0.0312398 -0.0325132 -0.0337303 -0.0349568 -0.0362623 -0.0377093 -0.0393474 -0.0412099 -0.0433134 -0.0456576 -0.0482259 -0.0509862 -0.0538911 -0.0568785 -0.0598719 -0.0627813 -0.0655042 -0.0679269 -0.0699267 -0.0713748 -0.0721397 -0.0720919 -0.0711098 -0.0690873 -0.0659429 -0.0616328 -0.0561669 -0.0496305 -0.0422096 -0.0342184 -0.0261201 -0.0185271 -0.0121624 -0.00776726 -0.00596384 -0.0071191 -0.0113026 -0.031329 -0.0329428 -0.0344256 -0.0357254 -0.0368545 -0.0378747 -0.0388743 -0.0399471 -0.0411771 -0.0426301 -0.0443505 -0.0463606 -0.0486622 -0.0512379 -0.0540525 -0.0570544 -0.060176 -0.0633348 -0.0664341 -0.0693639 -0.0720029 -0.0742201 -0.0758779 -0.0768351 -0.0769518 -0.0760949 -0.0741446 -0.0710038 -0.0666089 -0.0609461 -0.054072 -0.0461421 -0.0374455 -0.0284393 -0.0197685 -0.0122467 -0.0067715 -0.00416489 -0.00498452 -0.0094232 -0.0361594 -0.0378438 -0.0393292 -0.0405309 -0.0414618 -0.042208 -0.0428923 -0.0436426 -0.0445711 -0.0457633 -0.0472756 -0.0491357 -0.0513461 -0.0538865 -0.0567171 -0.0597798 -0.0630001 -0.066288 -0.0695388 -0.0726345 -0.0754457 -0.0778326 -0.0796489 -0.0807444 -0.0809699 -0.0801824 -0.0782514 -0.0750675 -0.0705522 -0.0646721 -0.0574581 -0.0490337 -0.0396535 -0.0297507 -0.0199786 -0.0112207 -0.00452797 -0.000952197 -0.00130081 -0.00595018 -0.0412665 -0.0430943 -0.0446053 -0.0456771 -0.0463343 -0.0467048 -0.0469631 -0.0472839 -0.0478147 -0.0486639 -0.0498997 -0.0515535 -0.0536258 -0.0560911 -0.0589016 -0.061991 -0.0652754 -0.0686556 -0.0720177 -0.0752347 -0.0781676 -0.0806677 -0.0825793 -0.0837434 -0.0840015 -0.0832019 -0.0812056 -0.0778944 -0.0731799 -0.0670155 -0.059413 -0.0504679 -0.0403979 -0.0295981 -0.0187048 -0.00864102 -0.00059394 0.0041351 0.00442244 -0.000375528 -0.046683 -0.0487557 -0.0503159 -0.0512036 -0.0514782 -0.0513382 -0.0510333 -0.0507999 -0.0508276 -0.0512489 -0.0521418 -0.0535378 -0.0554314 -0.0577877 -0.0605482 -0.0636347 -0.0669522 -0.0703901 -0.0738238 -0.0771155 -0.0801161 -0.0826666 -0.0846013 -0.085751 -0.085948 -0.0850317 -0.0828552 -0.0792938 -0.0742536 -0.0676817 -0.05958 -0.0500253 -0.0392034 -0.0274662 -0.0154111 -0.00396542 0.00557964 0.01167 0.012797 0.00793474 -0.0524906 -0.0549454 -0.0565677 -0.0571764 -0.0569096 -0.0560805 -0.0550446 -0.0541154 -0.0535294 -0.0534407 -0.0539317 -0.0550281 -0.0567126 -0.058936 -0.0616247 -0.0646861 -0.068011 -0.0714758 -0.0749432 -0.0782638 -0.0812764 -0.0838109 -0.0856899 -0.0867332 -0.086762 -0.0856054 -0.0831082 -0.0791391 -0.0736005 -0.0664387 -0.0576544 -0.0473183 -0.0355973 -0.0228052 -0.00948944 0.00345146 0.014666 0.0223651 0.0245909 0.0197802 -0.0588589 -0.0618726 -0.0635363 -0.0636988 -0.0626566 -0.0609024 -0.0589337 -0.057154 -0.0558446 -0.0551733 -0.0552172 -0.0559868 -0.0574456 -0.0595242 -0.0621298 -0.0651517 -0.0684646 -0.0719297 -0.075396 -0.0787006 -0.0816697 -0.0841202 -0.0858619 -0.0867016 -0.0864472 -0.0849155 -0.0819396 -0.0773792 -0.0711317 -0.063143 -0.0534186 -0.0420344 -0.0291549 -0.0150719 -0.000286234 0.0143535 0.027481 0.0371098 0.0407822 0.0361908 -0.0661146 -0.0698986 -0.0715007 -0.0709242 -0.0687618 -0.0657739 -0.0626357 -0.0598432 -0.0577099 -0.0564004 -0.0559712 -0.0564053 -0.0576377 -0.0595727 -0.0620938 -0.0650696 -0.0683563 -0.0717989 -0.0752315 -0.078477 -0.0813478 -0.0836471 -0.0851703 -0.0857092 -0.0850563 -0.0830122 -0.0793941 -0.0740476 -0.0668587 -0.057768 -0.0467832 -0.0339899 -0.0195633 -0.00379416 0.0128454 0.0295586 0.0449971 0.0570223 0.0626443 0.0585389 -0.0748719 -0.0796384 -0.0808939 -0.0790712 -0.0752833 -0.0706637 -0.0660863 -0.0621201 -0.0590806 -0.0571014 -0.0561966 -0.0563064 -0.0573277 -0.0591319 -0.0615753 -0.0645035 -0.0677534 -0.0711529 -0.0745208 -0.0776657 -0.0803858 -0.0824697 -0.0836978 -0.0838453 -0.0826869 -0.0800034 -0.0755908 -0.0692725 -0.060913 -0.0504348 -0.0378345 -0.0231973 -0.00670891 0.011329 0.0304504 0.049894 0.0683374 0.0835179 0.091885 0.0887431 -0.0862824 -0.0921309 -0.0923686 -0.0884311 -0.0822853 -0.0755321 -0.0692191 -0.063931 -0.0599305 -0.0572792 -0.0559212 -0.0557373 -0.0565761 -0.0582711 -0.0606487 -0.0635306 -0.0667343 -0.0700711 -0.0733448 -0.0763502 -0.0788717 -0.0806837 -0.0815513 -0.0812324 -0.0794822 -0.0760586 -0.0707311 -0.0632918 -0.0535702 -0.0414509 -0.0268934 -0.00995262 0.00920331 0.0302768 0.0528065 0.0760534 0.098711 0.11838 0.130873 0.129647 -0.102541 -0.109114 -0.106858 -0.0993412 -0.0897975 -0.0802951 -0.0719368 -0.0652054 -0.0602262 -0.0569343 -0.0551719 -0.0547429 -0.0554392 -0.057053 -0.0593799 -0.0622187 -0.0653682 -0.0686248 -0.071779 -0.0746129 -0.0768987 -0.0783978 -0.0788607 -0.0780289 -0.0756375 -0.07142 -0.0651152 -0.0564759 -0.0452819 -0.0313561 -0.014584 0.0050617 0.0274953 0.0524921 0.0796541 0.10831 0.137202 0.163769 0.182981 0.185725 -0.127963 -0.133426 -0.125551 -0.112043 -0.0976714 -0.0847016 -0.0740062 -0.0657672 -0.0598508 -0.0559978 -0.0539146 -0.0533123 -0.053921 -0.0554909 -0.0577891 -0.0605936 -0.063688 -0.0668562 -0.0698779 -0.0725253 -0.0745607 -0.0757347 -0.0757857 -0.0744408 -0.0714167 -0.0664231 -0.0591665 -0.0493557 -0.0367095 -0.0209665 -0.00189824 0.0206717 0.0468428 0.0766039 0.109791 0.145995 0.18424 0.221981 0.253035 0.264374 -0.171434 -0.169422 -0.149509 -0.126201 -0.105155 -0.0879921 -0.0747996 -0.0651391 -0.0584532 -0.0542122 -0.0519564 -0.0512971 -0.0519041 -0.0534914 -0.0558031 -0.0586024 -0.0616622 -0.0647584 -0.0676639 -0.0701446 -0.0719561 -0.0728419 -0.072532 -0.0707426 -0.067176 -0.0615214 -0.053456 -0.0426454 -0.028744 -0.011394 0.0097762 0.0351538 0.0651402 0.100141 0.140543 0.186654 0.238463 0.294429 0.347566 0.37827 -0.252253 -0.222577 -0.178096 -0.139418 -0.109787 -0.0881791 -0.0728474 -0.0622606 -0.0552581 -0.0509918 -0.048838 -0.0483249 -0.0490809 -0.0507993 -0.0532138 -0.0560825 -0.0591754 -0.0622663 -0.0651265 -0.0675202 -0.069201 -0.0699096 -0.0693723 -0.0672992 -0.0633841 -0.0573025 -0.0487096 -0.0372366 -0.0224824 -0.00400075 0.0187227 0.0463061 0.0795254 0.11939 0.167242 0.224873 0.294625 0.378743 0.473543 0.550035 -0.413201 -0.294626 -0.202843 -0.143108 -0.105339 -0.0811758 -0.0654941 -0.0553401 -0.0489841 -0.0453638 -0.0437848 -0.04376 -0.0449227 -0.0469765 -0.0496661 -0.0527586 -0.0560318 -0.0592655 -0.0622357 -0.0647104 -0.0664462 -0.0671862 -0.0666578 -0.0645714 -0.0606186 -0.0544702 -0.0457714 -0.0341349 -0.0191277 -0.000248286 0.023114 0.0517479 0.0867415 0.129696 0.183103 0.251017 0.340219 0.462005 0.630235 0.823261 -0.752804 -0.345306 -0.186283 -0.116535 -0.0812898 -0.0614259 -0.0495013 -0.0422559 -0.0380899 -0.0361239 -0.0358146 -0.0367864 -0.0387506 -0.0414659 -0.0447154 -0.0482942 -0.0520005 -0.0556297 -0.0589701 -0.0617997 -0.0638835 -0.0649716 -0.0647981 -0.0630788 -0.0595107 -0.0537687 -0.0455019 -0.0343259 -0.0198093 -0.00144967 0.0213691 0.049453 0.083941 0.126588 0.180372 0.25094 0.350252 0.505455 0.774759 1.27438 0 0 0 0 0 0 0 0 0 0 0 0 0 0 0 0 0 0 0 0 0 0 0 0 0 0 0 0 0 0 0 0 0 0 0 0 0 0 0 0 -0.00204844 -0.00241159 -0.00293846 -0.00348953 -0.00401395 -0.00448287 -0.00487572 -0.0051772 -0.00537632 -0.00546575 -0.0054412 -0.00530108 -0.00504617 -0.00467958 -0.00420676 -0.00363564 -0.00297671 -0.00224312 -0.00145062 -0.000617337 0.000236513 0.00108921 0.00191818 0.00270079 0.00341524 0.00404146 0.00456197 0.00496275 0.00523394 0.00537038 0.00537208 0.00524441 0.00499808 0.00464886 0.00421701 0.00372646 0.00320411 0.00268128 0.00220633 0.00191051 -0.00235182 -0.00254579 -0.00291979 -0.00335605 -0.00379119 -0.00418831 -0.00452377 -0.0047815 -0.00495046 -0.00502328 -0.00499549 -0.00486504 -0.00463211 -0.004299 -0.0038702 -0.00335253 -0.00275521 -0.00208995 -0.0013709 -0.000614467 0.000160976 0.00093559 0.00168867 0.00239941 0.0030477 0.00361503 0.00408533 0.00444583 0.00468775 0.00480691 0.00480409 0.00468528 0.00446163 0.00414928 0.00376914 0.00334689 0.00291404 0.00251219 0.00220506 0.00210597 -0.00227701 -0.00250014 -0.0028375 -0.0032215 -0.0036042 -0.00395387 -0.00424948 -0.00447683 -0.00462626 -0.00469122 -0.00466751 -0.0045529 -0.00434691 -0.00405084 -0.00366791 -0.00320339 -0.00266483 -0.00206209 -0.00140746 -0.000715497 -2.83385e-06 0.000712233 0.00141029 0.0020715 0.00267644 0.00320695 0.00364715 0.00398426 0.00420952 0.00431879 0.00431302 0.00419855 0.00398698 0.00369505 0.00334436 0.00296136 0.0025781 0.00223449 0.00198248 0.00188925 -0.00202133 -0.00234166 -0.00270843 -0.00308838 -0.00345243 -0.00377905 -0.00405328 -0.00426482 -0.00440659 -0.00447357 -0.00446226 -0.00437037 -0.00419678 -0.00394164 -0.00360664 -0.00319524 -0.00271296 -0.00216758 -0.00156935 -0.000930939 -0.000267359 0.000404335 0.00106553 0.00169669 0.00227823 0.00279144 0.00321957 0.00354886 0.00376959 0.00387684 0.00387113 0.00375866 0.00355126 0.00326606 0.00292495 0.00255412 0.0021837 0.00184777 0.00158386 0.00142926 -0.00170378 -0.00214145 -0.00257007 -0.00297681 -0.00334798 -0.00367254 -0.00394265 -0.00415286 -0.0042993 -0.00437889 -0.00438904 -0.00432748 -0.0041924 -0.00398267 -0.00369827 -0.00334058 -0.00291292 -0.00242079 -0.00187226 -0.00127809 -0.000651766 -9.32505e-06 0.00063104 0.0012496 0.00182594 0.00234002 0.00277338 0.00311038 0.00333944 0.00345406 0.00345356 0.00334345 0.00313535 0.00284644 0.0024986 0.00211734 0.00173049 0.00136684 0.00105399 0.000814407 -0.00140268 -0.00195994 -0.00246421 -0.00291535 -0.00331126 -0.00365016 -0.00393103 -0.00415337 -0.00431659 -0.00441964 -0.00446082 -0.00443785 -0.00434812 -0.0041891 -0.00395885 -0.00