# vtk DataFile Version 2.0
Velocidades
ASCII

DATASET STRUCTURED_GRID
DIMENSIONS   40   40   10

POINTS   16000   double
0.0125   0.0125   0.05
0.0125   0.0375   0.05
0.0125   0.0625   0.05
0.0125   0.0875   0.05
0.0125   0.1125   0.05
0.0125   0.1375   0.05
0.0125   0.1625   0.05
0.0125   0.1875   0.05
0.0125   0.2125   0.05
0.0125   0.2375   0.05
0.0125   0.2625   0.05
0.0125   0.2875   0.05
0.0125   0.3125   0.05
0.0125   0.3375   0.05
0.0125   0.3625   0.05
0.0125   0.3875   0.05
0.0125   0.4125   0.05
0.0125   0.4375   0.05
0.0125   0.4625   0.05
0.0125   0.4875   0.05
0.0125   0.5125   0.05
0.0125   0.5375   0.05
0.0125   0.5625   0.05
0.0125   0.5875   0.05
0.0125   0.6125   0.05
0.0125   0.6375   0.05
0.0125   0.6625   0.05
0.0125   0.6875   0.05
0.0125   0.7125   0.05
0.0125   0.7375   0.05
0.0125   0.7625   0.05
0.0125   0.7875   0.05
0.0125   0.8125   0.05
0.0125   0.8375   0.05
0.0125   0.8625   0.05
0.0125   0.8875   0.05
0.0125   0.9125   0.05
0.0125   0.9375   0.05
0.0125   0.9625   0.05
0.0125   0.9875   0.05
0.0375   0.0125   0.05
0.0375   0.0375   0.05
0.0375   0.0625   0.05
0.0375   0.0875   0.05
0.0375   0.1125   0.05
0.0375   0.1375   0.05
0.0375   0.1625   0.05
0.0375   0.1875   0.05
0.0375   0.2125   0.05
0.0375   0.2375   0.05
0.0375   0.2625   0.05
0.0375   0.2875   0.05
0.0375   0.3125   0.05
0.0375   0.3375   0.05
0.0375   0.3625   0.05
0.0375   0.3875   0.05
0.0375   0.4125   0.05
0.0375   0.4375   0.05
0.0375   0.4625   0.05
0.0375   0.4875   0.05
0.0375   0.5125   0.05
0.0375   0.5375   0.05
0.0375   0.5625   0.05
0.0375   0.5875   0.05
0.0375   0.6125   0.05
0.0375   0.6375   0.05
0.0375   0.6625   0.05
0.0375   0.6875   0.05
0.0375   0.7125   0.05
0.0375   0.7375   0.05
0.0375   0.7625   0.05
0.0375   0.7875   0.05
0.0375   0.8125   0.05
0.0375   0.8375   0.05
0.0375   0.8625   0.05
0.0375   0.8875   0.05
0.0375   0.9125   0.05
0.0375   0.9375   0.05
0.0375   0.9625   0.05
0.0375   0.9875   0.05
0.0625   0.0125   0.05
0.0625   0.0375   0.05
0.0625   0.0625   0.05
0.0625   0.0875   0.05
0.0625   0.1125   0.05
0.0625   0.1375   0.05
0.0625   0.1625   0.05
0.0625   0.1875   0.05
0.0625   0.2125   0.05
0.0625   0.2375   0.05
0.0625   0.2625   0.05
0.0625   0.2875   0.05
0.0625   0.3125   0.05
0.0625   0.3375   0.05
0.0625   0.3625   0.05
0.0625   0.3875   0.05
0.0625   0.4125   0.05
0.0625   0.4375   0.05
0.0625   0.4625   0.05
0.0625   0.4875   0.05
0.0625   0.5125   0.05
0.0625   0.5375   0.05
0.0625   0.5625   0.05
0.0625   0.5875   0.05
0.0625   0.6125   0.05
0.0625   0.6375   0.05
0.0625   0.6625   0.05
0.0625   0.6875   0.05
0.0625   0.7125   0.05
0.0625   0.7375   0.05
0.0625   0.7625   0.05
0.0625   0.7875   0.05
0.0625   0.8125   0.05
0.0625   0.8375   0.05
0.0625   0.8625   0.05
0.0625   0.8875   0.05
0.0625   0.9125   0.05
0.0625   0.9375   0.05
0.0625   0.9625   0.05
0.0625   0.9875   0.05
0.0875   0.0125   0.05
0.0875   0.0375   0.05
0.0875   0.0625   0.05
0.0875   0.0875   0.05
0.0875   0.1125   0.05
0.0875   0.1375   0.05
0.0875   0.1625   0.05
0.0875   0.1875   0.05
0.0875   0.2125   0.05
0.0875   0.2375   0.05
0.0875   0.2625   0.05
0.0875   0.2875   0.05
0.0875   0.3125   0.05
0.0875   0.3375   0.05
0.0875   0.3625   0.05
0.0875   0.3875   0.05
0.0875   0.4125   0.05
0.0875   0.4375   0.05
0.0875   0.4625   0.05
0.0875   0.4875   0.05
0.0875   0.5125   0.05
0.0875   0.5375   0.05
0.0875   0.5625   0.05
0.0875   0.5875   0.05
0.0875   0.6125   0.05
0.0875   0.6375   0.05
0.0875   0.6625   0.05
0.0875   0.6875   0.05
0.0875   0.7125   0.05
0.0875   0.7375   0.05
0.0875   0.7625   0.05
0.0875   0.7875   0.05
0.0875   0.8125   0.05
0.0875   0.8375   0.05
0.0875   0.8625   0.05
0.0875   0.8875   0.05
0.0875   0.9125   0.05
0.0875   0.9375   0.05
0.0875   0.9625   0.05
0.0875   0.9875   0.05
0.1125   0.0125   0.05
0.1125   0.0375   0.05
0.1125   0.0625   0.05
0.1125   0.0875   0.05
0.1125   0.1125   0.05
0.1125   0.1375   0.05
0.1125   0.1625   0.05
0.1125   0.1875   0.05
0.1125   0.2125   0.05
0.1125   0.2375   0.05
0.1125   0.2625   0.05
0.1125   0.2875   0.05
0.1125   0.3125   0.05
0.1125   0.3375   0.05
0.1125   0.3625   0.05
0.1125   0.3875   0.05
0.1125   0.4125   0.05
0.1125   0.4375   0.05
0.1125   0.4625   0.05
0.1125   0.4875   0.05
0.1125   0.5125   0.05
0.1125   0.5375   0.05
0.1125   0.5625   0.05
0.1125   0.5875   0.05
0.1125   0.6125   0.05
0.1125   0.6375   0.05
0.1125   0.6625   0.05
0.1125   0.6875   0.05
0.1125   0.7125   0.05
0.1125   0.7375   0.05
0.1125   0.7625   0.05
0.1125   0.7875   0.05
0.1125   0.8125   0.05
0.1125   0.8375   0.05
0.1125   0.8625   0.05
0.1125   0.8875   0.05
0.1125   0.9125   0.05
0.1125   0.9375   0.05
0.1125   0.9625   0.05
0.1125   0.9875   0.05
0.1375   0.0125   0.05
0.1375   0.0375   0.05
0.1375   0.0625   0.05
0.1375   0.0875   0.05
0.1375   0.1125   0.05
0.1375   0.1375   0.05
0.1375   0.1625   0.05
0.1375   0.1875   0.05
0.1375   0.2125   0.05
0.1375   0.2375   0.05
0.1375   0.2625   0.05
0.1375   0.2875   0.05
0.1375   0.3125   0.05
0.1375   0.3375   0.05
0.1375   0.3625   0.05
0.1375   0.3875   0.05
0.1375   0.4125   0.05
0.1375   0.4375   0.05
0.1375   0.4625   0.05
0.1375   0.4875   0.05
0.1375   0.5125   0.05
0.1375   0.5375   0.05
0.1375   0.5625   0.05
0.1375   0.5875   0.05
0.1375   0.6125   0.05
0.1375   0.6375   0.05
0.1375   0.6625   0.05
0.1375   0.6875   0.05
0.1375   0.7125   0.05
0.1375   0.7375   0.05
0.1375   0.7625   0.05
0.1375   0.7875   0.05
0.1375   0.8125   0.05
0.1375   0.8375   0.05
0.1375   0.8625   0.05
0.1375   0.8875   0.05
0.1375   0.9125   0.05
0.1375   0.9375   0.05
0.1375   0.9625   0.05
0.1375   0.9875   0.05
0.1625   0.0125   0.05
0.1625   0.0375   0.05
0.1625   0.0625   0.05
0.1625   0.0875   0.05
0.1625   0.1125   0.05
0.1625   0.1375   0.05
0.1625   0.1625   0.05
0.1625   0.1875   0.05
0.1625   0.2125   0.05
0.1625   0.2375   0.05
0.1625   0.2625   0.05
0.1625   0.2875   0.05
0.1625   0.3125   0.05
0.1625   0.3375   0.05
0.1625   0.3625   0.05
0.1625   0.3875   0.05
0.1625   0.4125   0.05
0.1625   0.4375   0.05
0.1625   0.4625   0.05
0.1625   0.4875   0.05
0.1625   0.5125   0.05
0.1625   0.5375   0.05
0.1625   0.5625   0.05
0.1625   0.5875   0.05
0.1625   0.6125   0.05
0.1625   0.6375   0.05
0.1625   0.6625   0.05
0.1625   0.6875   0.05
0.1625   0.7125   0.05
0.1625   0.7375   0.05
0.1625   0.7625   0.05
0.1625   0.7875   0.05
0.1625   0.8125   0.05
0.1625   0.8375   0.05
0.1625   0.8625   0.05
0.1625   0.8875   0.05
0.1625   0.9125   0.05
0.1625   0.9375   0.05
0.1625   0.9625   0.05
0.1625   0.9875   0.05
0.1875   0.0125   0.05
0.1875   0.0375   0.05
0.1875   0.0625   0.05
0.1875   0.0875   0.05
0.1875   0.1125   0.05
0.1875   0.1375   0.05
0.1875   0.1625   0.05
0.1875   0.1875   0.05
0.1875   0.2125   0.05
0.1875   0.2375   0.05
0.1875   0.2625   0.05
0.1875   0.2875   0.05
0.1875   0.3125   0.05
0.1875   0.3375   0.05
0.1875   0.3625   0.05
0.1875   0.3875   0.05
0.1875   0.4125   0.05
0.1875   0.4375   0.05
0.1875   0.4625   0.05
0.1875   0.4875   0.05
0.1875   0.5125   0.05
0.1875   0.5375   0.05
0.1875   0.5625   0.05
0.1875   0.5875   0.05
0.1875   0.6125   0.05
0.1875   0.6375   0.05
0.1875   0.6625   0.05
0.1875   0.6875   0.05
0.1875   0.7125   0.05
0.1875   0.7375   0.05
0.1875   0.7625   0.05
0.1875   0.7875   0.05
0.1875   0.8125   0.05
0.1875   0.8375   0.05
0.1875   0.8625   0.05
0.1875   0.8875   0.05
0.1875   0.9125   0.05
0.1875   0.9375   0.05
0.1875   0.9625   0.05
0.1875   0.9875   0.05
0.2125   0.0125   0.05
0.2125   0.0375   0.05
0.2125   0.0625   0.05
0.2125   0.0875   0.05
0.2125   0.1125   0.05
0.2125   0.1375   0.05
0.2125   0.1625   0.05
0.2125   0.1875   0.05
0.2125   0.2125   0.05
0.2125   0.2375   0.05
0.2125   0.2625   0.05
0.2125   0.2875   0.05
0.2125   0.3125   0.05
0.2125   0.3375   0.05
0.2125   0.3625   0.05
0.2125   0.3875   0.05
0.2125   0.4125   0.05
0.2125   0.4375   0.05
0.2125   0.4625   0.05
0.2125   0.4875   0.05
0.2125   0.5125   0.05
0.2125   0.5375   0.05
0.2125   0.5625   0.05
0.2125   0.5875   0.05
0.2125   0.6125   0.05
0.2125   0.6375   0.05
0.2125   0.6625   0.05
0.2125   0.6875   0.05
0.2125   0.7125   0.05
0.2125   0.7375   0.05
0.2125   0.7625   0.05
0.2125   0.7875   0.05
0.2125   0.8125   0.05
0.2125   0.8375   0.05
0.2125   0.8625   0.05
0.2125   0.8875   0.05
0.2125   0.9125   0.05
0.2125   0.9375   0.05
0.2125   0.9625   0.05
0.2125   0.9875   0.05
0.2375   0.0125   0.05
0.2375   0.0375   0.05
0.2375   0.0625   0.05
0.2375   0.0875   0.05
0.2375   0.1125   0.05
0.2375   0.1375   0.05
0.2375   0.1625   0.05
0.2375   0.1875   0.05
0.2375   0.2125   0.05
0.2375   0.2375   0.05
0.2375   0.2625   0.05
0.2375   0.2875   0.05
0.2375   0.3125   0.05
0.2375   0.3375   0.05
0.2375   0.3625   0.05
0.2375   0.3875   0.05
0.2375   0.4125   0.05
0.2375   0.4375   0.05
0.2375   0.4625   0.05
0.2375   0.4875   0.05
0.2375   0.5125   0.05
0.2375   0.5375   0.05
0.2375   0.5625   0.05
0.2375   0.5875   0.05
0.2375   0.6125   0.05
0.2375   0.6375   0.05
0.2375   0.6625   0.05
0.2375   0.6875   0.05
0.2375   0.7125   0.05
0.2375   0.7375   0.05
0.2375   0.7625   0.05
0.2375   0.7875   0.05
0.2375   0.8125   0.05
0.2375   0.8375   0.05
0.2375   0.8625   0.05
0.2375   0.8875   0.05
0.2375   0.9125   0.05
0.2375   0.9375   0.05
0.2375   0.9625   0.05
0.2375   0.9875   0.05
0.2625   0.0125   0.05
0.2625   0.0375   0.05
0.2625   0.0625   0.05
0.2625   0.0875   0.05
0.2625   0.1125   0.05
0.2625   0.1375   0.05
0.2625   0.1625   0.05
0.2625   0.1875   0.05
0.2625   0.2125   0.05
0.2625   0.2375   0.05
0.2625   0.2625   0.05
0.2625   0.2875   0.05
0.2625   0.3125   0.05
0.2625   0.3375   0.05
0.2625   0.3625   0.05
0.2625   0.3875   0.05
0.2625   0.4125   0.05
0.2625   0.4375   0.05
0.2625   0.4625   0.05
0.2625   0.4875   0.05
0.2625   0.5125   0.05
0.2625   0.5375   0.05
0.2625   0.5625   0.05
0.2625   0.5875   0.05
0.2625   0.6125   0.05
0.2625   0.6375   0.05
0.2625   0.6625   0.05
0.2625   0.6875   0.05
0.2625   0.7125   0.05
[...]
POINT_DATA   16000
VECTORS Velocidades double

0 0.321026 0
0 0.73349 0
0 0.857791 0
0 0.90566 0
0 0.928949 0
0 0.942421 0
0 0.951137 0
0 0.957188 0
0 0.961587 0
0 0.964882 0
0 0.967401 0
0 0.969349 0
0 0.970861 0
0 0.972029 0
0 0.972917 0
0 0.97357 0
0 0.97402 0
0 0.974289 0
0 0.974391 0
0 0.974334 0
0 0.974123 0
0 0.973753 0
0 0.973219 0
0 0.972506 0
0 0.971597 0
0 0.970463 0
0 0.969067 0
0 0.967356 0
0 0.965258 0
0 0.96267 0
0 0.959445 0
0 0.955361 0
0 0.95007 0
0 0.942989 0
0 0.933055 0
0 0.918088 0
0 0.892848 0
0 0.842312 0
0 0.715274 0
0 0.311323 0
0 0.187117 0
0 0.481187 0
0 0.647104 0
0 0.740352 0
0 0.796022 0
0 0.831642 0
0 0.855838 0
0 0.87306 0
0 0.885753 0
0 0.895346 0
0 0.90272 0
0 0.908444 0
0 0.912899 0
0 0.916347 0
0 0.918972 0
0 0.920904 0
0 0.922237 0
0 0.923033 0
0 0.923334 0
0 0.923166 0
0 0.922536 0
0 0.921439 0
0 0.919852 0
0 0.91774 0
0 0.915046 0
0 0.91169 0
0 0.907564 0
0 0.902516 0
0 0.896342 0
0 0.888753 0
0 0.879336 0
0 0.867485 0
0 0.852278 0
0 0.832241 0
0 0.804894 0
0 0.765809 0
0 0.706607 0
0 0.610846 0
0 0.447269 0
0 0.171722 0
0 0.127017 0
0 0.347377 0
0 0.504 0
0 0.609805 0
0 0.681493 0
0 0.731256 0
0 0.76684 0
0 0.793007 0
0 0.812704 0
0 0.827804 0
0 0.839526 0
0 0.848689 0
0 0.855858 0
0 0.861427 0
0 0.865678 0
0 0.868813 0
0 0.870977 0
0 0.87227 0
0 0.872758 0
0 0.87248 0
0 0.871449 0
0 0.869656 0
0 0.867069 0
0 0.863628 0
0 0.859247 0
0 0.853801 0
0 0.847124 0
0 0.838985 0
0 0.829074 0
0 0.816966 0
0 0.802063 0
0 0.783519 0
0 0.760097 0
0 0.729949 0
0 0.690237 0
0 0.636531 0
0 0.561935 0
0 0.456291 0
0 0.307329 0
0 0.110223 0
0 0.0951443 0
0 0.268407 0
0 0.406109 0
0 0.509855 0
0 0.586636 0
0 0.643569 0
0 0.686259 0
0 0.718727 0
0 0.743762 0
0 0.763285 0
0 0.778633 0
0 0.790742 0
0 0.800279 0
0 0.807727 0
0 0.813433 0
0 0.817653 0
0 0.820569 0
0 0.82231 0
0 0.822964 0
0 0.822579 0
0 0.821175 0
0 0.818739 0
0 0.81523 0
0 0.810573 0
0 0.804657 0
0 0.797327 0
0 0.788373 0
0 0.777513 0
0 0.764372 0
0 0.748447 0
0 0.729055 0
0 0.705265 0
0 0.675792 0
0 0.638842 0
0 0.591926 0
0 0.531641 0
0 0.45361 0
0 0.352994 0
0 0.226656 0
0 0.078438 0
0 0.0758124 0
0 0.217342 0
0 0.336831 0
0 0.43321 0
0 0.509121 0
0 0.568393 0
0 0.614686 0
0 0.651016 0
0 0.679704 0
0 0.702486 0
0 0.720642 0
0 0.735117 0
0 0.74661 0
0 0.755638 0
0 0.762587 0
0 0.76774 0
0 0.771308 0
0 0.773438 0
0 0.774231 0
0 0.773745 0
0 0.772003 0
0 0.768991 0
0 0.764663 0
0 0.758933 0
0 0.751677 0
0 0.74272 0
0 0.73183 0
0 0.718701 0
0 0.702932 0
0 0.684002 0
0 0.66123 0
0 0.633727 0
0 0.600334 0
0 0.559559 0
0 0.509528 0
0 0.448019 0
0 0.37271 0
0 0.281894 0
0 0.17598 0
0 0.0597471 0
0 0.0628527 0
0 0.181799 0
0 0.285823 0
0 0.373518 0
0 0.445711 0
0 0.504366 0
0 0.551749 0
0 0.589975 0
0 0.620837 0
0 0.64578 0
0 0.665935 0
0 0.68218 0
0 0.695188 0
0 0.705473 0
0 0.713427 0
0 0.719347 0
0 0.723452 0
0 0.725902 0
0 0.726805 0
0 0.726225 0
0 0.724186 0
0 0.720677 0
0 0.715649 0
0 0.709011 0
0 0.700635 0
0 0.69034 0
0 0.677889 0
0 0.662976 0
0 0.645212 0
0 0.624101 0
0 0.599026 0
0 0.569215 0
0 0.533728 0
0 0.491446 0
0 0.441114 0
0 0.381465 0
0 0.311519 0
0 0.231133 0
0 0.141827 0
0 0.0476341 0
0 0.0535096 0
0 0.155593 0
0 0.246842 0
0 0.326071 0
0 0.393398 0
0 0.449791 0
0 0.496608 0
0 0.535278 0
0 0.567122 0
0 0.593281 0
0 0.614702 0
0 0.632153 0
0 0.646245 0
0 0.657462 0
0 0.666181 0
0 0.672693 0
0 0.677217 0
0 0.679915 0
0 0.680896 0
0 0.680229 0
0 0.677941 0
0 0.674019 0
0 0.668417 0
0 0.661048 0
0 0.651782 0
0 0.640447 0
0 0.626815 0
0 0.610601 0
0 0.591448 0
0 0.568922 0
0 0.542498 0
0 0.511558 0
0 0.475396 0
0 0.433247 0
0 0.384359 0
0 0.32813 0
0 0.264355 0
0 0.193574 0
0 0.11748 0
0 0.039201 0
0 0.0464055 0
0 0.135387 0
0 0.216067 0
0 0.287559 0
0 0.349732 0
0 0.403036 0
0 0.448272 0
0 0.486379 0
0 0.518304 0
0 0.544916 0
0 0.566978 0
0 0.585133 0
0 0.599916 0
0 0.61176 0
0 0.621012 0
0 0.627945 0
0 0.632771 0
0 0.635644 0
0 0.636676 0
0 0.635931 0
0 0.63344 0
0 0.629193 0
0 0.623147 0
0 0.61522 0
0 0.605294 0
0 0.593209 0
0 0.57876 0
0 0.561692 0
0 0.541701 0
0 0.518422 0
0 0.491441 0
0 0.460291 0
0 0.424483 0
0 0.38354 0
0 0.337077 0
0 0.284916 0
0 0.227256 0
0 0.164878 0
0 0.0993335 0
0 0.0330084 0
0 0.0407847 0
0 0.119254 0
0 0.191099 0
0 0.255686 0
0 0.312822 0
0 0.362696 0
0 0.40577 0
0 0.442655 0
0 0.474013 0
0 0.500493 0
0 0.522689 0
0 0.541126 0
0 0.556255 0
0 0.568451 0
0 0.578024 0
0 0.585221 0
0 0.590238 0
0 0.593221 0
0 0.594274 0
0 0.593462 0
0 0.590816 0
0 0.586329 0
0 0.579963 0
0 0.571648 0
0 0.561278 0
0 0.548712 0
0 0.533774 0
0 0.516251 0
0 0.49589 0
0 0.472406 0
0 0.445488 0
0 0.414808 0
0 0.380053 0
0 0.340967 0
0 0.297412 0
0 0.249458 0
0 0.197493 0
0 0.142337 0
0 0.0853194 0
0 0.0282725 0
0 0.0362002 0
0 0.106014 0
0 0.170375 0
0 0.228846 0
0 0.281238 0
0 0.327614 0
0 0.368233 0
0 0.403489 0
0 0.433838 0
0 0.459753 0
0 0.48169 0
0 0.500066 0
0 0.515252 0
0 0.527564 0
0 0.537271 0
0 0.544592 0
0 0.549701 0
0 0.552733 0
0 0.553784 0
0 0.552916 0
0 0.55016 0
0 0.545513 0
0 0.538945 0
0 0.530396 0
0 0.519778 0
0 0.506972 0
0 0.491833 0
0 0.47419 0
0 0.453846 0
0 0.430589 0
0 0.404198 0
0 0.374463 0
0 0.341209 0
0 0.304333 0
0 0.263857 0
0 0.219986 0
0 0.173179 0
0 0.124206 0
0 0.0741822 0
0 0.0245339 0
0 0.0323712 0
0 0.0949067 0
0 0.15285 0
0 0.205902 0
0 0.253906 0
0 0.296863 0
0 0.334916 0
0 0.368312 0
0 0.397362 0
0 0.422408 0
0 0.443793 0
0 0.461841 0
0 0.47685 0
0 0.489084 0
0 0.498767 0
0 0.50609 0
0 0.511206 0
0 0.514234 0
0 0.515264 0
0 0.514351 0
0 0.511527 0
0 0.506794 0
0 0.500129 0
0 0.491485 0
0 0.48079 0
0 0.46795 0
0 0.452852 0
0 0.435364 0
0 0.415342 0
0 0.392637 0
0 0.367107 0
0 0.338632 0
0 0.307139 0
0 0.27263 0
0 0.235223 0
0 0.195187 0
0 0.152991 0
0 0.109327 0
0 0.0651217 0
0 0.0215068 0
0 0.0291125 0
0 0.0854237 0
0 0.137796 0
0 0.186034 0
0 0.230012 0
0 0.269707 0
0 0.305191 0
0 0.336618 0
0 0.364196 0
0 0.388169 0
0 0.40879 0
0 0.426309 0
0 0.440961 0
0 0.452958 0
0 0.462489 0
0 0.469714 0
0 0.474765 0
0 0.477746 0
0 0.478737 0
0 0.477792 0
0 0.474938 0
0 0.470184 0
0 0.463515 0
0 0.454894 0
0 0.444268 0
0 0.431567 0
0 0.416707 0
0 0.399591 0
0 0.380123 0
0 0.358207 0
0 0.333763 0
0 0.30674 0
0 0.277137 0
0 0.245026 0
0 0.210575 0
0 0.17408 0
0 0.135987 0
0 0.0969053 0
0 0.0576068 0
0 0.0190049 0
0 0.0262968 0
0 0.0772104 0
0 0.124699 0
0 0.168639 0
0 0.208937 0
0 0.24556 0
0 0.27854 0
0 0.307968 0
0 0.333984 0
0 0.356756 0
0 0.37647 0
0 0.393314 0
0 0.407471 0
0 0.419111 0
0 0.428388 0
0 0.435434 0
0 0.440362 0
0 0.443262 0
0 0.444203 0
0 0.443235 0
0 0.440387 0
0 0.435668 0
0 0.429072 0
0 0.420575 0
0 0.410139 0
0 0.397716 0
0 0.383246 0
0 0.366669 0
0 0.347924 0
0 0.326959 0
0 0.303742 0
0 0.278275 0
0 0.250604 0
0 0.220843 0
0 0.189185 0
0 0.155929 0
0 0.121484 0
0 0.0863827 0
0 0.0512724 0
0 0.0169015 0
0 0.0238336 0
0 0.0700125 0
0 0.113181 0
0 0.153267 0
0 0.190204 0
0 0.223956 0
0 0.254533 0
0 0.281986 0
0 0.306406 0
0 0.327906 0
0 0.346622 0
0 0.362692 0
0 0.376257 0
0 0.38745 0
0 0.396395 0
0 0.4032 0
0 0.40796 0
0 0.410752 0
0 0.411636 0
0 0.410656 0
0 0.407842 0
0 0.403205 0
0 0.396748 0
0 0.388455 0
0 0.378305 0
0 0.366267 0
0 0.352306 0
0 0.336388 0
0 0.318482 0
0 0.298573 0
0 0.276664 0
0 0.252791 0
0 0.227035 0
0 0.19953 0
0 0.170481 0
0 0.140173 0
0 0.108977 0
0 0.0773571 0
0 0.04586 0
0 0.0151079 0
0 0.021657 0
0 0.0636428 0
0 0.102961 0
0 0.139575 0
0 0.173438 0
0 0.20452 0
0 0.232816 0
0 0.258351 0
0 0.28118 0
0 0.301381 0
0 0.319047 0
0 0.33428 0
0 0.347186 0
0 0.357869 0
0 0.366426 0
0 0.372945 0
0 0.377504 0
0 0.380168 0
0 0.380989 0
0 0.380007 0
0 0.377251 0
0 0.372737 0
0 0.366469 0
0 0.358445 0
0 0.348655 0
0 0.337084 0
0 0.323717 0
0 0.30854 0
0 0.29155 0
0 0.272755 0
0 0.252186 0
0 0.229903 0
0 0.206006 0
0 0.18064 0
0 0.15401 0
0 0.126381 0
0 0.0980872 0
0 0.069532 0
0 0.0411818 0
0 0.01356 0
0 0.0197172 0
0 0.0579601 0
0 0.093823 0
0 0.127295 0
0 0.158347 0
0 0.18695 0
0 0.213094 0
0 0.236787 0
0 0.25806 0
0 0.276962 0
0 0.293558 0
0 0.30792 0
0 0.320128 0
0 0.330258 0
0 0.338389 0
0 0.34459 0
0 0.348924 0
0 0.351446 0
0 0.352202 0
0 0.351228 0
0 0.348551 0
0 0.344188 0
0 0.338151 0
0 0.330445 0
0 0.321069 0
0 0.310024 0
0 0.297307 0
0 0.282926 0
0 0.266893 0
0 0.249237 0
0 0.230008 0
0 0.209281 0
0 0.187165 0
0 0.163811 0
0 0.139413 0
0 0.114218 0
0 0.088525 0
0 0.0626845 0
0 0.0370978 0
0 0.0122105 0
0 0.0179763 0
0 0.0528556 0
0 0.0856009 0
0 0.11622 0
0 0.144693 0
0 0.170999 0
0 0.195122 0
0 0.21706 0
0 0.236828 0
0 0.254454 0
0 0.269982 0
0 0.283461 0
0 0.294948 0
0 0.304503 0
0 0.312183 0
0 0.318045 0
0 0.32214 0
0 0.324514 0
0 0.325205 0
0 0.324246 0
0 0.321663 0
0 0.317476 0
0 0.3117 0
0 0.304346 0
0 0.295423 0
0 0.284941 0
0 0.272912 0
0 0.259354 0
0 0.244296 0
0 0.22778 0
0 0.209867 0
0 0.190641 0
0 0.170218 0
0 0.148743 0
0 0.126403 0
0 0.103422 0
0 0.0800662 0
0 0.0566441 0
0 0.0335023 0
0 0.0110235 0
0 0.0164046 0
0 0.0482438 0
0 0.0781622 0
0 0.106179 0
0 0.132285 0
0 0.156462 0
0 0.178693 0
0 0.198968 0
0 0.217293 0
0 0.233681 0
0 0.248157 0
0 0.260757 0
0 0.271519 0
0 0.280488 0
0 0.287706 0
0 0.293219 0
0 0.297067 0
0 0.299287 0
0 0.299915 0
0 0.298978 0
0 0.296502 0
0 0.292508 0
0 0.287014 0
0 0.280036 0
0 0.271591 0
0 0.261696 0
0 0.250372 0
0 0.237649 0
0 0.223564 0
0 0.208169 0
0 0.191532 0
0 0.173743 0
0 0.154916 0
0 0.135193 0
0 0.114746 0
0 0.0937807 0
0 0.0725346 0
0 0.0512781 0
0 0.0303132 0
0 0.00997163 0
0 0.0149784 0
0 0.0440564 0
0 0.0714005 0
0 0.0970377 0
0 0.120966 0
0 0.143169 0
0 0.163631 0
0 0.182338 0
0 0.199287 0
0 0.214483 0
0 0.227938 0
0 0.239674 0
0 0.249718 0
0 0.258101 0
0 0.264855 0
0 0.270015 0
0 0.273613 0
0 0.27568 0
0 0.276246 0
0 0.275337 0
0 0.272977 0
0 0.269188 0
0 0.26399 0
0 0.257403 0
0 0.249449 0
0 0.240151 0
0 0.229538 0
0 0.217645 0
0 0.204517 0
0 0.190212 0
0 0.174802 0
0 0.158378 0
0 0.141051 0
0 0.122956 0
0 0.104252 0
0 0.0851259 0
0 0.0657895 0
0 0.0464815 0
0 0.0274662 0
0 0.00903318 0
0 0.0136784 0
0 0.0402379 0
0 0.0652289 0
0 0.0886831 0
0 0.110603 0
0 0.130976 0
0 0.149787 0
0 0.167019 0
0 0.182663 0
0 0.196718 0
0 0.209188 0
0 0.220085 0
0 0.229425 0
0 0.237231 0
0 0.243525 0
0 0.248334 0
0 0.251684 0
0 0.253601 0
0 0.254109 0
0 0.253233 0
0 0.250995 0
0 0.247418 0
0 0.242523 0
0 0.236334 0
0 0.228876 0
0 0.220175 0
0 0.210267 0
0 0.199191 0
0 0.186995 0
0 0.173741 0
0 0.159502 0
0 0.144369 0
0 0.128447 0
0 0.111863 0
0 0.0947642 0
0 0.0773192 0
0 0.0597175 0
0 0.0421703 0
0 0.0249101 0
0 0.00819107 0
0 0.0124888 0
0 0.0367426 0
0 0.0595752 0
0 0.0810215 0
0 0.101087 0
0 0.119762 0
0 0.137031 0
0 0.152877 0
0 0.167288 0
0 0.180258 0
0 0.191784 0
0 0.201871 0
0 0.210529 0
0 0.217771 0
0 0.223616 0
0 0.228081 0
0 0.231188 0
0 0.232958 0
0 0.233412 0
0 0.232572 0
0 0.230461 0
0 0.227099 0
0 0.222511 0
0 0.21672 0
0 0.209755 0
0 0.201645 0
0 0.192428 0
0 0.182146 0
0 0.170851 0
0 0.158604 0
0 0.145478 0
0 0.13156 0
0 0.116952 0
0 0.101771 0
0 0.0861517 0
0 0.0702467 0
0 0.0542257 0
0 0.0382761 0
0 0.0226033 0
0 0.00743144 0
0 0.0113965 0
0 0.033532 0
0 0.054379 0
0 0.0739734 0
0 0.0923231 0
0 0.10942 0
0 0.12525 0
0 0.139797 0
0 0.153045 0
0 0.164984 0
0 0.17561 0
0 0.184921 0
0 0.192921 0
0 0.19962 0
0 0.205027 0
0 0.209158 0
0 0.212029 0
0 0.213658 0
0 0.214062 0
0 0.213263 0
0 0.211279 0
0 0.208134 0
0 0.203851 0
0 0.198455 0
0 0.191975 0
0 0.184444 0
0 0.175899 0
0 0.166385 0
0 0.155954 0
0 0.144666 0
0 0.132594 0
0 0.119819 0
0 0.106438 0
0 0.0925585 0
0 0.0783047 0
0 0.0638136 0
0 0.0492374 0
0 0.0347427 0
0 0.0205118 0
0 0.00674297 0
0 0.0103903 0
0 0.0305737 0
0 0.0495887 0
0 0.0674711 0
0 0.0842303 0
0 0.0998602 0
0 0.114347 0
0 0.127674 0
0 0.139827 0
0 0.150792 0
0 0.160562 0
0 0.169132 0
0 0.176502 0
0 0.182677 0
0 0.187664 0
0 0.191473 0
0 0.194117 0
0 0.19561 0
0 0.195969 0
0 0.195211 0
0 0.193357 0
0 0.190427 0
0 0.186444 0
0 0.181435 0
0 0.175429 0
0 0.16846 0
0 0.160565 0
0 0.151789 0
0 0.142183 0
0 0.131807 0
0 0.120729 0
0 0.109028 0
0 0.0967921 0
0 0.0841222 0
0 0.0711302 0
0 0.0579401 0
0 0.0446883 0
0 0.0315235 0
0 0.0186074 0
0 0.0061163 0
0 0.00946064 0
0 0.0278398 0
0 0.0451598 0
0 0.0614558 0
0 0.0767378 0
0 0.091001 0
0 0.104233 0
0 0.116417 0
0 0.127539 0
0 0.137584 0
0 0.146542 0
0 0.154407 0
0 0.161177 0
0 0.166851 0
0 0.171434 0
0 0.174934 0
0 0.17736 0
0 0.178725 0
0 0.179042 0
0 0.178329 0
0 0.176602 0
0 0.173883 0
0 0.170195 0
0 0.165564 0
0 0.160018 0
0 0.153591 0
0 0.14632 0
0 0.13825 0
0 0.129431 0
0 0.119919 0
0 0.109779 0
0 0.0990845 0
0 0.0879183 0
0 0.0763724 0
0 0.0645484 0
0 0.0525583 0
0 0.0405242 0
0 0.0285789 0
0 0.0168664 0
0 0.00554356 0
0 0.00859915 0
0 0.0253059 0
0 0.0410537 0
0 0.055876 0
0 0.0697834 0
0 0.0827719 0
0 0.0948299 0
0 0.105942 0
0 0.116094 0
0 0.125271 0
0 0.133461 0
0 0.140657 0
0 0.146854 0
0 0.15205 0
0 0.156249 0
0 0.159453 0
0 0.161672 0
0 0.162915 0
0 0.163195 0
0 0.162526 0
0 0.160926 0
0 0.158414 0
0 0.155013 0
0 0.150747 0
0 0.145645 0
0 0.139739 0
0 0.133067 0
0 0.125671 0
0 0.117599 0
0 0.108904 0
0 0.0996474 0
0 0.0898978 0
0 0.079731 0
0 0.0692312 0
0 0.0584906 0
0 0.0476099 0
0 0.0366988 0
0 0.0258756 0
0 0.0152688 0
0 0.00501809 0
0 0.00779857 0
0 0.0229509 0
0 0.0372362 0
0 0.0506863 0
0 0.0633116 0
0 0.0751091 0
0 0.086068 0
0 0.0961744 0
0 0.105413 0
0 0.11377 0
0 0.121234 0
0 0.127796 0
0 0.133449 0
0 0.138191 0
0 0.142022 0
0 0.144946 0
0 0.146968 0
0 0.148096 0
0 0.148342 0
0 0.147719 0
0 0.146243 0
0 0.143932 0
0 0.140808 0
0 0.136895 0
0 0.13222 0
0 0.126815 0
0 0.120715 0
0 0.113961 0
0 0.106597 0
0 0.0986746 0
0 0.0902503 0
0 0.0813872 0
0 0.0721552 0
0 0.0626305 0
0 0.0528968 0
0 0.0430446 0
0 0.0331719 0
0 0.0233847 0
0 0.0137972 0
0 0.00453418 0
0 0.00705243 0
0 0.0207558 0
0 0.033677 0
0 0.0458461 0
0 0.057273 0
0 0.0679554 0
0 0.0778836 0
0 0.0870444 0
0 0.0954236 0
0 0.103008 0
0 0.109785 0
0 0.115745 0
0 0.120882 0
0 0.125193 0
0 0.128675 0
0 0.131331 0
0 0.133166 0
0 0.134186 0
0 0.134401 0
0 0.133824 0
0 0.13247 0
0 0.130354 0
0 0.127498 0
0 0.123925 0
0 0.11966 0
0 0.114734 0
0 0.109179 0
0 0.103035 0
0 0.0963433 0
0 0.089151 0
0 0.0815108 0
0 0.0734806 0
0 0.0651239 0
0 0.0565101 0
0 0.0477144 0
0 0.0388181 0
0 0.0299089 0
0 0.0210811 0
0 0.0124368 0
0 0.0040869 0
0 0.00635494 0
0 0.0187035 0
0 0.0303489 0
0 0.0413188 0
0 0.0516228 0
0 0.0612589 0
0 0.0702184 0
0 0.0784893 0
0 0.086058 0
0 0.0929116 0
0 0.0990387 0
0 0.10443 0
0 0.109077 0
0 0.112978 0
0 0.116128 0
0 0.118531 0
0 0.120188 0
0 0.121107 0
0 0.121295 0
0 0.120764 0
0 0.119527 0
0 0.1176 0
0 0.115002 0
0 0.111755 0
0 0.107883 0
0 0.103415 0
0 0.0983808 0
0 0.0928168 0
0 0.0867622 0
0 0.0802604 0
0 0.0733597 0
0 0.0661129 0
0 0.0585776 0
0 0.0508163 0
0 0.0428967 0
0 0.0348915 0
0 0.0268789 0
0 0.018943 0
0 0.0111745 0
0 0.00367191 0
0 0.00570086 0
0 0.0167789 0
0 0.0272272 0
0 0.0370713 0
0 0.0463201 0
0 0.054972 0
0 0.0630193 0
0 0.0704508 0
0 0.077254 0
0 0.0834169 0
0 0.0889284 0
0 0.0937793 0
0 0.0979624 0
0 0.101473 0
0 0.104309 0
0 0.10647 0
0 0.10796 0
0 0.108783 0
0 0.108947 0
0 0.108461 0
0 0.107339 0
0 0.105594 0
0 0.103245 0
0 0.100311 0
0 0.0968154 0
0 0.092784 0
0 0.088246 0
0 0.083234 0
0 0.077784 0
0 0.071936 0
0 0.0657338 0
0 0.0592253 0
0 0.0524623 0
0 0.0455011 0
0 0.0384021 0
0 0.0312303 0
0 0.024055 0
0 0.016951 0
0 0.00999861 0
0 0.0032854 0
0 0.00508543 0
0 0.0149678 0
0 0.0242894 0
0 0.0330731 0
0 0.0413274 0
0 0.0490509 0
0 0.0562368 0
0 0.0628748 0
0 0.0689536 0
0 0.074462 0
0 0.0793896 0
0 0.0837276 0
0 0.0874691 0
0 0.0906094 0
0 0.0931458 0
0 0.0950783 0
0 0.0964087 0
0 0.0971416 0
0 0.0972834 0
0 0.096843 0
0 0.0958318 0
0 0.0942631 0
0 0.0921529 0
0 0.0895197 0
0 0.0863845 0
0 0.0827711 0
0 0.0787063 0
0 0.0742197 0
0 0.0693444 0
0 0.0641163 0
0 0.0585752 0
0 0.052764 0
0 0.0467292 0
0 0.040521 0
0 0.0341932 0
0 0.0278032 0
0 0.0214127 0
0 0.0150876 0
0 0.00889893 0
0 0.00292396 0
0 0.00450425 0
0 0.0132575 0
0 0.0215146 0
0 0.0292962 0
0 0.03661 0
0 0.043455 0
0 0.049825 0
0 0.0557108 0
0 0.0611023 0
0 0.065989 0
0 0.0703616 0
0 0.0742117 0
0 0.0775328 0
0 0.0803204 0
0 0.0825717 0
0 0.0842863 0
0 0.0854656 0
0 0.0861135 0
0 0.0862356 0
0 0.0858399 0
0 0.0849364 0
0 0.0835374 0
0 0.0816572 0
0 0.0793128 0
0 0.076523 0
0 0.0733097 0
0 0.0696969 0
0 0.0657115 0
0 0.0613832 0
0 0.0567444 0
0 0.0518304 0
0 0.0466797 0
0 0.0413336 0
0 0.0358364 0
0 0.0302357 0
0 0.0245822 0
0 0.0189301 0
0 0.0133373 0
0 0.00786613 0
0 0.00258454 0
0 0.00395327 0
0 0.0116359 0
0 0.0188835 0
0 0.0257145 0
0 0.0321358 0
0 0.0381464 0
0 0.043741 0
0 0.0489115 0
0 0.0536487 0
0 0.0579433 0
0 0.0617868 0
0 0.0651716 0
0 0.0680916 0
0 0.0705425 0
0 0.0725217 0
0 0.0740285 0
0 0.0750641 0
0 0.0756315 0
0 0.0757359 0
0 0.0753842 0
0 0.0745853 0
0 0.0733502 0
0 0.0716917 0
0 0.0696249 0
0 0.0671669 0
0 0.0643371 0
0 0.061157 0
0 0.0576507 0
0 0.0538445 0
0 0.0497671 0
0 0.04545 0
0 0.0409269 0
0 0.0362343 0
0 0.031411 0
0 0.0264987 0
0 0.0215417 0
0 0.0165872 0
0 0.0116858 0
0 0.00689179 0
0 0.00226435 0
0 0.00342867 0
0 0.0100919 0
0 0.0163782 0
0 0.0223037 0
0 0.0278743 0
0 0.0330894 0
0 0.0379443 0
0 0.042432 0
0 0.0465443 0
0 0.0502731 0
0 0.0536106 0
0 0.0565501 0
0 0.0590863 0
0 0.061215 0
0 0.0629338 0
0 0.0642419 0
0 0.0651402 0
0 0.0656314 0
0 0.0657198 0
0 0.0654114 0
0 0.0647141 0
0 0.0636375 0
0 0.0621929 0
0 0.0603937 0
0 0.0582549 0
0 0.0557937 0
0 0.053029 0
0 0.0499818 0
0 0.0466754 0
0 0.0431349 0
0 0.0393877 0
0 0.0354633 0
0 0.0313931 0
0 0.0272111 0
0 0.0229533 0
0 0.0186578 0
0 0.0143656 0
0 0.0101201 0
0 0.00596817 0
0 0.00196085 0
0 0.0029269 0
0 0.0086151 0
0 0.0139817 0
0 0.0190406 0
0 0.023797 0
0 0.0282504 0
0 0.0323967 0
0 0.0362298 0
0 0.0397429 0
0 0.0429287 0
0 0.0457806 0
0 0.0482927 0
0 0.0504601 0
0 0.0522793 0
0 0.053748 0
0 0.0548655 0
0 0.0556324 0
0 0.0560509 0
0 0.0561247 0
0 0.055859 0
0 0.0552605 0
0 0.0543376 0
0 0.0531001 0
0 0.0515594 0
0 0.0497287 0
0 0.0476227 0
0 0.0452579 0
0 0.0426524 0
0 0.0398262 0
0 0.036801 0
0 0.0336002 0
0 0.030249 0
0 0.0267746 0
0 0.0232056 0
0 0.0195728 0
0 0.0159088 0
0 0.0122482 0
0 0.00862806 0
0 0.00508812 0
0 0.00167168 0
0 0.00244456 0
0 0.00719541 0
0 0.0116778 0
0 0.0159034 0
0 0.0198767 0
0 0.0235971 0
0 0.0270614 0
0 0.0302644 0
0 0.0332002 0
0 0.0358628 0
0 0.0382466 0
0 0.0403465 0
0 0.0421583 0
0 0.0436791 0
0 0.0449067 0
0 0.0458405 0
0 0.046481 0
0 0.0468299 0
0 0.0468904 0
0 0.0466667 0
0 0.0461647 0
0 0.0453911 0
0 0.0443545 0
0 0.0430644 0
0 0.041532 0
0 0.0397697 0
0 0.0377915 0
0 0.0356125 0
0 0.0332496 0
0 0.030721 0
0 0.0280463 0
0 0.0252468 0
0 0.022345 0
0 0.019365 0
0 0.0163323 0
0 0.0132741 0
0 0.0102192 0
0 0.0071985 0
0 0.00424497 0
0 0.00139465 0
0 0.00197841 0
0 0.00582339 0
0 0.00945118 0
0 0.0128713 0
0 0.0160873 0
0 0.019099 0
0 0.0219034 0
0 0.0244966 0
0 0.0268737 0
0 0.0290298 0
0 0.0309602 0
0 0.0326608 0
0 0.0341281 0
0 0.0353597 0
0 0.0363538 0
0 0.0371098 0
0 0.0376281 0
0 0.0379101 0
0 0.0379583 0
0 0.0377761 0
0 0.0373683 0
0 0.0367405 0
0 0.0358995 0
0 0.0348533 0
0 0.0336109 0
0 0.0321825 0
0 0.0305794 0
0 0.0288141 0
0 0.0269002 0
0 0.0248525 0
0 0.0226871 0
0 0.020421 0
0 0.0180726 0
0 0.0156614 0
0 0.013208 0
0 0.0107343 0
0 0.00826359 0
0 0.00582075 0
0 0.00343244 0
0 0.00112769 0
0 0.00152537 0
0 0.00448988 0
0 0.007287 0
0 0.00992408 0
0 0.0124039 0
0 0.0147263 0
0 0.016889 0
0 0.0188889 0
0 0.0207223 0
0 0.0223853 0
0 0.0238744 0
0 0.0251862 0
0 0.0263181 0
0 0.0272681 0
0 0.0280349 0
0 0.0286179 0
0 0.0290175 0
0 0.0292346 0
0 0.0292713 0
0 0.0291301 0
0 0.0288148 0
0 0.0283297 0
0 0.0276801 0
0 0.0268722 0
0 0.025913 0
0 0.0248104 0
0 0.0235731 0
0 0.022211 0
0 0.0207344 0
0 0.0191549 0
0 0.0174849 0
0 0.0157376 0
0 0.013927 0
0 0.0120683 0
0 0.0101773 0
0 0.00827091 0
0 0.00636702 0
0 0.00448473 0
0 0.00264456 0
0 0.000868833 0
0 0.00108241 0
0 0.00318604 0
0 0.00517093 0
0 0.00704229 0
0 0.00880212 0
0 0.0104502 0
0 0.0119852 0
0 0.0134046 0
0 0.0147059 0
0 0.0158863 0
0 0.0169433 0
0 0.0178745 0
0 0.018678 0
0 0.0193524 0
0 0.0198967 0
0 0.0203105 0
0 0.020594 0
0 0.0207479 0