# vtk DataFile Version 2.0
Velocidades
ASCII

DATASET STRUCTURED_GRID
DIMENSIONS   40   40   10

POINTS   16000   double
0.0125   0.0125   0.05
0.0125   0.0375   0.05
0.0125   0.0625   0.05
0.0125   0.0875   0.05
0.0125   0.1125   0.05
0.0125   0.1375   0.05
0.0125   0.1625   0.05
0.0125   0.1875   0.05
0.0125   0.2125   0.05
0.0125   0.2375   0.05
0.0125   0.2625   0.05
0.0125   0.2875   0.05
0.0125   0.3125   0.05
0.0125   0.3375   0.05
0.0125   0.3625   0.05
0.0125   0.3875   0.05
0.0125   0.4125   0.05
0.0125   0.4375   0.05
0.0125   0.4625   0.05
0.0125   0.4875   0.05
0.0125   0.5125   0.05
0.0125   0.5375   0.05
0.0125   0.5625   0.05
0.0125   0.5875   0.05
0.0125   0.6125   0.05
0.0125   0.6375   0.05
0.0125   0.6625   0.05
0.0125   0.6875   0.05
0.0125   0.7125   0.05
0.0125   0.7375   0.05
0.0125   0.7625   0.05
0.0125   0.7875   0.05
0.0125   0.8125   0.05
0.0125   0.8375   0.05
0.0125   0.8625   0.05
0.0125   0.8875   0.05
0.0125   0.9125   0.05
0.0125   0.9375   0.05
0.0125   0.9625   0.05
0.0125   0.9875   0.05
0.0375   0.0125   0.05
0.0375   0.0375   0.05
0.0375   0.0625   0.05
0.0375   0.0875   0.05
0.0375   0.1125   0.05
0.0375   0.1375   0.05
0.0375   0.1625   0.05
0.0375   0.1875   0.05
0.0375   0.2125   0.05
0.0375   0.2375   0.05
0.0375   0.2625   0.05
0.0375   0.2875   0.05
0.0375   0.3125   0.05
0.0375   0.3375   0.05
0.0375   0.3625   0.05
0.0375   0.3875   0.05
0.0375   0.4125   0.05
0.0375   0.4375   0.05
0.0375   0.4625   0.05
0.0375   0.4875   0.05
0.0375   0.5125   0.05
0.0375   0.5375   0.05
0.0375   0.5625   0.05
0.0375   0.5875   0.05
0.0375   0.6125   0.05
0.0375   0.6375   0.05
0.0375   0.6625   0.05
0.0375   0.6875   0.05
0.0375   0.7125   0.05
0.0375   0.7375   0.05
0.0375   0.7625   0.05
0.0375   0.7875   0.05
0.0375   0.8125   0.05
0.0375   0.8375   0.05
0.0375   0.8625   0.05
0.0375   0.8875   0.05
0.0375   0.9125   0.05
0.0375   0.9375   0.05
0.0375   0.9625   0.05
0.0375   0.9875   0.05
0.0625   0.0125   0.05
0.0625   0.0375   0.05
0.0625   0.0625   0.05
0.0625   0.0875   0.05
0.0625   0.1125   0.05
0.0625   0.1375   0.05
0.0625   0.1625   0.05
0.0625   0.1875   0.05
0.0625   0.2125   0.05
0.0625   0.2375   0.05
0.0625   0.2625   0.05
0.0625   0.2875   0.05
0.0625   0.3125   0.05
0.0625   0.3375   0.05
0.0625   0.3625   0.05
0.0625   0.3875   0.05
0.0625   0.4125   0.05
0.0625   0.4375   0.05
0.0625   0.4625   0.05
0.0625   0.4875   0.05
0.0625   0.5125   0.05
0.0625   0.5375   0.05
0.0625   0.5625   0.05
0.0625   0.5875   0.05
0.0625   0.6125   0.05
0.0625   0.6375   0.05
0.0625   0.6625   0.05
0.0625   0.6875   0.05
0.0625   0.7125   0.05
0.0625   0.7375   0.05
0.0625   0.7625   0.05
0.0625   0.7875   0.05
0.0625   0.8125   0.05
0.0625   0.8375   0.05
0.0625   0.8625   0.05
0.0625   0.8875   0.05
0.0625   0.9125   0.05
0.0625   0.9375   0.05
0.0625   0.9625   0.05
0.0625   0.9875   0.05
0.0875   0.0125   0.05
0.0875   0.0375   0.05
0.0875   0.0625   0.05
0.0875   0.0875   0.05
0.0875   0.1125   0.05
0.0875   0.1375   0.05
0.0875   0.1625   0.05
0.0875   0.1875   0.05
0.0875   0.2125   0.05
0.0875   0.2375   0.05
0.0875   0.2625   0.05
0.0875   0.2875   0.05
0.0875   0.3125   0.05
0.0875   0.3375   0.05
0.0875   0.3625   0.05
0.0875   0.3875   0.05
0.0875   0.4125   0.05
0.0875   0.4375   0.05
0.0875   0.4625   0.05
0.0875   0.4875   0.05
0.0875   0.5125   0.05
0.0875   0.5375   0.05
0.0875   0.5625   0.05
0.0875   0.5875   0.05
0.0875   0.6125   0.05
0.0875   0.6375   0.05
0.0875   0.6625   0.05
0.0875   0.6875   0.05
0.0875   0.7125   0.05
0.0875   0.7375   0.05
0.0875   0.7625   0.05
0.0875   0.7875   0.05
0.0875   0.8125   0.05
0.0875   0.8375   0.05
0.0875   0.8625   0.05
0.0875   0.8875   0.05
0.0875   0.9125   0.05
0.0875   0.9375   0.05
0.0875   0.9625   0.05
0.0875   0.9875   0.05
0.1125   0.0125   0.05
0.1125   0.0375   0.05
0.1125   0.0625   0.05
0.1125   0.0875   0.05
0.1125   0.1125   0.05
0.1125   0.1375   0.05
0.1125   0.1625   0.05
0.1125   0.1875   0.05
0.1125   0.2125   0.05
0.1125   0.2375   0.05
0.1125   0.2625   0.05
0.1125   0.2875   0.05
0.1125   0.3125   0.05
0.1125   0.3375   0.05
0.1125   0.3625   0.05
0.1125   0.3875   0.05
0.1125   0.4125   0.05
0.1125   0.4375   0.05
0.1125   0.4625   0.05
0.1125   0.4875   0.05
0.1125   0.5125   0.05
0.1125   0.5375   0.05
0.1125   0.5625   0.05
0.1125   0.5875   0.05
0.1125   0.6125   0.05
0.1125   0.6375   0.05
0.1125   0.6625   0.05
0.1125   0.6875   0.05
0.1125   0.7125   0.05
0.1125   0.7375   0.05
0.1125   0.7625   0.05
0.1125   0.7875   0.05
0.1125   0.8125   0.05
0.1125   0.8375   0.05
0.1125   0.8625   0.05
0.1125   0.8875   0.05
0.1125   0.9125   0.05
0.1125   0.9375   0.05
0.1125   0.9625   0.05
0.1125   0.9875   0.05
0.1375   0.0125   0.05
0.1375   0.0375   0.05
0.1375   0.0625   0.05
0.1375   0.0875   0.05
0.1375   0.1125   0.05
0.1375   0.1375   0.05
0.1375   0.1625   0.05
0.1375   0.1875   0.05
0.1375   0.2125   0.05
0.1375   0.2375   0.05
0.1375   0.2625   0.05
0.1375   0.2875   0.05
0.1375   0.3125   0.05
0.1375   0.3375   0.05
0.1375   0.3625   0.05
0.1375   0.3875   0.05
0.1375   0.4125   0.05
0.1375   0.4375   0.05
0.1375   0.4625   0.05
0.1375   0.4875   0.05
0.1375   0.5125   0.05
0.1375   0.5375   0.05
0.1375   0.5625   0.05
0.1375   0.5875   0.05
0.1375   0.6125   0.05
0.1375   0.6375   0.05
0.1375   0.6625   0.05
0.1375   0.6875   0.05
0.1375   0.7125   0.05
0.1375   0.7375   0.05
0.1375   0.7625   0.05
0.1375   0.7875   0.05
0.1375   0.8125   0.05
0.1375   0.8375   0.05
0.1375   0.8625   0.05
0.1375   0.8875   0.05
0.1375   0.9125   0.05
0.1375   0.9375   0.05
0.1375   0.9625   0.05
0.1375   0.9875   0.05
0.1625   0.0125   0.05
0.1625   0.0375   0.05
0.1625   0.0625   0.05
0.1625   0.0875   0.05
0.1625   0.1125   0.05
0.1625   0.1375   0.05
0.1625   0.1625   0.05
0.1625   0.1875   0.05
0.1625   0.2125   0.05
0.1625   0.2375   0.05
0.1625   0.2625   0.05
0.1625   0.2875   0.05
0.1625   0.3125   0.05
0.1625   0.3375   0.05
0.1625   0.3625   0.05
0.1625   0.3875   0.05
0.1625   0.4125   0.05
0.1625   0.4375   0.05
0.1625   0.4625   0.05
0.1625   0.4875   0.05
0.1625   0.5125   0.05
0.1625   0.5375   0.05
0.1625   0.5625   0.05
0.1625   0.5875   0.05
0.1625   0.6125   0.05
0.1625   0.6375   0.05
0.1625   0.6625   0.05
0.1625   0.6875   0.05
0.1625   0.7125   0.05
0.1625   0.7375   0.05
0.1625   0.7625   0.05
0.1625   0.7875   0.05
0.1625   0.8125   0.05
0.1625   0.8375   0.05
0.1625   0.8625   0.05
0.1625   0.8875   0.05
0.1625   0.9125   0.05
0.1625   0.9375   0.05
0.1625   0.9625   0.05
0.1625   0.9875   0.05
0.1875   0.0125   0.05
0.1875   0.0375   0.05
0.1875   0.0625   0.05
0.1875   0.0875   0.05
0.1875   0.1125   0.05
0.1875   0.1375   0.05
0.1875   0.1625   0.05
0.1875   0.1875   0.05
0.1875   0.2125   0.05
0.1875   0.2375   0.05
0.1875   0.2625   0.05
0.1875   0.2875   0.05
0.1875   0.3125   0.05
0.1875   0.3375   0.05
0.1875   0.3625   0.05
0.1875   0.3875   0.05
0.1875   0.4125   0.05
0.1875   0.4375   0.05
0.1875   0.4625   0.05
0.1875   0.4875   0.05
0.1875   0.5125   0.05
0.1875   0.5375   0.05
0.1875   0.5625   0.05
0.1875   0.5875   0.05
0.1875   0.6125   0.05
0.1875   0.6375   0.05
0.1875   0.6625   0.05
0.1875   0.6875   0.05
0.1875   0.7125   0.05
0.1875   0.7375   0.05
0.1875   0.7625   0.05
0.1875   0.7875   0.05
0.1875   0.8125   0.05
0.1875   0.8375   0.05
0.1875   0.8625   0.05
0.1875   0.8875   0.05
0.1875   0.9125   0.05
0.1875   0.9375   0.05
0.1875   0.9625   0.05
0.1875   0.9875   0.05
0.2125   0.0125   0.05
0.2125   0.0375   0.05
0.2125   0.0625   0.05
0.2125   0.0875   0.05
0.2125   0.1125   0.05
0.2125   0.1375   0.05
0.2125   0.1625   0.05
0.2125   0.1875   0.05
0.2125   0.2125   0.05
0.2125   0.2375   0.05
0.2125   0.2625   0.05
0.2125   0.2875   0.05
0.2125   0.3125   0.05
0.2125   0.3375   0.05
0.2125   0.3625   0.05
0.2125   0.3875   0.05
0.2125   0.4125   0.05
0.2125   0.4375   0.05
0.2125   0.4625   0.05
0.2125   0.4875   0.05
0.2125   0.5125   0.05
0.2125   0.5375   0.05
0.2125   0.5625   0.05
0.2125   0.5875   0.05
0.2125   0.6125   0.05
0.2125   0.6375   0.05
0.2125   0.6625   0.05
0.2125   0.6875   0.05
0.2125   0.7125   0.05
0.2125   0.7375   0.05
0.2125   0.7625   0.05
0.2125   0.7875   0.05
0.2125   0.8125   0.05
0.2125   0.8375   0.05
0.2125   0.8625   0.05
0.2125   0.8875   0.05
0.2125   0.9125   0.05
0.2125   0.9375   0.05
0.2125   0.9625   0.05
0.2125   0.9875   0.05
0.2375   0.0125   0.05
0.2375   0.0375   0.05
0.2375   0.0625   0.05
0.2375   0.0875   0.05
0.2375   0.1125   0.05
0.2375   0.1375   0.05
0.2375   0.1625   0.05
0.2375   0.1875   0.05
0.2375   0.2125   0.05
0.2375   0.2375   0.05
0.2375   0.2625   0.05
0.2375   0.2875   0.05
0.2375   0.3125   0.05
0.2375   0.3375   0.05
0.2375   0.3625   0.05
0.2375   0.3875   0.05
0.2375   0.4125   0.05
0.2375   0.4375   0.05
0.2375   0.4625   0.05
0.2375   0.4875   0.05
0.2375   0.5125   0.05
0.2375   0.5375   0.05
0.2375   0.5625   0.05
0.2375   0.5875   0.05
0.2375   0.6125   0.05
0.2375   0.6375   0.05
0.2375   0.6625   0.05
0.2375   0.6875   0.05
0.2375   0.7125   0.05
0.2375   0.7375   0.05
0.2375   0.7625   0.05
0.2375   0.7875   0.05
0.2375   0.8125   0.05
0.2375   0.8375   0.05
0.2375   0.8625   0.05
0.2375   0.8875   0.05
0.2375   0.9125   0.05
0.2375   0.9375   0.05
0.2375   0.9625   0.05
0.2375   0.9875   0.05
0.2625   0.0125   0.05
0.2625   0.0375   0.05
0.2625   0.0625   0.05
0.2625   0.0875   0.05
0.2625   0.1125   0.05
0.2625   0.1375   0.05
0.2625   0.1625   0.05
0.2625   0.1875   0.05
0.2625   0.2125   0.05
0.2625   0.2375   0.05
0.2625   0.2625   0.05
0.2625   0.2875   0.05
0.2625   0.3125   0.05
0.2625   0.3375   0.05
0.2625   0.3625   0.05
0.2625   0.3875   0.05
0.2625   0.4125   0.05
0.2625   0.4375   0.05
0.2625   0.4625   0.05
0.2625   0.4875   0.05
0.2625   0.5125   0.05
0.2625   0.5375   0.05
0.2625   0.5625   0.05
0.2625   0.5875   0.05
0.2625   0.6125   0.05
0.2625   0.6375   0.05
0.2625   0.6625   0.05
0.2625   0.6875   0.05
0.2625   0.7125   0.05
[...]
POINT_DATA   16000
VECTORS Velocidades double

0 0.321002 0
0 0.73342 0
0 0.857677 0
0 0.905505 0
0 0.928755 0
0 0.942191 0
0 0.950873 0
0 0.956894 0
0 0.961263 0
0 0.964533 0
0 0.967029 0
0 0.968956 0
0 0.970451 0
0 0.971604 0
0 0.97248 0
0 0.973124 0
0 0.973568 0
0 0.973834 0
0 0.973935 0
0 0.973882 0
0 0.973675 0
0 0.973314 0
0 0.97279 0
0 0.97209 0
0 0.971197 0
0 0.97008 0
0 0.968704 0
0 0.967014 0
0 0.964939 0
0 0.962376 0
0 0.959177 0
0 0.95512 0
0 0.949857 0
0 0.942804 0
0 0.9329 0
0 0.917961 0
0 0.892751 0
0 0.842244 0
0 0.715233 0
0 0.31131 0
0 0.187046 0
0 0.480977 0
0 0.646764 0
0 0.739888 0
0 0.795443 0
0 0.830953 0
0 0.855048 0
0 0.872177 0
0 0.884785 0
0 0.8943 0
0 0.901604 0
0 0.907267 0
0 0.911669 0
0 0.915073 0
0 0.917663 0
0 0.919569 0
0 0.920883 0
0 0.92167 0
0 0.921971 0
0 0.921811 0
0 0.921197 0
0 0.920123 0
0 0.918569 0
0 0.916496 0
0 0.913847 0
0 0.910544 0
0 0.906476 0
0 0.901493 0
0 0.895388 0
0 0.887872 0
0 0.878533 0
0 0.866764 0
0 0.851641 0
0 0.831689 0
0 0.804429 0
0 0.765431 0
0 0.706317 0
0 0.610642 0
0 0.447149 0
0 0.171683 0
0 0.126899 0
0 0.347029 0
0 0.503435 0
0 0.609035 0
0 0.680531 0
0 0.730114 0
0 0.76553 0
0 0.791542 0
0 0.811097 0
0 0.826068 0
0 0.837674 0
0 0.846736 0
0 0.853817 0
0 0.859313 0
0 0.863506 0
0 0.866597 0
0 0.868731 0
0 0.870009 0
0 0.870496 0
0 0.87023 0
0 0.869226 0
0 0.867473 0
0 0.864938 0
0 0.861562 0
0 0.857257 0
0 0.851899 0
0 0.845319 0
0 0.837287 0
0 0.827491 0
0 0.815505 0
0 0.800731 0
0 0.782321 0
0 0.759039 0
0 0.729033 0
0 0.689465 0
0 0.635904 0
0 0.561453 0
0 0.455951 0
0 0.307129 0
0 0.110157 0
0 0.0949798 0
0 0.267922 0
0 0.405323 0
0 0.508784 0
0 0.585298 0
0 0.64198 0
0 0.684437 0
0 0.716689 0
0 0.741526 0
0 0.76087 0
0 0.776057 0
0 0.788025 0
0 0.797441 0
0 0.804787 0
0 0.810412 0
0 0.81457 0
0 0.817445 0
0 0.819165 0
0 0.819817 0
0 0.819451 0
0 0.818083 0
0 0.815703 0
0 0.812267 0
0 0.8077 0
0 0.80189 0
0 0.794681 0
0 0.785862 0
0 0.775151 0
0 0.76217 0
0 0.746415 0
0 0.727202 0
0 0.7036 0
0 0.674319 0
0 0.637568 0
0 0.590852 0
0 0.530769 0
0 0.452939 0
0 0.352521 0
0 0.226378 0
0 0.0783465 0
0 0.0756027 0
0 0.216725 0
0 0.335829 0
0 0.431845 0
0 0.507415 0
0 0.566368 0
0 0.612363 0
0 0.648418 0
0 0.676854 0
0 0.699407 0
0 0.717358 0
0 0.731654 0
0 0.742992 0
0 0.751891 0
0 0.758735 0
0 0.763811 0
0 0.767326 0
0 0.769429 0
0 0.77022 0
0 0.769757 0
0 0.768062 0
0 0.765121 0
0 0.760885 0
0 0.755271 0
0 0.74815 0
0 0.739348 0
0 0.72863 0
0 0.71569 0
0 0.700125 0
0 0.681412 0
0 0.658869 0
0 0.631604 0
0 0.598457 0
0 0.557934 0
0 0.508159 0
0 0.446908 0
0 0.371855 0
0 0.281292 0
0 0.175626 0
0 0.0596305 0
0 0.0625992 0
0 0.181053 0
0 0.284612 0
0 0.371868 0
0 0.443648 0
0 0.501918 0
0 0.548941 0
0 0.586834 0
0 0.617391 0
0 0.642057 0
0 0.661965 0
0 0.677993 0
0 0.690813 0
0 0.700942 0
0 0.708771 0
0 0.714596 0
0 0.718638 0
0 0.721055 0
0 0.721955 0
0 0.721403 0
0 0.719421 0
0 0.715997 0
0 0.711081 0
0 0.704583 0
0 0.69637 0
0 0.686262 0
0 0.674019 0
0 0.659335 0
0 0.641817 0
0 0.620969 0
0 0.596171 0
0 0.566649 0
0 0.531459 0
0 0.489482 0
0 0.439459 0
0 0.380121 0
0 0.310485 0
0 0.230405 0
0 0.141398 0
0 0.0474931 0
0 0.0532138 0
0 0.154723 0
0 0.245428 0
0 0.324146 0
0 0.390992 0
0 0.446934 0
0 0.493332 0
0 0.531614 0
0 0.563102 0
0 0.588938 0
0 0.610071 0
0 0.627268 0
0 0.641142 0
0 0.652177 0
0 0.660749 0
0 0.66715 0
0 0.6716 0
0 0.67426 0
0 0.675239 0
0 0.674604 0
0 0.672382 0
0 0.66856 0
0 0.663089 0
0 0.655881 0
0 0.646807 0
0 0.635689 0
0 0.622301 0
0 0.606353 0
0 0.587489 0
0 0.565269 0
0 0.539168 0
0 0.508564 0
0 0.472749 0
0 0.430956 0
0 0.382428 0
0 0.326562 0
0 0.263149 0
0 0.192724 0
0 0.116979 0
0 0.0390366 0
0 0.0460694 0
0 0.134398 0
0 0.214461 0
0 0.285372 0
0 0.346998 0
0 0.39979 0
0 0.444549 0
0 0.482215 0
0 0.513736 0
0 0.539981 0
0 0.561715 0
0 0.579582 0
0 0.594117 0
0 0.605753 0
0 0.614838 0
0 0.621646 0
0 0.626388 0
0 0.629218 0
0 0.630246 0
0 0.629539 0
0 0.627123 0
0 0.622989 0
0 0.617092 0
0 0.609349 0
0 0.59964 0
0 0.587802 0
0 0.57363 0
0 0.556865 0
0 0.5372 0
0 0.51427 0
0 0.487655 0
0 0.456888 0
0 0.421475 0
0 0.380936 0
0 0.334883 0
0 0.283135 0
0 0.225885 0
0 0.163913 0
0 0.0987646 0
0 0.0328216 0
0 0.0404104 0
0 0.118152 0
0 0.18931 0
0 0.253251 0
0 0.309777 0
0 0.359081 0
0 0.401624 0
0 0.438018 0
0 0.468926 0
0 0.494997 0
0 0.516828 0
0 0.534944 0
0 0.549796 0
0 0.561761 0
0 0.571148 0
0 0.578206 0
0 0.583129 0
0 0.586064 0
0 0.587114 0
0 0.586343 0
0 0.58378 0
0 0.579419 0
0 0.57322 0
0 0.56511 0
0 0.554981 0
0 0.542691 0
0 0.528061 0
0 0.510875 0
0 0.490878 0
0 0.467783 0
0 0.441272 0
0 0.411018 0
0 0.376703 0
0 0.338067 0
0 0.294969 0
0 0.247473 0
0 0.195966 0
0 0.141262 0
0 0.0846859 0
0 0.0280644 0
0 0.03579 0
0 0.104806 0
0 0.168416 0
0 0.226177 0
0 0.277902 0
0 0.323653 0
0 0.36369 0
0 0.398408 0
0 0.428263 0
0 0.453731 0
0 0.475268 0
0 0.493293 0
0 0.508175 0
0 0.520234 0
0 0.529738 0
0 0.536906 0
0 0.541912 0
0 0.544891 0
0 0.545939 0
0 0.545116 0
0 0.542451 0
0 0.537942 0
0 0.531556 0
0 0.523232 0
0 0.512878 0
0 0.500374 0
0 0.485573 0
0 0.468299 0
0 0.448355 0
0 0.425522 0
0 0.399579 0
0 0.370311 0
0 0.337539 0
0 0.301156 0
0 0.26118 0
0 0.217812 0
0 0.171506 0
0 0.123029 0
0 0.0734881 0
0 0.0243059 0
0 0.0319278 0
0 0.0936015 0
0 0.150731 0
0 0.203017 0
0 0.2503 0
0 0.292581 0
0 0.330005 0
0 0.362819 0
0 0.391336 0
0 0.415899 0
0 0.436851 0
0 0.454519 0
0 0.469201 0
0 0.48116 0
0 0.490624 0
0 0.497781 0
0 0.502786 0
0 0.505757 0
0 0.506782 0
0 0.505918 0
0 0.503194 0
0 0.49861 0
0 0.492142 0
0 0.48374 0
0 0.473331 0
0 0.460818 0
0 0.446085 0
0 0.428997 0
0 0.409406 0
0 0.387161 0
0 0.362114 0
0 0.334143 0
0 0.303171 0
0 0.269195 0
0 0.232328 0
0 0.192837 0
0 0.151183 0
0 0.108054 0
0 0.0643713 0
0 0.0212603 0
0 0.0286387 0
0 0.084029 0
0 0.135533 0
0 0.182951 0
0 0.226159 0
0 0.265131 0
0 0.299943 0
0 0.330748 0
0 0.357757 0
0 0.381213 0
0 0.401372 0
0 0.418484 0
0 0.432786 0
0 0.444491 0
0 0.453787 0
0 0.460835 0
0 0.465767 0
0 0.468687 0
0 0.469674 0
0 0.46878 0
0 0.466034 0
0 0.461439 0
0 0.454979 0
0 0.446618 0
0 0.436298 0
0 0.423946 0
0 0.409475 0
0 0.392787 0
0 0.37378 0
0 0.352354 0
0 0.328427 0
0 0.301943 0
0 0.272897 0
0 0.241356 0
0 0.207483 0
0 0.171569 0
0 0.134055 0
0 0.0955451 0
0 0.0568049 0
0 0.0187415 0
0 0.0257955 0
0 0.0757349 0
0 0.122304 0
0 0.165377 0
0 0.20486 0
0 0.24072 0
0 0.272988 0
0 0.301759 0
0 0.327172 0
0 0.349397 0
0 0.368622 0
0 0.385036 0
0 0.398823 0
0 0.410154 0
0 0.419182 0
0 0.426041 0
0 0.430843 0
0 0.433679 0
0 0.434616 0
0 0.433703 0
0 0.430967 0
0 0.426416 0
0 0.420043 0
0 0.41182 0
0 0.401707 0
0 0.389653 0
0 0.375596 0
0 0.359471 0
0 0.341213 0
0 0.320767 0
0 0.298098 0
0 0.273201 0
0 0.246119 0
0 0.21696 0
0 0.185914 0
0 0.153272 0
0 0.11944 0
0 0.0849437 0
0 0.0504241 0
0 0.0166229 0
0 0.0233081 0
0 0.0684656 0
0 0.11067 0
0 0.149848 0
0 0.185929 0
0 0.218881 0
0 0.248712 0
0 0.275476 0
0 0.299263 0
0 0.320191 0
0 0.338394 0
0 0.354013 0
0 0.36719 0
0 0.378059 0
0 0.386743 0
0 0.393353 0
0 0.397981 0
0 0.400705 0
0 0.401584 0
0 0.400661 0
0 0.397965 0
0 0.393506 0
0 0.387281 0
0 0.379276 0
0 0.369465 0
0 0.357815 0
0 0.344286 0
0 0.328841 0
0 0.311447 0
0 0.292081 0
0 0.270746 0
0 0.247471 0
0 0.222332 0
0 0.195459 0
0 0.167051 0
0 0.137387 0
0 0.106834 0
0 0.0758484 0
0 0.0449707 0
0 0.0148158 0
0 0.0211105 0
0 0.0620341 0
0 0.10035 0
0 0.136019 0
0 0.168994 0
0 0.199243 0
0 0.226763 0
0 0.251581 0
0 0.273753 0
0 0.293358 0
0 0.310491 0
0 0.325255 0
0 0.337758 0
0 0.348103 0
0 0.356389 0
0 0.362705 0
0 0.367126 0
0 0.369719 0
0 0.370536 0
0 0.369614 0
0 0.366981 0
0 0.36265 0
0 0.356625 0
0 0.3489 0
0 0.339463 0
0 0.328294 0
0 0.315376 0
0 0.300692 0
0 0.284233 0
0 0.266004 0
0 0.246032 0
0 0.224371 0
0 0.201116 0
0 0.176407 0
0 0.150443 0
0 0.123484 0
0 0.0958588 0
0 0.0679631 0
0 0.0402569 0
0 0.0132562 0
0 0.0191532 0
0 0.0562998 0
0 0.0911283 0
0 0.123625 0
0 0.153759 0
0 0.181504 0
0 0.206847 0
0 0.2298 0
0 0.250394 0
0 0.268682 0
0 0.284727 0
0 0.298606 0
0 0.310396 0
0 0.320179 0
0 0.32803 0
0 0.33402 0
0 0.338213 0
0 0.340663 0
0 0.341414 0
0 0.340501 0
0 0.33795 0
0 0.333777 0
0 0.327991 0
0 0.320593 0
0 0.311582 0
0 0.300951 0
0 0.288699 0
0 0.274826 0
0 0.259341 0
0 0.24227 0
0 0.223656 0
0 0.203571 0
0 0.182118 0
0 0.159442 0
0 0.135732 0
0 0.111229 0
0 0.086225 0
0 0.0610653 0
0 0.0361433 0
0 0.011897 0
0 0.0173983 0
0 0.051154 0
0 0.0828392 0
0 0.112458 0
0 0.139992 0
0 0.165417 0
0 0.188719 0
0 0.209899 0
0 0.228971 0
0 0.245968 0
0 0.260931 0
0 0.273914 0
0 0.284975 0
0 0.294173 0
0 0.301567 0
0 0.307213 0
0 0.311163 0
0 0.313462 0
0 0.314148 0
0 0.313252 0
0 0.310799 0
0 0.306806 0
0 0.301287 0
0 0.294249 0
0 0.285699 0
0 0.275644 0
0 0.26409 0
0 0.251053 0
0 0.236557 0
0 0.22064 0
0 0.203357 0
0 0.184789 0
0 0.165045 0
0 0.144265 0
0 0.12263 0
0 0.100358 0
0 0.0777091 0
0 0.0549846 0
0 0.032524 0
0 0.0107022 0
0 0.0158161 0
0 0.0465116 0
0 0.0753507 0
0 0.10235 0
0 0.127499 0
0 0.150779 0
0 0.172175 0
0 0.191678 0
0 0.209295 0
0 0.225041 0
0 0.238944 0
0 0.251039 0
0 0.261367 0
0 0.269971 0
0 0.276899 0
0 0.282192 0
0 0.285892 0
0 0.288037 0
0 0.288659 0
0 0.287786 0
0 0.285442 0
0 0.281646 0
0 0.276413 0
0 0.269758 0
0 0.261692 0
0 0.252231 0
0 0.241391 0
0 0.229198 0
0 0.215686 0
0 0.2009 0
0 0.184905 0
0 0.167785 0
0 0.14965 0
0 0.130634 0
0 0.110905 0
0 0.0906616 0
0 0.0701349 0
0 0.0495887 0
0 0.0293173 0
0 0.00964449 0
0 0.0143831 0
0 0.0423043 0
0 0.0685567 0
0 0.0931645 0
0 0.116124 0
0 0.137421 0
0 0.157038 0
0 0.174965 0
0 0.191198 0
0 0.205744 0
0 0.218619 0
0 0.229844 0
0 0.239448 0
0 0.247463 0
0 0.253923 0
0 0.258861 0
0 0.262309 0
0 0.2643 0
0 0.264861 0
0 0.264017 0
0 0.26179 0
0 0.258201 0
0 0.253267 0
0 0.247006 0
0 0.239436 0
0 0.230577 0
0 0.220453 0
0 0.209097 0
0 0.196548 0
0 0.18286 0
0 0.1681 0
0 0.152352 0
0 0.135724 0
0 0.118345 0
0 0.100367 0
0 0.081971 0
0 0.0633623 0
0 0.0447727 0
0 0.0264589 0
0 0.00870229 0
0 0.01308 0
0 0.0384768 0
0 0.0623704 0
0 0.0847899 0
0 0.105737 0
0 0.125199 0
0 0.14316 0
0 0.159607 0
0 0.174532 0
0 0.187934 0
0 0.199821 0
0 0.210204 0
0 0.219103 0
0 0.226539 0
0 0.232537 0
0 0.237123 0
0 0.240323 0
0 0.242162 0
0 0.242665 0
0 0.241854 0
0 0.239751 0
0 0.236374 0
0 0.231746 0
0 0.225884 0
0 0.218811 0
0 0.210552 0
0 0.201136 0
0 0.190599 0
0 0.178985 0
0 0.166351 0
0 0.152765 0
0 0.138312 0
0 0.123092 0
0 0.107228 0
0 0.0908591 0
0 0.074148 0
0 0.0572778 0
0 0.0404526 0
0 0.0238975 0
0 0.00785846 0
0 0.0118911 0
0 0.0349832 0
0 0.0567197 0
0 0.0771323 0
0 0.0962256 0
0 0.11399 0
0 0.130411 0
0 0.145473 0
0 0.159165 0
0 0.171483 0
0 0.182426 0
0 0.192 0
0 0.200217 0
0 0.20709 0
0 0.212638 0
0 0.216881 0
0 0.219838 0
0 0.221531 0
0 0.22198 0
0 0.221205 0
0 0.219228 0
0 0.216067 0
0 0.211744 0
0 0.206281 0
0 0.199701 0
0 0.192032 0
0 0.183306 0
0 0.173563 0
0 0.162849 0
0 0.151221 0
0 0.138748 0
0 0.12551 0
0 0.111603 0
0 0.0971407 0
0 0.0822506 0
0 0.0670788 0
0 0.0517885 0
0 0.0365602 0
0 0.0215918 0
0 0.00709918 0
0 0.0108031 0
0 0.0317853 0
0 0.051544 0
0 0.0701122 0
0 0.0874968 0
0 0.10369 0
0 0.118678 0
0 0.132446 0
0 0.14498 0
0 0.156273 0
0 0.166319 0
0 0.175121 0
0 0.182684 0
0 0.189015 0
0 0.194129 0
0 0.198039 0
0 0.200761 0
0 0.202313 0
0 0.202712 0
0 0.201977 0
0 0.200127 0
0 0.197182 0
0 0.193162 0
0 0.18809 0
0 0.181993 0
0 0.174899 0
0 0.166843 0
0 0.157863 0
0 0.148009 0
0 0.137337 0
0 0.125912 0
0 0.113812 0
0 0.101127 0
0 0.0879617 0
0 0.0744316 0
0 0.0606685 0
0 0.0468177 0
0 0.0330392 0
0 0.0195075 0
0 0.0064131 0
0 0.00980486 0
0 0.0288504 0
0 0.0467916 0
0 0.0636616 0
0 0.0794686 0
0 0.0942065 0
0 0.107862 0
0 0.120421 0
0 0.13187 0
0 0.142197 0
0 0.151396 0
0 0.159464 0
0 0.166402 0
0 0.172215 0
0 0.176912 0
0 0.180502 0
0 0.182999 0
0 0.184417 0
0 0.184771 0
0 0.184077 0
0 0.182354 0
0 0.179621 0
0 0.175898 0
0 0.17121 0
0 0.165581 0
0 0.159043 0
0 0.15163 0
0 0.143381 0
0 0.134345 0
0 0.124576 0
0 0.114137 0
0 0.103101 0
0 0.091553 0
0 0.0795869 0
0 0.0673089 0
0 0.054837 0
0 0.042301 0
0 0.0298427 0
0 0.0176166 0
0 0.00579084 0
0 0.00888669 0
0 0.0261503 0
0 0.0424178 0
0 0.0577213 0
0 0.0720698 0
0 0.0854586 0
0 0.0978759 0
0 0.109307 0
0 0.119739 0
0 0.129158 0
0 0.137557 0
0 0.144929 0
0 0.151275 0
0 0.156594 0
0 0.160893 0
0 0.164179 0
0 0.166461 0
0 0.167752 0
0 0.168064 0
0 0.167413 0
0 0.165816 0
0 0.16329 0
0 0.159857 0
0 0.155539 0
0 0.150363 0
0 0.144359 0
0 0.137561 0
0 0.130008 0
0 0.121747 0
0 0.11283 0
0 0.103316 0
0 0.0932744 0
0 0.0827824 0
0 0.0719263 0
0 0.0608024 0
0 0.0495163 0
0 0.0381839 0
0 0.0269313 0
0 0.0158951 0
0 0.00522451 0
0 0.00804023 0
0 0.0236607 0
0 0.0383834 0
0 0.0522392 0
0 0.0652375 0
0 0.0773745 0
0 0.0886394 0
0 0.0990186 0
0 0.108498 0
0 0.117065 0
0 0.12471 0
0 0.131427 0
0 0.137211 0
0 0.142062 0
0 0.145984 0
0 0.14898 0
0 0.151058 0
0 0.152229 0
0 0.152504 0
0 0.151897 0
0 0.150422 0
0 0.148098 0
0 0.144945 0
0 0.140984 0
0 0.136243 0
0 0.13075 0
0 0.124538 0
0 0.117645 0
0 0.110116 0
0 0.102 0
0 0.0933537 0
0 0.0842398 0
0 0.0747295 0
0 0.0649015 0
0 0.0548426 0
0 0.0446476 0
0 0.0344197 0
0 0.024271 0
0 0.0143229 0
0 0.00470739 0
0 0.00725806 0
0 0.0213599 0
0 0.0346539 0
0 0.0471694 0
0 0.0589156 0
0 0.0698896 0
0 0.0800816 0
0 0.0894788 0
0 0.0980676 0
0 0.105836 0
0 0.112772 0
0 0.11887 0
0 0.124124 0
0 0.128532 0
0 0.132096 0
0 0.134818 0
0 0.136704 0
0 0.137762 0
0 0.138004 0
0 0.13744 0
0 0.136085 0
0 0.133956 0
0 0.131072 0
0 0.127455 0
0 0.123128 0
0 0.118122 0
0 0.112467 0
0 0.106199 0
0 0.099361 0
0 0.0919985 0
0 0.084164 0
0 0.0759157 0
0 0.0673185 0
0 0.0584436 0
0 0.049369 0
0 0.0401798 0
0 0.030968 0
0 0.021833 0
0 0.0128825 0
0 0.00423372 0
0 0.00653362 0
0 0.0192286 0
0 0.0311984 0
0 0.0424703 0
0 0.0530534 0
0 0.0629454 0
0 0.0721375 0
0 0.0806176 0
0 0.0883728 0
0 0.0953912 0
0 0.101662 0
0 0.107177 0
0 0.111932 0
0 0.115922 0
0 0.119147 0
0 0.121609 0
0 0.123314 0
0 0.124267 0
0 0.124478 0
0 0.123958 0
0 0.122719 0
0 0.120778 0
0 0.118153 0
0 0.114863 0
0 0.110933 0
0 0.106389 0
0 0.101262 0
0 0.0955851 0
0 0.0893978 0
0 0.082743 0
0 0.0756688 0
0 0.0682287 0
0 0.0604814 0
0 0.0524912 0
0 0.0443282 0
0 0.0360683 0
0 0.0277934 0
0 0.0195918 0
0 0.0115589 0
0 0.0037985 0
0 0.00586097 0
0 0.0172495 0
0 0.027989 0
0 0.0381046 0
0 0.0476052 0
0 0.0564887 0
0 0.0647474 0
0 0.0723701 0
0 0.0793447 0
0 0.0856598 0
0 0.091305 0
0 0.0962721 0
0 0.100555 0
0 0.10415 0
0 0.107056 0
0 0.109274 0
0 0.110808 0
0 0.111663 0
0 0.111847 0
0 0.11137 0
0 0.110243 0
0 0.108483 0
0 0.106104 0
0 0.103128 0
0 0.0995743 0
0 0.0954697 0
0 0.0908421 0
0 0.0857233 0
0 0.0801491 0
0 0.0741591 0
0 0.0677974 0
0 0.0611124 0
0 0.0541573 0
0 0.0469898 0
0 0.0396727 0
0 0.0322734 0
0 0.0248647 0
0 0.017525 0
0 0.0103385 0
0 0.00339731 0
0 0.0052347 0
0 0.0154067 0
0 0.0250001 0
0 0.0340381 0
0 0.0425287 0
0 0.0504704 0
0 0.0578563 0
0 0.0646761 0
0 0.0709188 0
0 0.0765734 0
0 0.0816302 0
0 0.0860811 0
0 0.0899199 0
0 0.0931427 0
0 0.0957476 0
0 0.0977351 0
0 0.0991079 0
0 0.0998707 0
0 0.10003 0
0 0.0995957 0
0 0.0985779 0
0 0.0969901 0
0 0.0948478 0
0 0.092169 0
0 0.0889741 0
0 0.0852863 0
0 0.0811318 0
0 0.0765399 0
0 0.0715433 0
0 0.0661782 0
0 0.0604847 0
0 0.0545063 0
0 0.0482909 0
0 0.0418901 0
0 0.0353596 0
0 0.0287595 0
0 0.0221542 0
0 0.0156127 0
0 0.00920973 0
0 0.00302626 0
0 0.00464989 0
0 0.0136858 0
0 0.0222086 0
0 0.0302391 0
0 0.037785 0
0 0.044845 0
0 0.0514128 0
0 0.0574794 0
0 0.0630344 0
0 0.068068 0
0 0.0725707 0
0 0.0765351 0
0 0.0799549 0
0 0.0828262 0
0 0.0851468 0
0 0.0869168 0
0 0.0881382 0
0 0.0888148 0
0 0.0889527 0
0 0.0885599 0
0 0.0876464 0
0 0.0862242 0
0 0.0843074 0
0 0.0819125 0
0 0.0790582 0
0 0.0757658 0
0 0.0720593 0
0 0.0679653 0
0 0.0635135 0
0 0.0587367 0
0 0.0536708 0
0 0.0483549 0
0 0.0428317 0
0 0.0371471 0
0 0.0313504 0
0 0.0254948 0
0 0.0196367 0
0 0.0138373 0
0 0.00816186 0
0 0.00268185 0
0 0.00410194 0
0 0.0120733 0
0 0.0195925 0
0 0.0266784 0
0 0.0333379 0
0 0.03957 0
0 0.0453691 0
0 0.050727 0
0 0.0556347 0
0 0.0600828 0
0 0.0640629 0
0 0.0675679 0
0 0.0705919 0
0 0.073131 0
0 0.0751829 0
0 0.0767475 0
0 0.077826 0
0 0.078422 0
0 0.0785405 0
0 0.0781887 0
0 0.0773755 0
0 0.0761118 0
0 0.0744103 0
0 0.0722859 0
0 0.0697557 0
0 0.0668389 0
0 0.063557 0
0 0.0599342 0
0 0.0559972 0
0 0.0517752 0
0 0.0473002 0
0 0.042607 0
0 0.0377334 0
0 0.0327199 0
0 0.0276099 0
0 0.0224499 0
0 0.0172896 0
0 0.0121823 0
0 0.00718529 0
0 0.0023609 0
0 0.00358659 0
0 0.0105566 0
0 0.0171317 0
0 0.0233286 0
0 0.0291535 0
0 0.0346055 0
0 0.0396798 0
0 0.0443692 0
0 0.0486654 0
0 0.0525603 0
0 0.0560461 0
0 0.0591162 0
0 0.0617654 0
0 0.0639899 0
0 0.0657874 0
0 0.0671575 0
0 0.0681012 0
0 0.0686213 0
0 0.0687225 0
0 0.0684108 0
0 0.0676942 0
0 0.0665823 0
0 0.0650867 0
0 0.0632205 0
0 0.060999 0
0 0.0584394 0
0 0.055561 0
0 0.0523851 0
0 0.0489355 0
0 0.0452381 0
0 0.041321 0
0 0.037215 0
0 0.032953 0
0 0.0285705 0
0 0.0241054 0
0 0.0195982 0
0 0.015092 0
0 0.0106331 0
0 0.00627126 0
0 0.00206052 0
0 0.00309982 0
0 0.00912396 0
0 0.0148071 0
0 0.0201639 0
0 0.0251996 0
0 0.0299138 0
0 0.0343021 0
0 0.0383583 0
0 0.0420751 0
0 0.0454453 0
0 0.048462 0
0 0.0511195 0
0 0.0534127 0
0 0.0553383 0
0 0.0568942 0
0 0.0580797 0
0 0.0588956 0
0 0.0593444 0
0 0.0594298 0
0 0.0591573 0
0 0.0585338 0
0 0.0575678 0
0 0.0562693 0
0 0.05465 0
0 0.0527233 0
0 0.0505044 0
0 0.0480102 0
0 0.0452595 0
0 0.0422729 0
0 0.0390731 0
0 0.0356847 0
0 0.0321343 0
0 0.0284504 0
0 0.0246637 0
0 0.0208069 0
0 0.0169148 0
0 0.0130246 0
0 0.00917601 0
0 0.00541165 0
0 0.00177805 0
0 0.00263783 0
0 0.00776423 0
0 0.0126007 0
0 0.0171597 0
0 0.0214459 0
0 0.0254589 0
0 0.0291951 0
0 0.0326489 0
0 0.0358144 0
0 0.038685 0
0 0.041255 0
0 0.043519 0
0 0.0454729 0
0 0.0471136 0
0 0.0484391 0
0 0.0494488 0
0 0.0501433 0
0 0.0505245 0
0 0.0505958 0
0 0.0503616 0
0 0.049828 0
0 0.0490023 0
0 0.0478931 0
0 0.0465106 0
0 0.0448663 0
0 0.0429733 0
0 0.0408463 0
0 0.0385014 0
0 0.0359564 0
0 0.0332306 0
0 0.0303452 0
0 0.0273228 0
0 0.0241879 0
0 0.0209664 0
0 0.0176861 0
0 0.0143767 0
0 0.0110695 0
0 0.00779822 0
0 0.00459894 0
0 0.001511 0
0 0.002197 0
0 0.00646671 0
0 0.0104951 0
0 0.0142926 0
0 0.0178632 0
0 0.0212065 0
0 0.0243195 0
0 0.0271977 0
0 0.0298358 0
0 0.0322285 0
0 0.0343708 0
0 0.0362583 0
0 0.0378873 0
0 0.0392551 0
0 0.0403601 0
0 0.0412016 0
0 0.0417801 0
0 0.0420971 0
0 0.0421553 0
0 0.0419587 0
0 0.0415122 0
0 0.0408219 0
0 0.0398952 0
0 0.0387405 0
0 0.0373678 0
0 0.035788 0
0 0.0340133 0
0 0.0320575 0
0 0.0299354 0
0 0.0276632 0
0 0.0252587 0
0 0.0227408 0
0 0.0201297 0
0 0.0174473 0
0 0.0147165 0
0 0.011962 0
0 0.00920979 0
0 0.00648781 0
0 0.00382603 0
0 0.00125704 0
0 0.00177383 0
0 0.00522119 0
0 0.00847379 0
0 0.0115401 0
0 0.0144234 0
0 0.0171234 0
0 0.0196376 0
0 0.0219623 0
0 0.0240934 0
0 0.0260264 0
0 0.0277572 0
0 0.0292823 0
0 0.0305986 0
0 0.0317038 0
0 0.0325966 0
0 0.0332763 0
0 0.0337433 0
0 0.0339989 0
0 0.0340452 0
0 0.0338854 0
0 0.0335235 0
0 0.0329645 0
0 0.0322143 0
0 0.0312801 0
0 0.0301696 0
0 0.028892 0
0 0.0274572 0
0 0.0258762 0
0 0.0241613 0
0 0.0223256 0
0 0.0203834 0
0 0.01835 0
0 0.0162419 0
0 0.0140766 0
0 0.0118727 0
0 0.00964995 0
0 0.00742939 0
0 0.00523345 0
0 0.00308623 0
0 0.00101396 0
0 0.00136498 0
0 0.00401776 0
0 0.00652073 0
0 0.00888045 0
0 0.0110994 0
0 0.0131774 0
0 0.0151126 0
0 0.016902 0
0 0.0185425 0
0 0.0200307 0
0 0.0213633 0
0 0.0225375 0
0 0.023551 0
0 0.0244019 0
0 0.0250892 0
0 0.0256125 0
0 0.0259718 0
0 0.0261683 0
0 0.0262035 0
0 0.0260798 0
0 0.0258005 0
0 0.0253693 0
0 0.0247909 0
0 0.0240708 0
0 0.023215 0
0 0.0222306 0
0 0.0211253 0
0 0.0199077 0
0 0.0185872 0
0 0.0171739 0
0 0.0156789 0
0 0.0141139 0
0 0.0124918 0
0 0.0108259 0
0 0.00913047 0
0 0.00742081 0
0 0.00571301 0
0 0.00402429 0
0 0.00237313 0
0 0.000779673 0
0 0.000967159 0
0 0.00284681 0
0 0.00462033 0
0 0.00629239 0
0 0.00786477 0
0 0.00933732 0
0 0.0107087 0
0 0.0119769 0
0 0.0131396 0
0 0.0141944 0
0 0.015139 0
0 0.0159713 0
0 0.0166897 0
0 0.0172929 0
0 0.0177801 0
0 0.0181509 0