# vtk DataFile Version 2.0
Velocidades
ASCII

DATASET STRUCTURED_GRID
DIMENSIONS   40   40   10

POINTS   16000   double
0.0125   0.0125   0.05
0.0125   0.0375   0.05
0.0125   0.0625   0.05
0.0125   0.0875   0.05
0.0125   0.1125   0.05
0.0125   0.1375   0.05
0.0125   0.1625   0.05
0.0125   0.1875   0.05
0.0125   0.2125   0.05
0.0125   0.2375   0.05
0.0125   0.2625   0.05
0.0125   0.2875   0.05
0.0125   0.3125   0.05
0.0125   0.3375   0.05
0.0125   0.3625   0.05
0.0125   0.3875   0.05
0.0125   0.4125   0.05
0.0125   0.4375   0.05
0.0125   0.4625   0.05
0.0125   0.4875   0.05
0.0125   0.5125   0.05
0.0125   0.5375   0.05
0.0125   0.5625   0.05
0.0125   0.5875   0.05
0.0125   0.6125   0.05
0.0125   0.6375   0.05
0.0125   0.6625   0.05
0.0125   0.6875   0.05
0.0125   0.7125   0.05
0.0125   0.7375   0.05
0.0125   0.7625   0.05
0.0125   0.7875   0.05
0.0125   0.8125   0.05
0.0125   0.8375   0.05
0.0125   0.8625   0.05
0.0125   0.8875   0.05
0.0125   0.9125   0.05
0.0125   0.9375   0.05
0.0125   0.9625   0.05
0.0125   0.9875   0.05
0.0375   0.0125   0.05
0.0375   0.0375   0.05
0.0375   0.0625   0.05
0.0375   0.0875   0.05
0.0375   0.1125   0.05
0.0375   0.1375   0.05
0.0375   0.1625   0.05
0.0375   0.1875   0.05
0.0375   0.2125   0.05
0.0375   0.2375   0.05
0.0375   0.2625   0.05
0.0375   0.2875   0.05
0.0375   0.3125   0.05
0.0375   0.3375   0.05
0.0375   0.3625   0.05
0.0375   0.3875   0.05
0.0375   0.4125   0.05
0.0375   0.4375   0.05
0.0375   0.4625   0.05
0.0375   0.4875   0.05
0.0375   0.5125   0.05
0.0375   0.5375   0.05
0.0375   0.5625   0.05
0.0375   0.5875   0.05
0.0375   0.6125   0.05
0.0375   0.6375   0.05
0.0375   0.6625   0.05
0.0375   0.6875   0.05
0.0375   0.7125   0.05
0.0375   0.7375   0.05
0.0375   0.7625   0.05
0.0375   0.7875   0.05
0.0375   0.8125   0.05
0.0375   0.8375   0.05
0.0375   0.8625   0.05
0.0375   0.8875   0.05
0.0375   0.9125   0.05
0.0375   0.9375   0.05
0.0375   0.9625   0.05
0.0375   0.9875   0.05
0.0625   0.0125   0.05
0.0625   0.0375   0.05
0.0625   0.0625   0.05
0.0625   0.0875   0.05
0.0625   0.1125   0.05
0.0625   0.1375   0.05
0.0625   0.1625   0.05
0.0625   0.1875   0.05
0.0625   0.2125   0.05
0.0625   0.2375   0.05
0.0625   0.2625   0.05
0.0625   0.2875   0.05
0.0625   0.3125   0.05
0.0625   0.3375   0.05
0.0625   0.3625   0.05
0.0625   0.3875   0.05
0.0625   0.4125   0.05
0.0625   0.4375   0.05
0.0625   0.4625   0.05
0.0625   0.4875   0.05
0.0625   0.5125   0.05
0.0625   0.5375   0.05
0.0625   0.5625   0.05
0.0625   0.5875   0.05
0.0625   0.6125   0.05
0.0625   0.6375   0.05
0.0625   0.6625   0.05
0.0625   0.6875   0.05
0.0625   0.7125   0.05
0.0625   0.7375   0.05
0.0625   0.7625   0.05
0.0625   0.7875   0.05
0.0625   0.8125   0.05
0.0625   0.8375   0.05
0.0625   0.8625   0.05
0.0625   0.8875   0.05
0.0625   0.9125   0.05
0.0625   0.9375   0.05
0.0625   0.9625   0.05
0.0625   0.9875   0.05
0.0875   0.0125   0.05
0.0875   0.0375   0.05
0.0875   0.0625   0.05
0.0875   0.0875   0.05
0.0875   0.1125   0.05
0.0875   0.1375   0.05
0.0875   0.1625   0.05
0.0875   0.1875   0.05
0.0875   0.2125   0.05
0.0875   0.2375   0.05
0.0875   0.2625   0.05
0.0875   0.2875   0.05
0.0875   0.3125   0.05
0.0875   0.3375   0.05
0.0875   0.3625   0.05
0.0875   0.3875   0.05
0.0875   0.4125   0.05
0.0875   0.4375   0.05
0.0875   0.4625   0.05
0.0875   0.4875   0.05
0.0875   0.5125   0.05
0.0875   0.5375   0.05
0.0875   0.5625   0.05
0.0875   0.5875   0.05
0.0875   0.6125   0.05
0.0875   0.6375   0.05
0.0875   0.6625   0.05
0.0875   0.6875   0.05
0.0875   0.7125   0.05
0.0875   0.7375   0.05
0.0875   0.7625   0.05
0.0875   0.7875   0.05
0.0875   0.8125   0.05
0.0875   0.8375   0.05
0.0875   0.8625   0.05
0.0875   0.8875   0.05
0.0875   0.9125   0.05
0.0875   0.9375   0.05
0.0875   0.9625   0.05
0.0875   0.9875   0.05
0.1125   0.0125   0.05
0.1125   0.0375   0.05
0.1125   0.0625   0.05
0.1125   0.0875   0.05
0.1125   0.1125   0.05
0.1125   0.1375   0.05
0.1125   0.1625   0.05
0.1125   0.1875   0.05
0.1125   0.2125   0.05
0.1125   0.2375   0.05
0.1125   0.2625   0.05
0.1125   0.2875   0.05
0.1125   0.3125   0.05
0.1125   0.3375   0.05
0.1125   0.3625   0.05
0.1125   0.3875   0.05
0.1125   0.4125   0.05
0.1125   0.4375   0.05
0.1125   0.4625   0.05
0.1125   0.4875   0.05
0.1125   0.5125   0.05
0.1125   0.5375   0.05
0.1125   0.5625   0.05
0.1125   0.5875   0.05
0.1125   0.6125   0.05
0.1125   0.6375   0.05
0.1125   0.6625   0.05
0.1125   0.6875   0.05
0.1125   0.7125   0.05
0.1125   0.7375   0.05
0.1125   0.7625   0.05
0.1125   0.7875   0.05
0.1125   0.8125   0.05
0.1125   0.8375   0.05
0.1125   0.8625   0.05
0.1125   0.8875   0.05
0.1125   0.9125   0.05
0.1125   0.9375   0.05
0.1125   0.9625   0.05
0.1125   0.9875   0.05
0.1375   0.0125   0.05
0.1375   0.0375   0.05
0.1375   0.0625   0.05
0.1375   0.0875   0.05
0.1375   0.1125   0.05
0.1375   0.1375   0.05
0.1375   0.1625   0.05
0.1375   0.1875   0.05
0.1375   0.2125   0.05
0.1375   0.2375   0.05
0.1375   0.2625   0.05
0.1375   0.2875   0.05
0.1375   0.3125   0.05
0.1375   0.3375   0.05
0.1375   0.3625   0.05
0.1375   0.3875   0.05
0.1375   0.4125   0.05
0.1375   0.4375   0.05
0.1375   0.4625   0.05
0.1375   0.4875   0.05
0.1375   0.5125   0.05
0.1375   0.5375   0.05
0.1375   0.5625   0.05
0.1375   0.5875   0.05
0.1375   0.6125   0.05
0.1375   0.6375   0.05
0.1375   0.6625   0.05
0.1375   0.6875   0.05
0.1375   0.7125   0.05
0.1375   0.7375   0.05
0.1375   0.7625   0.05
0.1375   0.7875   0.05
0.1375   0.8125   0.05
0.1375   0.8375   0.05
0.1375   0.8625   0.05
0.1375   0.8875   0.05
0.1375   0.9125   0.05
0.1375   0.9375   0.05
0.1375   0.9625   0.05
0.1375   0.9875   0.05
0.1625   0.0125   0.05
0.1625   0.0375   0.05
0.1625   0.0625   0.05
0.1625   0.0875   0.05
0.1625   0.1125   0.05
0.1625   0.1375   0.05
0.1625   0.1625   0.05
0.1625   0.1875   0.05
0.1625   0.2125   0.05
0.1625   0.2375   0.05
0.1625   0.2625   0.05
0.1625   0.2875   0.05
0.1625   0.3125   0.05
0.1625   0.3375   0.05
0.1625   0.3625   0.05
0.1625   0.3875   0.05
0.1625   0.4125   0.05
0.1625   0.4375   0.05
0.1625   0.4625   0.05
0.1625   0.4875   0.05
0.1625   0.5125   0.05
0.1625   0.5375   0.05
0.1625   0.5625   0.05
0.1625   0.5875   0.05
0.1625   0.6125   0.05
0.1625   0.6375   0.05
0.1625   0.6625   0.05
0.1625   0.6875   0.05
0.1625   0.7125   0.05
0.1625   0.7375   0.05
0.1625   0.7625   0.05
0.1625   0.7875   0.05
0.1625   0.8125   0.05
0.1625   0.8375   0.05
0.1625   0.8625   0.05
0.1625   0.8875   0.05
0.1625   0.9125   0.05
0.1625   0.9375   0.05
0.1625   0.9625   0.05
0.1625   0.9875   0.05
0.1875   0.0125   0.05
0.1875   0.0375   0.05
0.1875   0.0625   0.05
0.1875   0.0875   0.05
0.1875   0.1125   0.05
0.1875   0.1375   0.05
0.1875   0.1625   0.05
0.1875   0.1875   0.05
0.1875   0.2125   0.05
0.1875   0.2375   0.05
0.1875   0.2625   0.05
0.1875   0.2875   0.05
0.1875   0.3125   0.05
0.1875   0.3375   0.05
0.1875   0.3625   0.05
0.1875   0.3875   0.05
0.1875   0.4125   0.05
0.1875   0.4375   0.05
0.1875   0.4625   0.05
0.1875   0.4875   0.05
0.1875   0.5125   0.05
0.1875   0.5375   0.05
0.1875   0.5625   0.05
0.1875   0.5875   0.05
0.1875   0.6125   0.05
0.1875   0.6375   0.05
0.1875   0.6625   0.05
0.1875   0.6875   0.05
0.1875   0.7125   0.05
0.1875   0.7375   0.05
0.1875   0.7625   0.05
0.1875   0.7875   0.05
0.1875   0.8125   0.05
0.1875   0.8375   0.05
0.1875   0.8625   0.05
0.1875   0.8875   0.05
0.1875   0.9125   0.05
0.1875   0.9375   0.05
0.1875   0.9625   0.05
0.1875   0.9875   0.05
0.2125   0.0125   0.05
0.2125   0.0375   0.05
0.2125   0.0625   0.05
0.2125   0.0875   0.05
0.2125   0.1125   0.05
0.2125   0.1375   0.05
0.2125   0.1625   0.05
0.2125   0.1875   0.05
0.2125   0.2125   0.05
0.2125   0.2375   0.05
0.2125   0.2625   0.05
0.2125   0.2875   0.05
0.2125   0.3125   0.05
0.2125   0.3375   0.05
0.2125   0.3625   0.05
0.2125   0.3875   0.05
0.2125   0.4125   0.05
0.2125   0.4375   0.05
0.2125   0.4625   0.05
0.2125   0.4875   0.05
0.2125   0.5125   0.05
0.2125   0.5375   0.05
0.2125   0.5625   0.05
0.2125   0.5875   0.05
0.2125   0.6125   0.05
0.2125   0.6375   0.05
0.2125   0.6625   0.05
0.2125   0.6875   0.05
0.2125   0.7125   0.05
0.2125   0.7375   0.05
0.2125   0.7625   0.05
0.2125   0.7875   0.05
0.2125   0.8125   0.05
0.2125   0.8375   0.05
0.2125   0.8625   0.05
0.2125   0.8875   0.05
0.2125   0.9125   0.05
0.2125   0.9375   0.05
0.2125   0.9625   0.05
0.2125   0.9875   0.05
0.2375   0.0125   0.05
0.2375   0.0375   0.05
0.2375   0.0625   0.05
0.2375   0.0875   0.05
0.2375   0.1125   0.05
0.2375   0.1375   0.05
0.2375   0.1625   0.05
0.2375   0.1875   0.05
0.2375   0.2125   0.05
0.2375   0.2375   0.05
0.2375   0.2625   0.05
0.2375   0.2875   0.05
0.2375   0.3125   0.05
0.2375   0.3375   0.05
0.2375   0.3625   0.05
0.2375   0.3875   0.05
0.2375   0.4125   0.05
0.2375   0.4375   0.05
0.2375   0.4625   0.05
0.2375   0.4875   0.05
0.2375   0.5125   0.05
0.2375   0.5375   0.05
0.2375   0.5625   0.05
0.2375   0.5875   0.05
0.2375   0.6125   0.05
0.2375   0.6375   0.05
0.2375   0.6625   0.05
0.2375   0.6875   0.05
0.2375   0.7125   0.05
0.2375   0.7375   0.05
0.2375   0.7625   0.05
0.2375   0.7875   0.05
0.2375   0.8125   0.05
0.2375   0.8375   0.05
0.2375   0.8625   0.05
0.2375   0.8875   0.05
0.2375   0.9125   0.05
0.2375   0.9375   0.05
0.2375   0.9625   0.05
0.2375   0.9875   0.05
0.2625   0.0125   0.05
0.2625   0.0375   0.05
0.2625   0.0625   0.05
0.2625   0.0875   0.05
0.2625   0.1125   0.05
0.2625   0.1375   0.05
0.2625   0.1625   0.05
0.2625   0.1875   0.05
0.2625   0.2125   0.05
0.2625   0.2375   0.05
0.2625   0.2625   0.05
0.2625   0.2875   0.05
0.2625   0.3125   0.05
0.2625   0.3375   0.05
0.2625   0.3625   0.05
0.2625   0.3875   0.05
0.2625   0.4125   0.05
0.2625   0.4375   0.05
0.2625   0.4625   0.05
0.2625   0.4875   0.05
0.2625   0.5125   0.05
0.2625   0.5375   0.05
0.2625   0.5625   0.05
0.2625   0.5875   0.05
0.2625   0.6125   0.05
0.2625   0.6375   0.05
0.2625   0.6625   0.05
0.2625   0.6875   0.05
0.2625   0.7125   0.05
[...]
POINT_DATA   16000
VECTORS Velocidades double

0 0.321011 0
0 0.733446 0
0 0.85772 0
0 0.905564 0
0 0.928829 0
0 0.942278 0
0 0.950974 0
0 0.957006 0
0 0.961386 0
0 0.964666 0
0 0.967171 0
0 0.969106 0
0 0.970607 0
0 0.971766 0
0 0.972646 0
0 0.973294 0
0 0.97374 0
0 0.974007 0
0 0.974109 0
0 0.974054 0
0 0.973846 0
0 0.973481 0
0 0.972953 0
0 0.972249 0
0 0.971349 0
0 0.970226 0
0 0.968842 0
0 0.967144 0
0 0.96506 0
0 0.962488 0
0 0.959279 0
0 0.955212 0
0 0.949938 0
0 0.942874 0
0 0.932959 0
0 0.918009 0
0 0.892788 0
0 0.84227 0
0 0.715249 0
0 0.311315 0
0 0.187073 0
0 0.481057 0
0 0.646894 0
0 0.740064 0
0 0.795663 0
0 0.831215 0
0 0.855349 0
0 0.872513 0
0 0.885154 0
0 0.894698 0
0 0.902029 0
0 0.907715 0
0 0.912137 0
0 0.915558 0
0 0.918162 0
0 0.920078 0
0 0.921399 0
0 0.922189 0
0 0.92249 0
0 0.922327 0
0 0.921707 0
0 0.920624 0
0 0.919058 0
0 0.91697 0
0 0.914304 0
0 0.91098 0
0 0.90689 0
0 0.901883 0
0 0.895752 0
0 0.888208 0
0 0.878839 0
0 0.867039 0
0 0.851884 0
0 0.831899 0
0 0.804606 0
0 0.765575 0
0 0.706428 0
0 0.61072 0
0 0.447195 0
0 0.171698 0
0 0.126944 0
0 0.347161 0
0 0.50365 0
0 0.609328 0
0 0.680897 0
0 0.730549 0
0 0.766029 0
0 0.792099 0
0 0.811709 0
0 0.826729 0
0 0.838379 0
0 0.84748 0
0 0.854594 0
0 0.860118 0
0 0.864333 0
0 0.867441 0
0 0.869586 0
0 0.87087 0
0 0.871357 0
0 0.871087 0
0 0.870073 0
0 0.868305 0
0 0.86575 0
0 0.862349 0
0 0.858015 0
0 0.852624 0
0 0.846006 0
0 0.837933 0
0 0.828094 0
0 0.816061 0
0 0.801238 0
0 0.782777 0
0 0.759442 0
0 0.729382 0
0 0.689759 0
0 0.636142 0
0 0.561637 0
0 0.456081 0
0 0.307205 0
0 0.110182 0
0 0.0950424 0
0 0.268107 0
0 0.405622 0
0 0.509192 0
0 0.585807 0
0 0.642585 0
0 0.685131 0
0 0.717465 0
0 0.742377 0
0 0.761789 0
0 0.777038 0
0 0.789059 0
0 0.798522 0
0 0.805906 0
0 0.811562 0
0 0.815744 0
0 0.818634 0
0 0.820363 0
0 0.821015 0
0 0.820642 0
0 0.819261 0
0 0.816859 0
0 0.813395 0
0 0.808794 0
0 0.802944 0
0 0.795689 0
0 0.786818 0
0 0.77605 0
0 0.763009 0
0 0.747189 0
0 0.727908 0
0 0.704234 0
0 0.67488 0
0 0.638053 0
0 0.591261 0
0 0.531102 0
0 0.453195 0
0 0.352701 0
0 0.226484 0
0 0.0783814 0
0 0.0756825 0
0 0.21696 0
0 0.33621 0
0 0.432365 0
0 0.508064 0
0 0.567138 0
0 0.613247 0
0 0.649407 0
0 0.677939 0
0 0.700579 0
0 0.718608 0
0 0.732972 0
0 0.744369 0
0 0.753317 0
0 0.760201 0
0 0.765306 0
0 0.768841 0
0 0.770955 0
0 0.771747 0
0 0.771275 0
0 0.769562 0
0 0.766594 0
0 0.762323 0
0 0.756665 0
0 0.749493 0
0 0.740632 0
0 0.729848 0
0 0.716836 0
0 0.701194 0
0 0.682398 0
0 0.659768 0
0 0.632412 0
0 0.599172 0
0 0.558553 0
0 0.50868 0
0 0.447331 0
0 0.372181 0
0 0.281521 0
0 0.175761 0
0 0.0596749 0
0 0.0626957 0
0 0.181337 0
0 0.285073 0
0 0.372496 0
0 0.444433 0
0 0.502849 0
0 0.55001 0
0 0.58803 0
0 0.618703 0
0 0.643474 0
0 0.663476 0
0 0.679586 0
0 0.692478 0
0 0.702666 0
0 0.710543 0
0 0.716404 0
0 0.72047 0
0 0.7229 0
0 0.723801 0
0 0.723238 0
0 0.721235 0
0 0.717779 0
0 0.712819 0
0 0.706268 0
0 0.697993 0
0 0.687814 0
0 0.675492 0
0 0.660721 0
0 0.643109 0
0 0.622162 0
0 0.597258 0
0 0.567626 0
0 0.532323 0
0 0.49023 0
0 0.440089 0
0 0.380632 0
0 0.310879 0
0 0.230682 0
0 0.141561 0
0 0.0475468 0
0 0.0533263 0
0 0.155054 0
0 0.245966 0
0 0.324878 0
0 0.391907 0
0 0.448021 0
0 0.494578 0
0 0.533008 0
0 0.564631 0
0 0.59059 0
0 0.611833 0
0 0.629126 0
0 0.643083 0
0 0.654187 0
0 0.662816 0
0 0.669259 0
0 0.673737 0
0 0.676411 0
0 0.677391 0
0 0.676744 0
0 0.674497 0
0 0.670637 0
0 0.665116 0
0 0.657847 0
0 0.6487 0
0 0.637499 0
0 0.624019 0
0 0.60797 0
0 0.588995 0
0 0.566659 0
0 0.540435 0
0 0.509704 0
0 0.473757 0
0 0.431828 0
0 0.383163 0
0 0.327159 0
0 0.263608 0
0 0.193048 0
0 0.11717 0
0 0.0390992 0
0 0.0461972 0
0 0.134774 0
0 0.215072 0
0 0.286204 0
0 0.348037 0
0 0.401024 0
0 0.445964 0
0 0.483799 0
0 0.515473 0
0 0.541858 0
0 0.563716 0
0 0.581693 0
0 0.596322 0
0 0.608037 0
0 0.617186 0
0 0.624042 0
0 0.628815 0
0 0.631662 0
0 0.632692 0
0 0.63197 0
0 0.629525 0
0 0.625349 0
0 0.619395 0
0 0.611582 0
0 0.601791 0
0 0.589859 0
0 0.575581 0
0 0.558701 0
0 0.538912 0
0 0.51585 0
0 0.489095 0
0 0.458183 0
0 0.422619 0
0 0.381927 0
0 0.335718 0
0 0.283812 0
0 0.226407 0
0 0.16428 0
0 0.098981 0
0 0.0328926 0
0 0.0405527 0
0 0.118571 0
0 0.18999 0
0 0.254176 0
0 0.310934 0
0 0.360455 0
0 0.4032 0
0 0.43978 0
0 0.47086 0
0 0.497087 0
0 0.519056 0
0 0.537294 0
0 0.552252 0
0 0.564304 0
0 0.573762 0
0 0.580873 0
0 0.585832 0
0 0.588785 0
0 0.589836 0
0 0.58905 0
0 0.586455 0
0 0.582046 0
0 0.575784 0
0 0.567596 0
0 0.557375 0
0 0.54498 0
0 0.530234 0
0 0.512919 0
0 0.492784 0
0 0.469541 0
0 0.442875 0
0 0.412459 0
0 0.377977 0
0 0.33917 0
0 0.295898 0
0 0.248228 0
0 0.196547 0
0 0.141671 0
0 0.0849268 0
0 0.0281435 0
0 0.0359459 0
0 0.105265 0
0 0.16916 0
0 0.227192 0
0 0.27917 0
0 0.325158 0
0 0.365417 0
0 0.400338 0
0 0.430381 0
0 0.456019 0
0 0.477708 0
0 0.495867 0
0 0.510864 0
0 0.52302 0
0 0.532601 0
0 0.539827 0
0 0.544872 0
0 0.547871 0
0 0.54892 0
0 0.54808 0
0 0.545381 0
0 0.54082 0
0 0.534365 0
0 0.525955 0
0 0.515501 0
0 0.502882 0
0 0.487953 0
0 0.470538 0
0 0.450442 0
0 0.427448 0
0 0.401335 0
0 0.371889 0
0 0.338934 0
0 0.302364 0
0 0.262198 0
0 0.218638 0
0 0.172142 0
0 0.123477 0
0 0.0737519 0
0 0.0243925 0
0 0.0320962 0
0 0.0940972 0
0 0.151536 0
0 0.204113 0
0 0.25167 0
0 0.294208 0
0 0.33187 0
0 0.364905 0
0 0.393625 0
0 0.418371 0
0 0.439488 0
0 0.4573 0
0 0.472106 0
0 0.48417 0
0 0.493717 0
0 0.500938 0
0 0.505985 0
0 0.508978 0
0 0.510004 0
0 0.509122 0
0 0.506359 0
0 0.501719 0
0 0.495176 0
0 0.486682 0
0 0.476165 0
0 0.463528 0
0 0.448656 0
0 0.431416 0
0 0.411661 0
0 0.389241 0
0 0.364011 0
0 0.335849 0
0 0.304679 0
0 0.270501 0
0 0.233428 0
0 0.19373 0
0 0.15187 0
0 0.108538 0
0 0.0646565 0
0 0.021354 0
0 0.0288186 0
0 0.0845585 0
0 0.136392 0
0 0.184121 0
0 0.227622 0
0 0.266869 0
0 0.301935 0
0 0.332976 0
0 0.360202 0
0 0.383854 0
0 0.404188 0
0 0.421455 0
0 0.43589 0
0 0.447706 0
0 0.457091 0
0 0.464206 0
0 0.469183 0
0 0.472127 0
0 0.473116 0
0 0.472202 0
0 0.469415 0
0 0.46476 0
0 0.45822 0
0 0.44976 0
0 0.439325 0
0 0.42684 0
0 0.412221 0
0 0.395371 0
0 0.376189 0
0 0.354577 0
0 0.330453 0
0 0.303765 0
0 0.274508 0
0 0.242749 0
0 0.208657 0
0 0.172523 0
0 0.134789 0
0 0.0960617 0
0 0.0571095 0
0 0.0188415 0
0 0.0259857 0
0 0.0762947 0
0 0.123213 0
0 0.166615 0
0 0.206407 0
0 0.242556 0
0 0.275095 0
0 0.304115 0
0 0.329756 0
0 0.352189 0
0 0.3716 0
0 0.388177 0
0 0.402105 0
0 0.413553 0
0 0.422676 0
0 0.429606 0
0 0.434456 0
0 0.437315 0
0 0.438254 0
0 0.43732 0
0 0.434542 0
0 0.429928 0
0 0.42347 0
0 0.415143 0
0 0.404908 0
0 0.392713 0
0 0.3785 0
0 0.362203 0
0 0.34376 0
0 0.323117 0
0 0.30024 0
0 0.275127 0
0 0.247821 0
0 0.218434 0
0 0.187156 0
0 0.154281 0
0 0.120216 0
0 0.08549 0
0 0.0507461 0
0 0.0167286 0
0 0.0235074 0
0 0.0690522 0
0 0.111623 0
0 0.151144 0
0 0.18755 0
0 0.220806 0
0 0.25092 0
0 0.277945 0
0 0.301972 0
0 0.323117 0
0 0.341514 0
0 0.357304 0
0 0.370628 0
0 0.381621 0
0 0.390404 0
0 0.397088 0
0 0.401766 0
0 0.404515 0
0 0.405396 0
0 0.404452 0
0 0.401711 0
0 0.397185 0
0 0.390872 0
0 0.382758 0
0 0.372818 0
0 0.361021 0
0 0.347329 0
0 0.331704 0
0 0.314116 0
0 0.294544 0
0 0.272991 0
0 0.249489 0
0 0.224116 0
0 0.197003 0
0 0.168352 0
0 0.138444 0
0 0.107647 0
0 0.0764208 0
0 0.0453081 0
0 0.0149266 0
0 0.0213176 0
0 0.0626438 0
0 0.101339 0
0 0.137367 0
0 0.170678 0
0 0.201243 0
0 0.229057 0
0 0.254147 0
0 0.276568 0
0 0.296399 0
0 0.313734 0
0 0.328676 0
0 0.341332 0
0 0.351805 0
0 0.360194 0
0 0.366587 0
0 0.37106 0
0 0.37368 0
0 0.374498 0
0 0.373554 0
0 0.370874 0
0 0.366474 0
0 0.360357 0
0 0.352519 0
0 0.342948 0
0 0.331627 0
0 0.318539 0
0 0.303668 0
0 0.287007 0
0 0.268564 0
0 0.248365 0
0 0.226468 0
0 0.20297 0
0 0.178012 0
0 0.151795 0
0 0.124582 0
0 0.0967038 0
0 0.068558 0
0 0.0406076 0
0 0.0133714 0
0 0.0193668 0
0 0.0569287 0
0 0.092149 0
0 0.125015 0
0 0.155497 0
0 0.183567 0
0 0.209213 0
0 0.232446 0
0 0.253298 0
0 0.271818 0
0 0.288072 0
0 0.302134 0
0 0.314083 0
0 0.323997 0
0 0.331954 0
0 0.338024 0
0 0.342271 0
0 0.344748 0
0 0.345501 0
0 0.344565 0
0 0.341967 0
0 0.337722 0
0 0.331841 0
0 0.324326 0
0 0.315177 0
0 0.304389 0
0 0.291961 0
0 0.277895 0
0 0.262203 0
0 0.24491 0
0 0.226063 0
0 0.205734 0
0 0.184031 0
0 0.161097 0
0 0.137127 0
0 0.112362 0
0 0.0870966 0
0 0.0616789 0
0 0.036505 0
0 0.0120158 0
0 0.0176171 0
0 0.0517982 0
0 0.0838847 0
0 0.113882 0
0 0.141771 0
0 0.16753 0
0 0.191143 0
0 0.21261 0
0 0.231946 0
0 0.249181 0
0 0.264358 0
0 0.277529 0
0 0.288751 0
0 0.298084 0
0 0.305586 0
0 0.311314 0
0 0.315319 0
0 0.317646 0
0 0.318334 0
0 0.317415 0
0 0.314912 0
0 0.310846 0
0 0.30523 0
0 0.298072 0
0 0.289382 0
0 0.279164 0
0 0.267431 0
0 0.254197 0
0 0.239488 0
0 0.223344 0
0 0.205822 0
0 0.187006 0
0 0.167004 0
0 0.145961 0
0 0.124059 0
0 0.101518 0
0 0.0786017 0
0 0.0556131 0
0 0.0328945 0
0 0.0108239 0
0 0.0160388 0
0 0.0471669 0
0 0.0764144 0
0 0.103799 0
0 0.12931 0
0 0.152929 0
0 0.174641 0
0 0.194436 0
0 0.212321 0
0 0.22831 0
0 0.24243 0
0 0.254716 0
0 0.265208 0
0 0.27395 0
0 0.280988 0
0 0.286364 0
0 0.29012 0
0 0.292294 0
0 0.292918 0
0 0.292021 0
0 0.289627 0
0 0.285756 0
0 0.280425 0
0 0.273647 0
0 0.265438 0
0 0.255813 0
0 0.24479 0
0 0.232396 0
0 0.218667 0
0 0.203651 0
0 0.187413 0
0 0.17004 0
0 0.151643 0
0 0.132359 0
0 0.112359 0
0 0.0918421 0
0 0.0710432 0
0 0.0502281 0
0 0.0296942 0
0 0.00976831 0
0 0.0146082 0
0 0.0429667 0
0 0.0696319 0
0 0.0946289 0
0 0.117955 0
0 0.139594 0
0 0.159531 0
0 0.177753 0
0 0.194257 0
0 0.209048 0
0 0.222142 0
0 0.233561 0
0 0.243332 0
0 0.251486 0
0 0.258057 0
0 0.263078 0
0 0.266584 0
0 0.268603 0
0 0.269166 0
0 0.268298 0
0 0.266021 0
0 0.262356 0
0 0.257322 0
0 0.250938 0
0 0.243223 0
0 0.234198 0
0 0.223889 0
0 0.21233 0
0 0.199562 0
0 0.185641 0
0 0.170635 0
0 0.154631 0
0 0.137739 0
0 0.120089 0
0 0.101837 0
0 0.0831643 0
0 0.0642804 0
0 0.045419 0
0 0.0268399 0
0 0.00882745 0
0 0.0133061 0
0 0.0391422 0
0 0.0634504 0
0 0.0862609 0
0 0.107575 0
0 0.127382 0
0 0.145664 0
0 0.162407 0
0 0.177604 0
0 0.191253 0
0 0.20336 0
0 0.213938 0
0 0.223003 0
0 0.230579 0
0 0.236689 0
0 0.241359 0
0 0.244616 0
0 0.246485 0
0 0.24699 0
0 0.246154 0
0 0.244 0
0 0.240548 0
0 0.235819 0
0 0.229834 0
0 0.222615 0
0 0.214189 0
0 0.204587 0
0 0.193846 0
0 0.182013 0
0 0.169144 0
0 0.155312 0
0 0.140601 0
0 0.125116 0
0 0.10898 0
0 0.0923352 0
0 0.0753467 0
0 0.0582 0
0 0.0411019 0
0 0.0242803 0
0 0.00798419 0
0 0.0121168 0
0 0.0356475 0
0 0.0577979 0
0 0.0786008 0
0 0.0980613 0
0 0.11617 0
0 0.13291 0
0 0.148269 0
0 0.162233 0
0 0.174796 0
0 0.18596 0
0 0.195728 0
0 0.204111 0
0 0.211124 0
0 0.216784 0
0 0.221111 0
0 0.224124 0
0 0.225846 0
0 0.226297 0
0 0.225498 0
0 0.22347 0
0 0.220234 0
0 0.215811 0
0 0.210224 0
0 0.203498 0
0 0.195663 0
0 0.186752 0
0 0.176805 0
0 0.165872 0
0 0.15401 0
0 0.14129 0
0 0.127795 0
0 0.113624 0
0 0.0988897 0
0 0.0837242 0
0 0.0682755 0
0 0.0527092 0
0 0.0372084 0
0 0.0219739 0
0 0.00722469 0
0 0.011027 0
0 0.0324444 0
0 0.0526138 0
0 0.0715693 0
0 0.089318 0
0 0.105852 0
0 0.121158 0
0 0.13522 0
0 0.148023 0
0 0.15956 0
0 0.169826 0
0 0.17882 0
0 0.186547 0
0 0.193017 0
0 0.198242 0
0 0.202235 0
0 0.205014 0
0 0.206595 0
0 0.206996 0
0 0.206237 0
0 0.204336 0
0 0.201316 0
0 0.197196 0
0 0.192003 0
0 0.185761 0
0 0.178502 0
0 0.170261 0
0 0.16108 0
0 0.151008 0
0 0.140103 0
0 0.128434 0
0 0.11608 0
0 0.103132 0
0 0.089697 0
0 0.0758938 0
0 0.0618558 0
0 0.0477312 0
0 0.0336823 0
0 0.0198867 0
0 0.00653763 0
0 0.0100256 0
0 0.0295003 0
0 0.0478464 0
0 0.0650983 0
0 0.0812643 0
0 0.0963386 0
0 0.110308 0
0 0.123157 0
0 0.134871 0
0 0.145439 0
0 0.154853 0
0 0.16311 0
0 0.170211 0
0 0.176161 0
0 0.180967 0
0 0.18464 0
0 0.187193 0
0 0.188639 0
0 0.188994 0
0 0.188277 0
0 0.186504 0
0 0.183697 0
0 0.179876 0
0 0.175067 0
0 0.169296 0
0 0.162595 0
0 0.155 0
0 0.146553 0
0 0.137302 0
0 0.127304 0
0 0.116624 0
0 0.105337 0
0 0.0935296 0
0 0.0812979 0
0 0.0687506 0
0 0.0560078 0
0 0.0432017 0
0 0.0304768 0
0 0.0179904 0
0 0.00591363 0
0 0.009103 0
0 0.026787 0
0 0.0434512 0
0 0.0591287 0
0 0.0738291 0
0 0.0875475 0
0 0.100272 0
0 0.111987 0
0 0.122678 0
0 0.132334 0
0 0.140943 0
0 0.148502 0
0 0.155007 0
0 0.16046 0
0 0.164866 0
0 0.168233 0
0 0.17057 0
0 0.171888 0
0 0.172202 0
0 0.171528 0
0 0.169882 0
0 0.167283 0
0 0.163754 0
0 0.159318 0
0 0.154003 0
0 0.147839 0
0 0.140863 0
0 0.133116 0
0 0.124644 0
0 0.115502 0
0 0.105752 0
0 0.0954649 0
0 0.0847188 0
0 0.0736026 0
0 0.0622147 0
0 0.0506632 0
0 0.0390663 0
0 0.0275525 0
0 0.0162613 0
0 0.0053448 0
0 0.00825074 0
0 0.0242804 0
0 0.0393892 0
0 0.053609 0
0 0.0669497 0
0 0.0794074 0
0 0.0909711 0
0 0.101627 0
0 0.111359 0
0 0.120156 0
0 0.128007 0
0 0.134904 0
0 0.140843 0
0 0.145825 0
0 0.14985 0
0 0.152925 0
0 0.155057 0
0 0.156255 0
0 0.156531 0
0 0.155901 0
0 0.154379 0
0 0.151985 0
0 0.148738 0
0 0.144662 0
0 0.139785 0
0 0.134137 0
0 0.127751 0
0 0.120669 0
0 0.112935 0
0 0.104601 0
0 0.0957251 0
0 0.0863717 0
0 0.0766141 0
0 0.0665329 0
0 0.0562171 0
0 0.0457638 0
0 0.0352785 0
0 0.0248756 0
0 0.0146793 0
0 0.00482446 0
0 0.00746152 0
0 0.0219588 0
0 0.0356259 0
0 0.0484932 0
0 0.0605703 0
0 0.0718543 0
0 0.0823351 0
0 0.0919992 0
0 0.100833 0
0 0.108823 0
0 0.115958 0
0 0.12223 0
0 0.127635 0
0 0.132169 0
0 0.135833 0
0 0.138631 0
0 0.140568 0
0 0.141653 0
0 0.141896 0
0 0.14131 0
0 0.139909 0
0 0.137712 0
0 0.134738 0
0 0.131009 0
0 0.126552 0
0 0.121395 0
0 0.115573 0
0 0.109122 0
0 0.102086 0
0 0.0945124 0
0 0.0864558 0
0 0.0779761 0
0 0.0691398 0
0 0.0600202 0
0 0.0506975 0
0 0.0412586 0
0 0.0317979 0
0 0.0224173 0
0 0.013227 0
0 0.00434687 0
0 0.0067288 0
0 0.0198031 0
0 0.0321309 0
0 0.0437403 0
0 0.0546409 0
0 0.0648302 0
0 0.0742992 0
0 0.0830354 0
0 0.0910255 0
0 0.0982567 0
0 0.104718 0
0 0.110401 0
0 0.115299 0
0 0.11941 0
0 0.122732 0
0 0.125267 0
0 0.127021 0
0 0.127999 0
0 0.128212 0
0 0.12767 0
0 0.126388 0
0 0.124382 0
0 0.121669 0
0 0.118273 0
0 0.114217 0
0 0.109529 0
0 0.104241 0
0 0.0983888 0
0 0.0920116 0
0 0.0851546 0
0 0.0778674 0
0 0.0702052 0
0 0.0622286 0
0 0.0540037 0
0 0.0456026 0
0 0.0371032 0
0 0.0285896 0
0 0.0201523 0
0 0.0118893 0
0 0.00390704 0
0 0.00604669 0
0 0.0177962 0
0 0.0288763 0
0 0.0393132 0
0 0.0491158 0
0 0.0582823 0
0 0.0668045 0
0 0.0746709 0
0 0.081869 0
0 0.0883866 0
0 0.094213 0
0 0.0993395 0
0 0.10376 0
0 0.10747 0
0 0.110468 0
0 0.112755 0
0 0.114335 0
0 0.115214 0
0 0.1154 0
0 0.114902 0
0 0.113735 0
0 0.111912 0
0 0.109451 0
0 0.106372 0
0 0.102699 0
0 0.0984579 0
0 0.0936775 0
0 0.0883913 0
0 0.0826364 0
0 0.076454 0
0 0.0698896 0
0 0.0629933 0
0 0.0558199 0
0 0.0484291 0
0 0.0408854 0
0 0.0332582 0
0 0.0256224 0
0 0.0180584 0
0 0.010653 0
0 0.0035006 0
0 0.00540988 0
0 0.0159224 0
0 0.0258371 0
0 0.0351779 0
0 0.0439534 0
0 0.0521621 0
0 0.0597965 0
0 0.0668462 0
0 0.0732996 0
0 0.0791453 0
0 0.084373 0
0 0.0889743 0
0 0.0929425 0
0 0.0962735 0
0 0.0989653 0
0 0.101018 0
0 0.102435 0
0 0.10322 0
0 0.103382 0
0 0.102928 0
0 0.101871 0
0 0.100224 0
0 0.0980042 0
0 0.0952296 0
0 0.0919217 0
0 0.0881048 0
0 0.0838061 0
0 0.0790563 0
0 0.0738893 0
0 0.0683428 0
0 0.062458 0
0 0.0562803 0
0 0.0498591 0
0 0.0432476 0
0 0.0365034 0
0 0.0296884 0
0 0.0228688 0
0 0.0161159 0
0 0.00950631 0
0 0.00312368 0
0 0.00481348 0
0 0.0141673 0
0 0.0229901 0
0 0.0313036 0
0 0.0391155 0
0 0.0464248 0
0 0.0532248 0
0 0.059506 0
0 0.0652578 0
0 0.0704697 0
0 0.0751321 0
0 0.0792368 0
0 0.0827775 0
0 0.0857499 0
0 0.0881517 0
0 0.0899827 0
0 0.0912451 0
0 0.0919429 0
0 0.0920824 0
0 0.0916718 0
0 0.0907216 0
0 0.0892444 0
0 0.087255 0
0 0.0847705 0
0 0.0818108 0
0 0.0783978 0
0 0.0745567 0
0 0.0703153 0
0 0.0657044 0
0 0.060758 0
0 0.0555136 0
0 0.0500116 0
0 0.0442962 0
0 0.0384149 0
0 0.0324186 0
0 0.0263622 0
0 0.0203041 0
0 0.0143071 0
0 0.00843882 0
0 0.00277283 0
0 0.00425298 0
0 0.0125179 0
0 0.0203141 0
0 0.0276612 0
0 0.0345664 0
0 0.0410286 0
0 0.047042 0
0 0.0525982 0
0 0.0576875 0
0 0.0623003 0
0 0.0664278 0
0 0.0700624 0
0 0.073198 0
0 0.0758304 0
0 0.0779572 0
0 0.0795781 0
0 0.0806946 0
0 0.0813101 0
0 0.08143 0
0 0.0810618 0
0 0.0802147 0
0 0.0789002 0
0 0.0771317 0
0 0.0749247 0
0 0.0722971 0
0 0.0692689 0
0 0.0658629 0
0 0.0621039 0
0 0.05802 0
0 0.0536414 0
0 0.0490016 0
0 0.0441366 0
0 0.0390856 0
0 0.0338904 0
0 0.0285961 0
0 0.0232508 0
0 0.0179058 0
0 0.0126161 0
0 0.00744101 0
0 0.0024449 0
0 0.00372419 0
0 0.0109616 0
0 0.0177891 0
0 0.024224 0
0 0.0302726 0
0 0.0359343 0
0 0.0412039 0
0 0.0460738 0
0 0.0505356 0
0 0.0545805 0
0 0.0582005 0
0 0.0613888 0
0 0.0641397 0
0 0.0664492 0
0 0.0683149 0
0 0.0697363 0
0 0.0707146 0
0 0.0712525 0
0 0.0713549 0
0 0.0710283 0
0 0.0702808 0
0 0.0691227 0
0 0.067566 0
0 0.0656245 0
0 0.0633143 0
0 0.0606533 0
0 0.0576617 0
0 0.0543618 0
0 0.0507784 0
0 0.0469383 0
0 0.0428711 0
0 0.0386085 0
0 0.0341849 0
0 0.0296369 0
0 0.0250039 0
0 0.0203278 0
0 0.0156533 0
0 0.0110283 0
0 0.00650422 0
0 0.00213705 0
0 0.00322318 0
0 0.00948708 0
0 0.0153965 0
0 0.0209666 0
0 0.026203 0
0 0.0311051 0
0 0.0356684 0
0 0.0398865 0
0 0.0437517 0
0 0.0472564 0
0 0.0503935 0
0 0.0531568 0
0 0.0555412 0
0 0.057543 0
0 0.0591601 0
0 0.0603916 0
0 0.0612385 0
0 0.0617032 0
0 0.0617898 0
0 0.0615039 0
0 0.0608527 0
0 0.0598452 0
0 0.0584919 0
0 0.0568052 0
0 0.054799 0
0 0.0524891 0
0 0.0498935 0
0 0.0470315 0
0 0.043925 0
0 0.0405974 0
0 0.0370743 0
0 0.0333835 0
0 0.0295547 0
0 0.0256197 0
0 0.0216124 0
0 0.0175689 0
0 0.0135279 0
0 0.0095303 0
0 0.00562051 0
0 0.00184665 0
0 0.00274623 0
0 0.0080833 0
0 0.0131186 0
0 0.017865 0
0 0.0223276 0
0 0.0265057 0
0 0.0303957 0
0 0.0339918 0
0 0.0372876 0
0 0.0402764 0
0 0.0429522 0
0 0.0453092 0
0 0.0473433 0
0 0.0490509 0
0 0.0504302 0
0 0.0514803 0
0 0.052202 0
0 0.0525972 0
0 0.0526695 0
0 0.0524235 0
0 0.0518656 0
0 0.0510035 0
0 0.0498462 0
0 0.0484044 0
0 0.0466902 0
0 0.0447174 0
0 0.0425012 0
0 0.0400585 0
0 0.0374081 0
0 0.03457 0
0 0.0315663 0
0 0.0284206 0
0 0.0251582 0
0 0.0218064 0
0 0.0183939 0
0 0.0149515 0
0 0.0115117 0
0 0.00810954 0
0 0.00478246 0
0 0.00157128 0
0 0.0022898 0
0 0.00673989 0
0 0.0109385 0
0 0.0148965 0
0 0.018618 0
0 0.0221027 0
0 0.0253474 0
0 0.0283473 0
0 0.0310971 0
0 0.033591 0
0 0.0358239 0
0 0.037791 0
0 0.0394886 0
0 0.0409138 0
0 0.0420648 0
0 0.0429409 0
0 0.0435426 0
0 0.0438716 0
0 0.0439308 0
0 0.043724 0
0 0.0432567 0
0 0.0425352 0
0 0.0415673 0
0 0.0403619 0
0 0.0389294 0
0 0.0372811 0
0 0.0354301 0
0 0.0333906 0
0 0.0311782 0
0 0.0288099 0
0 0.0263041 0
0 0.0236806 0
0 0.0209605 0
0 0.0181665 0
0 0.0153225 0
0 0.0124541 0
0 0.00958837 0
0 0.00675435 0
0 0.00398315 0
0 0.00130865 0
0 0.00185051 0
0 0.00544689 0
0 0.0088401 0
0 0.012039 0
0 0.015047 0
0 0.0178638 0
0 0.0204868 0
0 0.0229122 0
0 0.0251354 0
0 0.0271521 0
0 0.0289577 0
0 0.0305486 0
0 0.0319215 0
0 0.0330741 0
0 0.0340049 0
0 0.0347132 0
0 0.0351995 0
0 0.035465 0
0 0.035512 0
0 0.0353439 0
0 0.0349648 0
0 0.03438 0
0 0.0335958 0
0 0.0326196 0
0 0.0314598 0
0 0.0301256 0
0 0.0286277 0
0 0.0269777 0
0 0.0251882 0
0 0.023273 0
0 0.0212471 0
0 0.0191265 0
0 0.0169283 0
0 0.0146708 0
0 0.0123733 0
0 0.0100565 0
0 0.00774217 0
0 0.00545365 0
0 0.00321604 0
0 0.00105661 0
0 0.00142508 0
0 0.00419467 0
0 0.00680786 0
0 0.00927151 0
0 0.0115882 0
0 0.0137578 0
0 0.0157782 0
0 0.0176466 0
0 0.0193593 0
0 0.020913 0
0 0.0223043 0
0 0.0235301 0
0 0.0245879 0
0 0.025476 0
0 0.0261931 0
0 0.0267388 0
0 0.0271132 0
0 0.0273175 0
0 0.0273532 0
0 0.027223 0
0 0.0269302 0
0 0.0264788 0
0 0.0258738 0
0 0.0251208 0
0 0.0242263 0
0 0.0231976 0
0 0.0220429 0
0 0.0207711 0
0 0.019392 0
0 0.0179165 0
0 0.0163559 0
0 0.0147226 0
0 0.0130298 0
0 0.0112916 0
0 0.00952289 0
0 0.00773948 0
0 0.00595818 0
0 0.00419689 0
0 0.00247488 0
0 0.000813097 0
0 0.00101034 0
0 0.0029739 0
0 0.00482661 0
0 0.00657335 0
0 0.00821595 0
0 0.00975429 0
0 0.011187 0
0 0.0125118 0
0 0.0137265 0
0 0.0148283 0
0 0.015815 0
0 0.0166844 0
0 0.0174347 0
0 0.0180646 0
0 0.0185732 0
0 0.0189601 0
0 0.0192255 0
0 0.0193702 0