# vtk DataFile Version 2.0
Presion
ASCII

DATASET STRUCTURED_GRID
DIMENSIONS   40   40   20

POINTS   32000   double
0.0125   0.0125   0.025
0.0375   0.0125   0.025
0.0625   0.0125   0.025
0.0875   0.0125   0.025
0.1125   0.0125   0.025
0.1375   0.0125   0.025
0.1625   0.0125   0.025
0.1875   0.0125   0.025
0.2125   0.0125   0.025
0.2375   0.0125   0.025
0.2625   0.0125   0.025
0.2875   0.0125   0.025
0.3125   0.0125   0.025
0.3375   0.0125   0.025
0.3625   0.0125   0.025
0.3875   0.0125   0.025
0.4125   0.0125   0.025
0.4375   0.0125   0.025
0.4625   0.0125   0.025
0.4875   0.0125   0.025
0.5125   0.0125   0.025
0.5375   0.0125   0.025
0.5625   0.0125   0.025
0.5875   0.0125   0.025
0.6125   0.0125   0.025
0.6375   0.0125   0.025
0.6625   0.0125   0.025
0.6875   0.0125   0.025
0.7125   0.0125   0.025
0.7375   0.0125   0.025
0.7625   0.0125   0.025
0.7875   0.0125   0.025
0.8125   0.0125   0.025
0.8375   0.0125   0.025
0.8625   0.0125   0.025
0.8875   0.0125   0.025
0.9125   0.0125   0.025
0.9375   0.0125   0.025
0.9625   0.0125   0.025
0.9875   0.0125   0.025
0.0125   0.0375   0.025
0.0375   0.0375   0.025
0.0625   0.0375   0.025
0.0875   0.0375   0.025
0.1125   0.0375   0.025
0.1375   0.0375   0.025
0.1625   0.0375   0.025
0.1875   0.0375   0.025
0.2125   0.0375   0.025
0.2375   0.0375   0.025
0.2625   0.0375   0.025
0.2875   0.0375   0.025
0.3125   0.0375   0.025
0.3375   0.0375   0.025
0.3625   0.0375   0.025
0.3875   0.0375   0.025
0.4125   0.0375   0.025
0.4375   0.0375   0.025
0.4625   0.0375   0.025
0.4875   0.0375   0.025
0.5125   0.0375   0.025
0.5375   0.0375   0.025
0.5625   0.0375   0.025
0.5875   0.0375   0.025
0.6125   0.0375   0.025
0.6375   0.0375   0.025
0.6625   0.0375   0.025
0.6875   0.0375   0.025
0.7125   0.0375   0.025
0.7375   0.0375   0.025
0.7625   0.0375   0.025
0.7875   0.0375   0.025
0.8125   0.0375   0.025
0.8375   0.0375   0.025
0.8625   0.0375   0.025
0.8875   0.0375   0.025
0.9125   0.0375   0.025
0.9375   0.0375   0.025
0.9625   0.0375   0.025
0.9875   0.0375   0.025
0.0125   0.0625   0.025
0.0375   0.0625   0.025
0.0625   0.0625   0.025
0.0875   0.0625   0.025
0.1125   0.0625   0.025
0.1375   0.0625   0.025
0.1625   0.0625   0.025
0.1875   0.0625   0.025
0.2125   0.0625   0.025
0.2375   0.0625   0.025
0.2625   0.0625   0.025
0.2875   0.0625   0.025
0.3125   0.0625   0.025
0.3375   0.0625   0.025
0.3625   0.0625   0.025
0.3875   0.0625   0.025
0.4125   0.0625   0.025
0.4375   0.0625   0.025
0.4625   0.0625   0.025
0.4875   0.0625   0.025
0.5125   0.0625   0.025
0.5375   0.0625   0.025
0.5625   0.0625   0.025
0.5875   0.0625   0.025
0.6125   0.0625   0.025
0.6375   0.0625   0.025
0.6625   0.0625   0.025
0.6875   0.0625   0.025
0.7125   0.0625   0.025
0.7375   0.0625   0.025
0.7625   0.0625   0.025
0.7875   0.0625   0.025
0.8125   0.0625   0.025
0.8375   0.0625   0.025
0.8625   0.0625   0.025
0.8875   0.0625   0.025
0.9125   0.0625   0.025
0.9375   0.0625   0.025
0.9625   0.0625   0.025
0.9875   0.0625   0.025
0.0125   0.0875   0.025
0.0375   0.0875   0.025
0.0625   0.0875   0.025
0.0875   0.0875   0.025
0.1125   0.0875   0.025
0.1375   0.0875   0.025
0.1625   0.0875   0.025
0.1875   0.0875   0.025
0.2125   0.0875   0.025
0.2375   0.0875   0.025
0.2625   0.0875   0.025
0.2875   0.0875   0.025
0.3125   0.0875   0.025
0.3375   0.0875   0.025
0.3625   0.0875   0.025
0.3875   0.0875   0.025
0.4125   0.0875   0.025
0.4375   0.0875   0.025
0.4625   0.0875   0.025
0.4875   0.0875   0.025
0.5125   0.0875   0.025
0.5375   0.0875   0.025
0.5625   0.0875   0.025
0.5875   0.0875   0.025
0.6125   0.0875   0.025
0.6375   0.0875   0.025
0.6625   0.0875   0.025
0.6875   0.0875   0.025
0.7125   0.0875   0.025
0.7375   0.0875   0.025
0.7625   0.0875   0.025
0.7875   0.0875   0.025
0.8125   0.0875   0.025
0.8375   0.0875   0.025
0.8625   0.0875   0.025
0.8875   0.0875   0.025
0.9125   0.0875   0.025
0.9375   0.0875   0.025
0.9625   0.0875   0.025
0.9875   0.0875   0.025
0.0125   0.1125   0.025
0.0375   0.1125   0.025
0.0625   0.1125   0.025
0.0875   0.1125   0.025
0.1125   0.1125   0.025
0.1375   0.1125   0.025
0.1625   0.1125   0.025
0.1875   0.1125   0.025
0.2125   0.1125   0.025
0.2375   0.1125   0.025
0.2625   0.1125   0.025
0.2875   0.1125   0.025
0.3125   0.1125   0.025
0.3375   0.1125   0.025
0.3625   0.1125   0.025
0.3875   0.1125   0.025
0.4125   0.1125   0.025
0.4375   0.1125   0.025
0.4625   0.1125   0.025
0.4875   0.1125   0.025
0.5125   0.1125   0.025
0.5375   0.1125   0.025
0.5625   0.1125   0.025
0.5875   0.1125   0.025
0.6125   0.1125   0.025
0.6375   0.1125   0.025
0.6625   0.1125   0.025
0.6875   0.1125   0.025
0.7125   0.1125   0.025
0.7375   0.1125   0.025
0.7625   0.1125   0.025
0.7875   0.1125   0.025
0.8125   0.1125   0.025
0.8375   0.1125   0.025
0.8625   0.1125   0.025
0.8875   0.1125   0.025
0.9125   0.1125   0.025
0.9375   0.1125   0.025
0.9625   0.1125   0.025
0.9875   0.1125   0.025
0.0125   0.1375   0.025
0.0375   0.1375   0.025
0.0625   0.1375   0.025
0.0875   0.1375   0.025
0.1125   0.1375   0.025
0.1375   0.1375   0.025
0.1625   0.1375   0.025
0.1875   0.1375   0.025
0.2125   0.1375   0.025
0.2375   0.1375   0.025
0.2625   0.1375   0.025
0.2875   0.1375   0.025
0.3125   0.1375   0.025
0.3375   0.1375   0.025
0.3625   0.1375   0.025
0.3875   0.1375   0.025
0.4125   0.1375   0.025
0.4375   0.1375   0.025
0.4625   0.1375   0.025
0.4875   0.1375   0.025
0.5125   0.1375   0.025
0.5375   0.1375   0.025
0.5625   0.1375   0.025
0.5875   0.1375   0.025
0.6125   0.1375   0.025
0.6375   0.1375   0.025
0.6625   0.1375   0.025
0.6875   0.1375   0.025
0.7125   0.1375   0.025
0.7375   0.1375   0.025
0.7625   0.1375   0.025
0.7875   0.1375   0.025
0.8125   0.1375   0.025
0.8375   0.1375   0.025
0.8625   0.1375   0.025
0.8875   0.1375   0.025
0.9125   0.1375   0.025
0.9375   0.1375   0.025
0.9625   0.1375   0.025
0.9875   0.1375   0.025
0.0125   0.1625   0.025
0.0375   0.1625   0.025
0.0625   0.1625   0.025
0.0875   0.1625   0.025
0.1125   0.1625   0.025
0.1375   0.1625   0.025
0.1625   0.1625   0.025
0.1875   0.1625   0.025
0.2125   0.1625   0.025
0.2375   0.1625   0.025
0.2625   0.1625   0.025
0.2875   0.1625   0.025
0.3125   0.1625   0.025
0.3375   0.1625   0.025
0.3625   0.1625   0.025
0.3875   0.1625   0.025
0.4125   0.1625   0.025
0.4375   0.1625   0.025
0.4625   0.1625   0.025
0.4875   0.1625   0.025
0.5125   0.1625   0.025
0.5375   0.1625   0.025
0.5625   0.1625   0.025
0.5875   0.1625   0.025
0.6125   0.1625   0.025
0.6375   0.1625   0.025
0.6625   0.1625   0.025
0.6875   0.1625   0.025
0.7125   0.1625   0.025
0.7375   0.1625   0.025
0.7625   0.1625   0.025
0.7875   0.1625   0.025
0.8125   0.1625   0.025
0.8375   0.1625   0.025
0.8625   0.1625   0.025
0.8875   0.1625   0.025
0.9125   0.1625   0.025
0.9375   0.1625   0.025
0.9625   0.1625   0.025
0.9875   0.1625   0.025
0.0125   0.1875   0.025
0.0375   0.1875   0.025
0.0625   0.1875   0.025
0.0875   0.1875   0.025
0.1125   0.1875   0.025
0.1375   0.1875   0.025
0.1625   0.1875   0.025
0.1875   0.1875   0.025
0.2125   0.1875   0.025
0.2375   0.1875   0.025
0.2625   0.1875   0.025
0.2875   0.1875   0.025
0.3125   0.1875   0.025
0.3375   0.1875   0.025
0.3625   0.1875   0.025
0.3875   0.1875   0.025
0.4125   0.1875   0.025
0.4375   0.1875   0.025
0.4625   0.1875   0.025
0.4875   0.1875   0.025
0.5125   0.1875   0.025
0.5375   0.1875   0.025
0.5625   0.1875   0.025
0.5875   0.1875   0.025
0.6125   0.1875   0.025
0.6375   0.1875   0.025
0.6625   0.1875   0.025
0.6875   0.1875   0.025
0.7125   0.1875   0.025
0.7375   0.1875   0.025
0.7625   0.1875   0.025
0.7875   0.1875   0.025
0.8125   0.1875   0.025
0.8375   0.1875   0.025
0.8625   0.1875   0.025
0.8875   0.1875   0.025
0.9125   0.1875   0.025
0.9375   0.1875   0.025
0.9625   0.1875   0.025
0.9875   0.1875   0.025
0.0125   0.2125   0.025
0.0375   0.2125   0.025
0.0625   0.2125   0.025
0.0875   0.2125   0.025
0.1125   0.2125   0.025
0.1375   0.2125   0.025
0.1625   0.2125   0.025
0.1875   0.2125   0.025
0.2125   0.2125   0.025
0.2375   0.2125   0.025
0.2625   0.2125   0.025
0.2875   0.2125   0.025
0.3125   0.2125   0.025
0.3375   0.2125   0.025
0.3625   0.2125   0.025
0.3875   0.2125   0.025
0.4125   0.2125   0.025
0.4375   0.2125   0.025
0.4625   0.2125   0.025
0.4875   0.2125   0.025
0.5125   0.2125   0.025
0.5375   0.2125   0.025
0.5625   0.2125   0.025
0.5875   0.2125   0.025
0.6125   0.2125   0.025
0.6375   0.2125   0.025
0.6625   0.2125   0.025
0.6875   0.2125   0.025
0.7125   0.2125   0.025
0.7375   0.2125   0.025
0.7625   0.2125   0.025
0.7875   0.2125   0.025
0.8125   0.2125   0.025
0.8375   0.2125   0.025
0.8625   0.2125   0.025
0.8875   0.2125   0.025
0.9125   0.2125   0.025
0.9375   0.2125   0.025
0.9625   0.2125   0.025
0.9875   0.2125   0.025
0.0125   0.2375   0.025
0.0375   0.2375   0.025
0.0625   0.2375   0.025
0.0875   0.2375   0.025
0.1125   0.2375   0.025
0.1375   0.2375   0.025
0.1625   0.2375   0.025
0.1875   0.2375   0.025
0.2125   0.2375   0.025
0.2375   0.2375   0.025
0.2625   0.2375   0.025
0.2875   0.2375   0.025
0.3125   0.2375   0.025
0.3375   0.2375   0.025
0.3625   0.2375   0.025
0.3875   0.2375   0.025
0.4125   0.2375   0.025
0.4375   0.2375   0.025
0.4625   0.2375   0.025
0.4875   0.2375   0.025
0.5125   0.2375   0.025
0.5375   0.2375   0.025
0.5625   0.2375   0.025
0.5875   0.2375   0.025
0.6125   0.2375   0.025
0.6375   0.2375   0.025
0.6625   0.2375   0.025
0.6875   0.2375   0.025
0.7125   0.2375   0.025
0.7375   0.2375   0.025
0.7625   0.2375   0.025
0.7875   0.2375   0.025
0.8125   0.2375   0.025
0.8375   0.2375   0.025
0.8625   0.2375   0.025
0.8875   0.2375   0.025
0.9125   0.2375   0.025
0.9375   0.2375   0.025
0.9625   0.2375   0.025
0.9875   0.2375   0.025
0.0125   0.2625   0.025
0.0375   0.2625   0.025
0.0625   0.2625   0.025
0.0875   0.2625   0.025
0.1125   0.2625   0.025
0.1375   0.2625   0.025
0.1625   0.2625   0.025
0.1875   0.2625   0.025
0.2125   0.2625   0.025
0.2375   0.2625   0.025
0.2625   0.2625   0.025
[...]
POINT_DATA   32000
SCALARS Presion double
LOOKUP_TABLE   Presion

0 0 0 0 0 0 0 0 0 0 0 0 0 0 0 0 0 0 0 0 0 0 0 0 0 0 0 0 0 0 0 0 0 0 0 0 0 0 0 0 -5.1828e-06 -5.13915e-06 -5.05916e-06 -4.94675e-06 -4.80444e-06 -4.6341e-06 -4.4373e-06 -4.2154e-06 -3.96958e-06 -3.70082e-06 -3.40989e-06 -3.09736e-06 -2.76347e-06 -2.40821e-06 -2.03136e-06 -1.63247e-06 -1.21094e-06 -7.66042e-07 -2.97077e-07 1.96588e-07 7.15375e-07 1.25935e-06 1.82813e-06 2.42069e-06 3.03519e-06 3.66885e-06 4.31779e-06 4.97689e-06 5.63977e-06 6.29872e-06 6.94481e-06 7.56806e-06 8.15761e-06 8.70224e-06 9.19078e-06 9.61273e-06 9.95888e-06 1.02219e-05 1.03972e-05 1.04833e-05 -1.03553e-05 -1.0269e-05 -1.01098e-05 -9.88542e-06 -9.60091e-06 -9.26014e-06 -8.86635e-06 -8.42237e-06 -7.93062e-06 -7.39318e-06 -6.81164e-06 -6.18721e-06 -5.52035e-06 -4.81112e-06 -4.05904e-06 -3.26319e-06 -2.42234e-06 -1.53501e-06 -5.99709e-07 3.84895e-07 1.41974e-06 2.50505e-06 3.64018e-06 4.8232e-06 6.05057e-06 7.31684e-06 8.61438e-06 9.93308e-06 1.12602e-05 1.25805e-05 1.38759e-05 1.51265e-05 1.63104e-05 1.74049e-05 1.83875e-05 1.92368e-05 1.99342e-05 2.04646e-05 2.08185e-05 2.09929e-05 -1.55269e-05 -1.5398e-05 -1.51594e-05 -1.48225e-05 -1.43949e-05 -1.38826e-05 -1.32908e-05 -1.26237e-05 -1.18853e-05 -1.10788e-05 -1.02068e-05 -9.27118e-06 -8.27276e-06 -7.2116e-06 -6.08699e-06 -4.89749e-06 -3.64114e-06 -2.31559e-06 -9.18442e-07 5.52516e-07 2.09891e-06 3.72137e-06 5.4192e-06 7.18982e-06 9.02825e-06 1.09266e-05 1.28738e-05 1.48549e-05 1.68511e-05 1.88392e-05 2.07924e-05 2.26804e-05 2.447e-05 2.61264e-05 2.76152e-05 2.89035e-05 2.99623e-05 3.07685e-05 3.1307e-05 3.15726e-05 -2.07064e-05 -2.05344e-05 -2.02154e-05 -1.97644e-05 -1.91919e-05 -1.8506e-05 -1.77138e-05 -1.68217e-05 -1.5835e-05 -1.47586e-05 -1.3596e-05 -1.235e-05 -1.10218e-05 -9.61153e-06 -8.11819e-06 -6.53975e-06 -4.87336e-06 -3.11566e-06 -1.26311e-06 6.87625e-07 2.73917e-06 4.89284e-06 7.14831e-06 9.50268e-06 1.19499e-05 1.44803e-05 1.70793e-05 1.97277e-05 2.24006e-05 2.50674e-05 2.76919e-05 3.02334e-05 3.26464e-05 3.48838e-05 3.68979e-05 3.86432e-05 4.00794e-05 4.11742e-05 4.19061e-05 4.22675e-05 -2.59029e-05 -2.56869e-05 -2.52856e-05 -2.4718e-05 -2.39974e-05 -2.31343e-05 -2.21384e-05 -2.10179e-05 -1.97805e-05 -1.84324e-05 -1.69786e-05 -1.5423e-05 -1.37671e-05 -1.20113e-05 -1.01541e-05 -8.19292e-06 -6.12374e-06 -3.94195e-06 -1.64257e-06 7.79187e-07 3.32732e-06 6.0043e-06 8.8106e-06 1.17436e-05 1.47967e-05 1.79587e-05 2.12126e-05 2.4535e-05 2.78953e-05 3.12554e-05 3.45698e-05 3.77868e-05 4.08481e-05 4.36927e-05 4.62585e-05 4.84858e-05 5.03216e-05 5.17228e-05 5.26604e-05 5.31236e-05 -3.1126e-05 -3.08645e-05 -3.03783e-05 -2.96902e-05 -2.88168e-05 -2.77715e-05 -2.65666e-05 -2.52131e-05 -2.37209e-05 -2.20983e-05 -2.03521e-05 -1.84874e-05 -1.65063e-05 -1.44092e-05 -1.21944e-05 -9.85812e-06 -7.3953e-06 -4.79965e-06 -2.06439e-06 8.17159e-07 3.85086e-06 7.04088e-06 1.03891e-05 1.38937e-05 1.75485e-05 2.13414e-05 2.52535e-05 2.92579e-05 3.33186e-05 3.73905e-05 4.14186e-05 4.53392e-05 4.90807e-05 5.25666e-05 5.57185e-05 5.84608e-05 6.07252e-05 6.2456e-05 6.36154e-05 6.41886e-05 -3.63863e-05 -3.60773e-05 -3.55023e-05 -3.46884e-05 -3.36555e-05 -3.24209e-05 -3.09998e-05 -2.94064e-05 -2.76536e-05 -2.57525e-05 -2.37117e-05 -2.1538e-05 -1.92342e-05 -1.6801e-05 -1.42358e-05 -1.15341e-05 -8.68893e-06 -5.6921e-06 -2.53459e-06 7.92708e-07 4.29809e-06 7.98805e-06 1.18666e-05 1.59337e-05 2.01841e-05 2.4606e-05 2.91793e-05 3.38744e-05 3.86509e-05 4.34564e-05 4.82266e-05 5.28856e-05 5.73467e-05 6.15164e-05 6.52979e-05 6.85967e-05 7.13266e-05 7.34169e-05 7.48188e-05 7.55122e-05 -4.16958e-05 -4.13365e-05 -4.06674e-05 -3.97203e-05 -3.85193e-05 -3.70853e-05 -3.5438e-05 -3.35953e-05 -3.15739e-05 -2.93881e-05 -2.70494e-05 -2.45663e-05 -2.19426e-05 -1.9179e-05 -1.62724e-05 -1.32167e-05 -1.00029e-05 -6.62038e-06 -3.05729e-06 6.98456e-07 4.65827e-06 8.83174e-06 1.32258e-05 1.78431e-05 2.26805e-05 2.77274e-05 3.29639e-05 3.83587e-05 4.38676e-05 4.94319e-05 5.49777e-05 6.04162e-05 6.56446e-05 7.05501e-05 7.50147e-05 7.89215e-05 8.21632e-05 8.46504e-05 8.63208e-05 8.71475e-05 -4.70684e-05 -4.66551e-05 -4.58849e-05 -4.47948e-05 -4.34136e-05 -4.17672e-05 -3.988e-05 -3.77752e-05 -3.5474e-05 -3.29951e-05 -3.03534e-05 -2.75595e-05 -2.46187e-05 -2.15315e-05 -1.82941e-05 -1.48982e-05 -1.13323e-05 -7.58284e-06 -3.63439e-06 5.28761e-07 4.92185e-06 9.55836e-06 1.44491e-05 1.96006e-05 2.50128e-05 3.06779e-05 3.65775e-05 4.26801e-05 4.89389e-05 5.52898e-05 6.16493e-05 6.79155e-05 7.39678e-05 7.96717e-05 8.48843e-05 8.94624e-05 9.32728e-05 9.62034e-05 9.81748e-05 9.91512e-05 -5.25205e-05 -5.20484e-05 -5.1168e-05 -4.99219e-05 -4.83447e-05 -4.64681e-05 -4.43229e-05 -4.19386e-05 -3.93426e-05 -3.65588e-05 -3.36066e-05 -3.04997e-05 -2.72446e-05 -2.3842e-05 -2.02862e-05 -1.65667e-05 -1.26688e-05 -8.57471e-06 -4.26517e-06 2.80028e-07 5.08069e-06 1.01551e-05 1.55189e-05 2.11835e-05 2.71538e-05 3.34262e-05 3.99855e-05 4.6802e-05 5.38281e-05 6.09952e-05 6.82113e-05 7.53607e-05 8.23034e-05 8.88802e-05 9.49192e-05 0.000100246 0.000104695 0.000108126 0.000110439 0.000111585 -5.80723e-05 -5.75352e-05 -5.65324e-05 -5.51134e-05 -5.33193e-05 -5.11893e-05 -4.8762e-05 -4.60749e-05 -4.31635e-05 -4.00589e-05 -3.6786e-05 -3.33624e-05 -2.97962e-05 -2.60876e-05 -2.22288e-05 -1.82057e-05 -1.39994e-05 -9.58763e-06 -4.94588e-06 -4.89164e-08 5.12843e-06 1.061e-05 1.64174e-05 2.25683e-05 2.90739e-05 3.5937e-05 4.31478e-05 5.06809e-05 5.84899e-05 6.65041e-05 7.4624e-05 8.27197e-05 9.06303e-05 9.81685e-05 0.000105128 0.000111297 0.000116471 0.000120474 0.000123177 0.000124519 -6.37484e-05 -6.31381e-05 -6.19976e-05 -6.03836e-05 -5.83455e-05 -5.59314e-05 -5.31899e-05 -5.01691e-05 -4.69149e-05 -4.34678e-05 -3.98603e-05 -3.61148e-05 -3.22411e-05 -2.82382e-05 -2.40951e-05 -1.97928e-05 -1.53069e-05 -1.06092e-05 -5.6694e-06 -4.56415e-07 5.06087e-06 1.09126e-05 1.71274e-05 2.37304e-05 3.07411e-05 3.81707e-05 4.60179e-05 5.42645e-05 6.28689e-05 7.1761e-05 8.08355e-05 8.9949e-05 9.89176e-05 0.000107522 0.000115516 0.00012264 0.000128643 0.000133305 0.000136462 0.00013803 -6.95798e-05 -6.8886e-05 -6.75877e-05 -6.57505e-05 -6.34331e-05 -6.06948e-05 -5.75968e-05 -5.4201e-05 -5.05672e-05 -4.67486e-05 -4.27878e-05 -3.87134e-05 -3.45369e-05 -3.02549e-05 -2.58511e-05 -2.12997e-05 -1.65687e-05 -1.16227e-05 -6.42477e-06 -9.37511e-07 4.8766e-06 1.10545e-05 1.76326e-05 2.46448e-05 3.21208e-05 4.00829e-05 4.85418e-05 5.74905e-05 6.68969e-05 7.66956e-05 8.67788e-05 9.69904e-05 0.000107122 0.000116917 0.00012608 0.000134298 0.000141259 0.000146687 0.000150373 0.000152207 -7.5605e-05 -7.48147e-05 -7.33336e-05 -7.12369e-05 -6.85948e-05 -6.54801e-05 -6.19699e-05 -5.81441e-05 -5.40812e-05 -4.98519e-05 -4.5513e-05 -4.1101e-05 -3.66289e-05 -3.20883e-05 -2.74544e-05 -2.26912e-05 -1.77566e-05 -1.26067e-05 -7.19698e-06 -1.48343e-06 4.57771e-06 1.10303e-05 1.79187e-05 2.5287e-05 3.31769e-05 4.16248e-05 5.06574e-05 6.02845e-05 7.04897e-05 8.12189e-05 9.23669e-05 0.000103767 0.000115184 0.000126317 0.000136815 0.000146294 0.00015437 0.000160696 0.000165005 0.000167153 -8.18729e-05 -8.097e-05 -7.92745e-05 -7.68728e-05 -7.3848e-05 -7.02892e-05 -6.62934e-05 -6.1964e-05 -5.74047e-05 -5.27117e-05 -4.79617e-05 -4.32023e-05 -3.84465e-05 -3.36766e-05 -2.88533e-05 -2.39255e-05 -1.88379e-05 -1.35358e-05 -7.96684e-06 -2.08101e-06 4.1708e-06 1.08386e-05 1.79749e-05 2.56343e-05 3.38725e-05 4.27431e-05 5.22936e-05 6.25574e-05 7.35429e-05 8.52173e-05 9.74864e-05 0.000110177 0.000123023 0.000135673 0.000147704 0.000158648 0.000168032 0.000175419 0.000180469 0.00018299 -8.84453e-05 -8.74098e-05 -8.54612e-05 -8.26976e-05 -7.92169e-05 -7.51269e-05 -7.0549e-05 -6.56167e-05 -6.04692e-05 -5.52389e-05 -5.00337e-05 -4.49174e-05 -3.98993e-05 -3.49435e-05 -2.99868e-05 -2.49553e-05 -1.97757e-05 -1.43809e-05 -8.71104e-06 -2.71204e-06 3.66836e-06 1.04844e-05 1.77958e-05 2.56683e-05 3.41726e-05 4.33823e-05 5.33707e-05 6.42036e-05 7.59267e-05 8.85441e-05 0.000101988 0.000116084 0.000130534 0.000144918 0.000158726 0.000171385 0.000182312 0.000190959 0.000196894 0.000199863 -9.53992e-05 -9.42075e-05 -9.19589e-05 -8.87641e-05 -8.47363e-05 -8.00042e-05 -7.47175e-05 -6.90481e-05 -6.31836e-05 -5.73118e-05 -5.15911e-05 -4.61118e-05 -4.08712e-05 -3.57974e-05 -3.07863e-05 -2.57299e-05 -2.05316e-05 -1.5111e-05 -9.40277e-06 -3.35241e-06 3.09073e-06 9.98138e-06 1.73851e-05 2.53783e-05 3.40474e-05 4.34877e-05 5.38024e-05 6.50993e-05 7.74784e-05 9.10064e-05 0.000105669 0.000121308 0.000137578 0.000153969 0.000169853 0.000184533 0.000197288 0.00020744 0.000214435 0.000217943 -0.000102831 -0.000101455 -9.88515e-05 -9.51428e-05 -9.04571e-05 -8.49439e-05 -7.87839e-05 -7.21944e-05 -6.54289e-05 -5.87606e-05 -5.24376e-05 -4.66016e-05 -4.12148e-05 -3.61318e-05 -3.11795e-05 -2.62008e-05 -2.10708e-05 -1.56967e-05 -1.00126e-05 -3.97087e-06 2.46916e-06 9.35589e-06 1.67591e-05 2.47663e-05 3.34789e-05 4.30124e-05 5.35015e-05 6.51033e-05 7.79942e-05 9.23443e-05 0.000108248 0.000125599 0.000143975 0.000162722 0.000181058 0.00019813 0.00021306 0.00022501 0.000233279 0.000237437 -0.000110858 -0.000109267 -0.000106245 -0.000101928 -9.64535e-05 -8.99902e-05 -8.27466e-05 -7.49885e-05 -6.70522e-05 -5.93425e-05 -5.22793e-05 -4.61279e-05 -4.07452e-05 -3.58319e-05 -3.11009e-05 -2.63312e-05 -2.1369e-05 -1.61147e-05 -1.05104e-05 -4.52687e-06 1.85104e-06 8.65173e-06 1.59517e-05 2.38525e-05 3.24683e-05 4.19289e-05 5.23927e-05 6.40664e-05 7.72225e-05 9.21969e-05 0.000109308 0.000128607 0.000149496 0.000171068 0.000192326 0.000212237 0.000229752 0.000243848 0.000253649 0.00025859 -0.000119622 -0.000117781 -0.000114274 -0.000109242 -0.000102833 -9.52224e-05 -8.66368e-05 -7.73788e-05 -6.78698e-05 -5.87017e-05 -5.0637e-05 -4.43178e-05 -3.92442e-05 -3.47936e-05 -3.05117e-05 -2.61118e-05 -2.1424e-05 -1.63553e-05 -1.08677e-05 -4.96673e-06 1.3105e-06 7.93704e-06 1.5018e-05 2.26806e-05 3.10474e-05 4.02468e-05 5.04395e-05 6.18584e-05 7.487e-05 9.00483e-05 0.000108177 0.000129827 0.000153871 0.000178916 0.000203681 0.000226956 0.000247526 0.000264174 0.000275808 0.000281692 -0.00012929 -0.000127164 -0.0001231 -0.000117244 -0.000109745 -0.000100775 -9.05524e-05 -7.93772e-05 -6.77066e-05 -5.63199e-05 -4.66156e-05 -4.06341e-05 -3.64991e-05 -3.2973e-05 -2.94347e-05 -2.55824e-05 -2.12696e-05 -1.64326e-05 -1.10649e-05 -5.21817e-06 9.75326e-07 7.31152e-06 1.40329e-05 2.13188e-05 2.92875e-05 3.80382e-05 4.76901e-05 5.84377e-05 7.06605e-05 8.51608e-05 0.000103598 0.000128534 0.000156849 0.000186264 0.000215233 0.000242452 0.000266592 0.000286244 0.000300061 0.000307077 -0.000140054 -0.000137608 -0.000132916 -0.00012613 -0.000117392 -0.000106857 -9.47052e-05 -8.11598e-05 -6.65506e-05 -5.1548e-05 -3.81673e-05 -3.44075e-05 -3.24581e-05 -3.04867e-05 -2.80029e-05 -2.48538e-05 -2.09884e-05 -1.63987e-05 -1.11082e-05 -5.19282e-06 1.11085e-06 6.90351e-06 1.30738e-05 1.98497e-05 2.73025e-05 3.54608e-05 4.43444e-05 5.3995e-05 6.45608e-05 7.66299e-05 9.26793e-05 0.000123835 0.000158422 0.000193343 0.000227243 0.000258977 0.000287211 0.000310356 0.000326753 0.000335124 -0.000152129 -0.000149327 -0.00014394 -0.000136125 -0.000126018 -0.000113755 -9.94584e-05 -8.32173e-05 -6.50002e-05 -4.43658e-05 -1.93133e-05 -2.5597e-05 -2.76778e-05 -2.77628e-05 -2.64973e-05 -2.41126e-05 -2.0713e-05 -1.63571e-05 -1.10782e-05 -4.86783e-06 2.43419e-06 6.7845e-06 1.21641e-05 1.83451e-05 2.52367e-05 3.27607e-05 4.08045e-05 4.91675e-05 5.74272e-05 6.44973e-05 6.69064e-05 0.000115786 0.000159474 0.000200832 0.000240174 0.000276872 0.00030968 0.000336824 0.000356253 0.000366244 -0.000165747 -0.000162555 -0.000156409 -0.000147474 -0.000135894 -0.000121794 -0.000105273 -8.63727e-05 -6.49899e-05 -4.07209e-05 -1.26095e-05 -2.01284e-05 -2.40481e-05 -2.55578e-05 -2.52926e-05 -2.35802e-05 -2.05997e-05 -1.64559e-05 -1.12089e-05 -4.87591e-06 2.5853e-06 6.37211e-06 1.11785e-05 1.68428e-05 2.32355e-05 3.02177e-05 3.75956e-05 4.50556e-05 5.20383e-05 5.7492e-05 5.94947e-05 0.000113129 0.000162809 0.00020987 0.000254605 0.000296498 0.000334289 0.000365959 0.000388937 0.000400872 -0.000181155 -0.000177536 -0.000170564 -0.000160424 -0.000147274 -0.000131255 -0.000112483 -9.10291e-05 -6.68854e-05 -3.99345e-05 -1.00135e-05 -1.72992e-05 -2.18874e-05 -2.42037e-05 -2.46265e-05 -2.34221e-05 -2.07699e-05 -1.6792e-05 -1.15734e-05 -5.17378e-06 2.35712e-06 5.75368e-06 1.01376e-05 1.54021e-05 2.14201e-05 2.80355e-05 3.50371e-05 4.2119e-05 4.88253e-05 5.45035e-05 5.83893e-05 0.000114767 0.000168882 0.000220948 0.000270897 0.00031812 0.000361266 0.000398021 0.000425162 0.000439448 -0.00019861 -0.000194524 -0.000186652 -0.000175208 -0.000160382 -0.000142347 -0.000121264 -9.72743e-05 -7.04892e-05 -4.10166e-05 -9.04668e-06 -1.60943e-05 -2.09483e-05 -2.37129e-05 -2.45761e-05 -2.37182e-05 -2.12889e-05 -1.74083e-05 -1.21745e-05 -5.67452e-06 2.00005e-06 5.04805e-06 9.10426e-06 1.40829e-05 1.98672e-05 2.6309e-05 3.32178e-05 4.03468e-05 4.73843e-05 5.39799e-05 5.98665e-05 0.000119155 0.000177304 0.000234078 0.000289164 0.000341862 0.00039074 0.000433196 0.000465238 0.000482403 -0.000218379 -0.000213774 -0.00020491 -0.000192043 -0.000175404 -0.000155217 -0.000131701 -0.000105071 -7.55428e-05 -4.33582e-05 -8.84684e-06 -1.588e-05 -2.0922e-05 -2.39715e-05 -2.51172e-05 -2.44774e-05 -2.21716e-05 -1.83097e-05 -1.29931e-05 -6.31978e-06 1.60464e-06 4.33112e-06 8.13157e-06 1.29262e-05 1.8609e-05 2.50494e-05 3.20909e-05 3.95507e-05 4.72305e-05 5.49498e-05 6.26216e-05 0.000125323 0.000187592 0.000249074 0.000309358 0.000367724 0.000422734 0.000471572 0.000509411 0.000530144 -0.000240735 -0.000235546 -0.000225573 -0.000211127 -0.000192496 -0.000169968 -0.000143826 -0.000114356 -8.18506e-05 -4.6629e-05 -9.07305e-06 -1.63032e-05 -2.15657e-05 -2.48406e-05 -2.61778e-05 -2.56631e-05 -2.33954e-05 -1.94751e-05 -1.40008e-05 -7.07132e-06 1.20826e-06 3.6453e-06 7.25312e-06 1.19525e-05 1.76462e-05 2.42225e-05 3.15574e-05 3.95205e-05 4.79877e-05 5.68654e-05 6.61257e-05 0.000132712 0.000199354 0.0002657 0.000331346 0.000395622 0.000457177 0.000513125 0.000557828 0.000583042 -0.000265959 -0.000260102 -0.000248866 -0.000232639 -0.000211785 -0.000186667 -0.000157643 -0.000125063 -8.92764e-05 -5.06468e-05 -9.57125e-06 -1.71632e-05 -2.27041e-05 -2.61899e-05 -2.76665e-05 -2.72102e-05 -2.49111e-05 -2.08635e-05 -1.51613e-05 -7.89827e-06 8.28901e-07 3.01479e-06 6.48878e-06 1.1169e-05 1.69645e-05 2.37788e-05 3.15143e-05 4.00785e-05 4.93937e-05 5.94114e-05 7.01231e-05 0.000140984 0.000212278 0.000283713 0.000354942 0.000425398 0.000493908 0.000557709 0.000610512 0.000641408 -0.000294343 -0.000287702 -0.000275001 -0.000256729 -0.000233356 -0.00020534 -0.000173121 -0.000137114 -9.77111e-05 -5.5296e-05 -1.02601e-05 -1.83344e-05 -2.42045e-05 -2.78991e-05 -2.94809e-05 -2.9033e-05 -2.66469e-05 -2.24151e-05 -1.64271e-05 -8.76813e-06 4.7841e-07 2.45718e-06 5.85369e-06 1.05802e-05 1.65482e-05 2.36726e-05 3.18751e-05 4.10897e-05 5.12694e-05 6.23916e-05 7.44594e-05 0.000149892 0.000226093 0.000302852 0.000379906 0.000456824 0.000532677 0.000605038 0.000667315 0.000705466 -0.000326188 -0.000318603 -0.000304161 -0.0002835 -0.000257233 -0.000225945 -0.000190172 -0.000150394 -0.000107035 -6.04777e-05 -1.10858e-05 -1.97223e-05 -2.59515e-05 -2.98479e-05 -3.15051e-05 -3.10247e-05 -2.85077e-05 -2.40491e-05 -1.77349e-05 -9.64017e-06 1.69234e-07 1.99193e-06 5.36672e-06 1.0196e-05 1.63905e-05 2.38721e-05 3.25766e-05 4.24576e-05 5.34895e-05 6.56701e-05 7.90159e-05 0.000159227 0.000240531 0.000322817 0.000405927 0.00048958 0.000573128 0.00065467 0.000727858 0.000775304 -0.000361799 -0.000353046 -0.000336483 -0.000312973 -0.000283339 -0.000248334 -0.000208612 -0.000164713 -0.00011708 -6.60736e-05 -1.20001e-05 -2.12359e-05 -2.78251e-05 -3.19016e-05 -3.3601e-05 -3.30521e-05 -3.03713e-05 -2.56598e-05 -1.90012e-05 -1.04599e-05 -8.1082e-08 1.64675e-06 5.057e-06 1.00386e-05 1.64986e-05 2.43635e-05 3.35797e-05 4.41157e-05 5.59637e-05 6.91404e-05 8.36817e-05 0.000168775 0.000255291 0.000343238 0.000432586 0.000523218 0.000614771 0.000705983 0.000791448 0.000850796 -0.000401487 -0.000391231 -0.000372004 -0.000345027 -0.00031143 -0.000272192 -0.000228099 -0.000179751 -0.000127586 -7.19138e-05 -1.29457e-05 -2.27674e-05 -2.9682e-05 -3.38972e-05 -3.55993e-05 -3.49498e-05 -3.20843e-05 -2.71126e-05 -2.0118e-05 -1.1155e-05 -2.46579e-07 1.4617e-06 4.96752e-06 1.01444e-05 1.68953e-05 2.51501e-05 3.48644e-05 4.60193e-05 5.86227e-05 7.27101e-05 8.83415e-05 0.000178302 0.000270024 0.000363656 0.000459329 0.000557112 0.000656919 0.000758142 0.000856987 0.00093149 -0.000445548 -0.000433265 -0.000410577 -0.000379291 -0.000340991 -0.000296938 -0.000248062 -0.000194999 -0.000138153 -7.7743e-05 -1.38422e-05 -2.4174e-05 -3.13398e-05 -3.56326e-05 -3.72937e-05 -3.65182e-05 -3.34619e-05 -2.82451e-05 -2.09531e-05 -1.16337e-05 -2.91096e-07 1.49003e-06 5.1539e-06 1.05611e-05 1.76132e-05 2.62452e-05 3.64216e-05 4.81351e-05 6.14071e-05 7.62903e-05 9.28704e-05 0.000187546 0.000284319 0.00038351 0.000485441 0.000590411 0.000698618 0.00081005 0.000922853 0.00101642 -0.000494224 -0.000479049 -0.000451698 -0.000414964 -0.000371072 -0.000321606 -0.000267605 -0.000209695 -0.000148194 -8.3188e-05 -1.45728e-05 -2.52644e-05 -3.25692e-05 -3.68666e-05 -3.84469e-05 -3.7534e-05 -3.43012e-05 -2.88792e-05 -2.13597e-05 -1.17914e-05 -1.69826e-07 1.79237e-06 5.67443e-06 1.13345e-05 1.86802e-05 2.7656e-05 3.82366e-05 5.04251e-05 6.42535e-05 7.97868e-05 9.71315e-05 0.000196212 0.000297705 0.000402126 0.00051003 0.000622 0.000738548 0.000860263 0.000986779 0.00110386 -0.000547608 -0.000528011 -0.000494167 -0.000450514 -0.000400076 -0.000344701 -0.00028543 -0.000222777 -0.000156908 -8.77413e-05 -1.49747e-05 -2.57999e-05 -3.31101e-05 -3.73456e-05 -3.88253e-05 -3.77884e-05 -3.44189e-05 -2.88578e-05 -2.12081e-05 -1.1532e-05 1.61409e-07 2.41782e-06 6.56478e-06 1.24797e-05 2.00893e-05 2.9354e-05 4.02606e-05 5.28209e-05 6.70732e-05 8.30861e-05 0.000100974 0.000203972 0.000309646 0.000418733 0.000532039 0.000650497 0.000774949 0.00090687 0.00104577 0.00119087 -0.000605306 -0.000578433 -0.000535432 -0.000483219 -0.000425504 -0.000364107 -0.000299831 -0.000232931 -0.000163346 -9.08073e-05 -1.48541e-05 -2.55436e-05 -3.27438e-05 -3.68888e-05 -3.82874e-05 -3.71746e-05 -3.37364e-05 -2.81223e-05 -2.04525e-05 -1.08193e-05 7.20764e-07 3.36185e-06 7.78826e-06 1.393e-05 2.1749e-05 3.12276e-05 4.23664e-05 5.5184e-05 6.97193e-05 8.60334e-05 0.000104228 0.00021046 0.000319556 0.000432479 0.000550282 0.0006743 0.000805639 0.000947312 0.0010962 0.00127256 -0.000665215 -0.00062576 -0.000570462 -0.000508709 -0.00044394 -0.000377295 -0.000309004 -0.000238915 -0.000166699 -9.19278e-05 -1.40907e-05 -2.44325e-05 -3.14892e-05 -3.55815e-05 -3.69654e-05 -3.58547e-05 -3.24305e-05 -2.68496e-05 -1.92528e-05 -9.77436e-06 1.44556e-06 4.48873e-06 9.15487e-06 1.54603e-05 2.34125e-05 3.30185e-05 4.42912e-05 5.72536e-05 7.19409e-05 8.83979e-05 0.000106691 0.000215268 0.000326806 0.00044247 0.000563524 0.00069168 0.000828217 0.000978118 0.00113438 0.00134085 -0.000718058 -0.000658818 -0.000590831 -0.000521557 -0.000452171 -0.000382522 -0.000312147 -0.000240517 -0.000167105 -9.14021e-05 -1.29751e-05 -2.29928e-05 -2.99893e-05 -3.41104e-05 -3.5551e-05 -3.45038e-05 -3.11458e-05 -2.56392e-05 -1.81407e-05 -8.82139e-06 2.09362e-06 5.41808e-06 1.02196e-05 1.66006e-05 2.46055e-05 3.42586e-05 4.55806e-05 5.85961e-05 7.33362e-05 8.98306e-05 0.000108103 0.000217933 0.000330746 0.000447838 0.00057061 0.000700959 0.00084048 0.000994854 0.00115742 0.0013826 0 0 0 0 0 0 0 0 0 0 0 0 0 0 0 0 0 0 0 0 0 0 0 0 0 0 0 0 0 0 0 0 0 0 0 0 0 0 0 0 -5.14532e-06 -5.10711e-06 -5.03309e-06 -4.92591e-06 -4.78789e-06 -4.62105e-06 -4.42714e-06 -4.20768e-06 -3.96398e-06 -3.69712e-06 -3.40793e-06 -3.09704e-06 -2.76473e-06 -2.41104e-06 -2.03576e-06 -1.63847e-06 -1.21857e-06 -7.75364e-07 -3.08143e-07 1.8373e-07 7.00695e-07 1.24284e-06 1.80985e-06 2.40074e-06 3.01376e-06 3.64624e-06 4.29441e-06 4.95332e-06 5.61672e-06 6.27706e-06 6.92554e-06 7.55231e-06 8.14656e-06 8.69708e-06 9.19263e-06 9.62255e-06 