# vtk DataFile Version 2.0
Presion
ASCII

DATASET STRUCTURED_GRID
DIMENSIONS   40   40   20

POINTS   32000   double
0.0125   0.0125   0.025
0.0375   0.0125   0.025
0.0625   0.0125   0.025
0.0875   0.0125   0.025
0.1125   0.0125   0.025
0.1375   0.0125   0.025
0.1625   0.0125   0.025
0.1875   0.0125   0.025
0.2125   0.0125   0.025
0.2375   0.0125   0.025
0.2625   0.0125   0.025
0.2875   0.0125   0.025
0.3125   0.0125   0.025
0.3375   0.0125   0.025
0.3625   0.0125   0.025
0.3875   0.0125   0.025
0.4125   0.0125   0.025
0.4375   0.0125   0.025
0.4625   0.0125   0.025
0.4875   0.0125   0.025
0.5125   0.0125   0.025
0.5375   0.0125   0.025
0.5625   0.0125   0.025
0.5875   0.0125   0.025
0.6125   0.0125   0.025
0.6375   0.0125   0.025
0.6625   0.0125   0.025
0.6875   0.0125   0.025
0.7125   0.0125   0.025
0.7375   0.0125   0.025
0.7625   0.0125   0.025
0.7875   0.0125   0.025
0.8125   0.0125   0.025
0.8375   0.0125   0.025
0.8625   0.0125   0.025
0.8875   0.0125   0.025
0.9125   0.0125   0.025
0.9375   0.0125   0.025
0.9625   0.0125   0.025
0.9875   0.0125   0.025
0.0125   0.0375   0.025
0.0375   0.0375   0.025
0.0625   0.0375   0.025
0.0875   0.0375   0.025
0.1125   0.0375   0.025
0.1375   0.0375   0.025
0.1625   0.0375   0.025
0.1875   0.0375   0.025
0.2125   0.0375   0.025
0.2375   0.0375   0.025
0.2625   0.0375   0.025
0.2875   0.0375   0.025
0.3125   0.0375   0.025
0.3375   0.0375   0.025
0.3625   0.0375   0.025
0.3875   0.0375   0.025
0.4125   0.0375   0.025
0.4375   0.0375   0.025
0.4625   0.0375   0.025
0.4875   0.0375   0.025
0.5125   0.0375   0.025
0.5375   0.0375   0.025
0.5625   0.0375   0.025
0.5875   0.0375   0.025
0.6125   0.0375   0.025
0.6375   0.0375   0.025
0.6625   0.0375   0.025
0.6875   0.0375   0.025
0.7125   0.0375   0.025
0.7375   0.0375   0.025
0.7625   0.0375   0.025
0.7875   0.0375   0.025
0.8125   0.0375   0.025
0.8375   0.0375   0.025
0.8625   0.0375   0.025
0.8875   0.0375   0.025
0.9125   0.0375   0.025
0.9375   0.0375   0.025
0.9625   0.0375   0.025
0.9875   0.0375   0.025
0.0125   0.0625   0.025
0.0375   0.0625   0.025
0.0625   0.0625   0.025
0.0875   0.0625   0.025
0.1125   0.0625   0.025
0.1375   0.0625   0.025
0.1625   0.0625   0.025
0.1875   0.0625   0.025
0.2125   0.0625   0.025
0.2375   0.0625   0.025
0.2625   0.0625   0.025
0.2875   0.0625   0.025
0.3125   0.0625   0.025
0.3375   0.0625   0.025
0.3625   0.0625   0.025
0.3875   0.0625   0.025
0.4125   0.0625   0.025
0.4375   0.0625   0.025
0.4625   0.0625   0.025
0.4875   0.0625   0.025
0.5125   0.0625   0.025
0.5375   0.0625   0.025
0.5625   0.0625   0.025
0.5875   0.0625   0.025
0.6125   0.0625   0.025
0.6375   0.0625   0.025
0.6625   0.0625   0.025
0.6875   0.0625   0.025
0.7125   0.0625   0.025
0.7375   0.0625   0.025
0.7625   0.0625   0.025
0.7875   0.0625   0.025
0.8125   0.0625   0.025
0.8375   0.0625   0.025
0.8625   0.0625   0.025
0.8875   0.0625   0.025
0.9125   0.0625   0.025
0.9375   0.0625   0.025
0.9625   0.0625   0.025
0.9875   0.0625   0.025
0.0125   0.0875   0.025
0.0375   0.0875   0.025
0.0625   0.0875   0.025
0.0875   0.0875   0.025
0.1125   0.0875   0.025
0.1375   0.0875   0.025
0.1625   0.0875   0.025
0.1875   0.0875   0.025
0.2125   0.0875   0.025
0.2375   0.0875   0.025
0.2625   0.0875   0.025
0.2875   0.0875   0.025
0.3125   0.0875   0.025
0.3375   0.0875   0.025
0.3625   0.0875   0.025
0.3875   0.0875   0.025
0.4125   0.0875   0.025
0.4375   0.0875   0.025
0.4625   0.0875   0.025
0.4875   0.0875   0.025
0.5125   0.0875   0.025
0.5375   0.0875   0.025
0.5625   0.0875   0.025
0.5875   0.0875   0.025
0.6125   0.0875   0.025
0.6375   0.0875   0.025
0.6625   0.0875   0.025
0.6875   0.0875   0.025
0.7125   0.0875   0.025
0.7375   0.0875   0.025
0.7625   0.0875   0.025
0.7875   0.0875   0.025
0.8125   0.0875   0.025
0.8375   0.0875   0.025
0.8625   0.0875   0.025
0.8875   0.0875   0.025
0.9125   0.0875   0.025
0.9375   0.0875   0.025
0.9625   0.0875   0.025
0.9875   0.0875   0.025
0.0125   0.1125   0.025
0.0375   0.1125   0.025
0.0625   0.1125   0.025
0.0875   0.1125   0.025
0.1125   0.1125   0.025
0.1375   0.1125   0.025
0.1625   0.1125   0.025
0.1875   0.1125   0.025
0.2125   0.1125   0.025
0.2375   0.1125   0.025
0.2625   0.1125   0.025
0.2875   0.1125   0.025
0.3125   0.1125   0.025
0.3375   0.1125   0.025
0.3625   0.1125   0.025
0.3875   0.1125   0.025
0.4125   0.1125   0.025
0.4375   0.1125   0.025
0.4625   0.1125   0.025
0.4875   0.1125   0.025
0.5125   0.1125   0.025
0.5375   0.1125   0.025
0.5625   0.1125   0.025
0.5875   0.1125   0.025
0.6125   0.1125   0.025
0.6375   0.1125   0.025
0.6625   0.1125   0.025
0.6875   0.1125   0.025
0.7125   0.1125   0.025
0.7375   0.1125   0.025
0.7625   0.1125   0.025
0.7875   0.1125   0.025
0.8125   0.1125   0.025
0.8375   0.1125   0.025
0.8625   0.1125   0.025
0.8875   0.1125   0.025
0.9125   0.1125   0.025
0.9375   0.1125   0.025
0.9625   0.1125   0.025
0.9875   0.1125   0.025
0.0125   0.1375   0.025
0.0375   0.1375   0.025
0.0625   0.1375   0.025
0.0875   0.1375   0.025
0.1125   0.1375   0.025
0.1375   0.1375   0.025
0.1625   0.1375   0.025
0.1875   0.1375   0.025
0.2125   0.1375   0.025
0.2375   0.1375   0.025
0.2625   0.1375   0.025
0.2875   0.1375   0.025
0.3125   0.1375   0.025
0.3375   0.1375   0.025
0.3625   0.1375   0.025
0.3875   0.1375   0.025
0.4125   0.1375   0.025
0.4375   0.1375   0.025
0.4625   0.1375   0.025
0.4875   0.1375   0.025
0.5125   0.1375   0.025
0.5375   0.1375   0.025
0.5625   0.1375   0.025
0.5875   0.1375   0.025
0.6125   0.1375   0.025
0.6375   0.1375   0.025
0.6625   0.1375   0.025
0.6875   0.1375   0.025
0.7125   0.1375   0.025
0.7375   0.1375   0.025
0.7625   0.1375   0.025
0.7875   0.1375   0.025
0.8125   0.1375   0.025
0.8375   0.1375   0.025
0.8625   0.1375   0.025
0.8875   0.1375   0.025
0.9125   0.1375   0.025
0.9375   0.1375   0.025
0.9625   0.1375   0.025
0.9875   0.1375   0.025
0.0125   0.1625   0.025
0.0375   0.1625   0.025
0.0625   0.1625   0.025
0.0875   0.1625   0.025
0.1125   0.1625   0.025
0.1375   0.1625   0.025
0.1625   0.1625   0.025
0.1875   0.1625   0.025
0.2125   0.1625   0.025
0.2375   0.1625   0.025
0.2625   0.1625   0.025
0.2875   0.1625   0.025
0.3125   0.1625   0.025
0.3375   0.1625   0.025
0.3625   0.1625   0.025
0.3875   0.1625   0.025
0.4125   0.1625   0.025
0.4375   0.1625   0.025
0.4625   0.1625   0.025
0.4875   0.1625   0.025
0.5125   0.1625   0.025
0.5375   0.1625   0.025
0.5625   0.1625   0.025
0.5875   0.1625   0.025
0.6125   0.1625   0.025
0.6375   0.1625   0.025
0.6625   0.1625   0.025
0.6875   0.1625   0.025
0.7125   0.1625   0.025
0.7375   0.1625   0.025
0.7625   0.1625   0.025
0.7875   0.1625   0.025
0.8125   0.1625   0.025
0.8375   0.1625   0.025
0.8625   0.1625   0.025
0.8875   0.1625   0.025
0.9125   0.1625   0.025
0.9375   0.1625   0.025
0.9625   0.1625   0.025
0.9875   0.1625   0.025
0.0125   0.1875   0.025
0.0375   0.1875   0.025
0.0625   0.1875   0.025
0.0875   0.1875   0.025
0.1125   0.1875   0.025
0.1375   0.1875   0.025
0.1625   0.1875   0.025
0.1875   0.1875   0.025
0.2125   0.1875   0.025
0.2375   0.1875   0.025
0.2625   0.1875   0.025
0.2875   0.1875   0.025
0.3125   0.1875   0.025
0.3375   0.1875   0.025
0.3625   0.1875   0.025
0.3875   0.1875   0.025
0.4125   0.1875   0.025
0.4375   0.1875   0.025
0.4625   0.1875   0.025
0.4875   0.1875   0.025
0.5125   0.1875   0.025
0.5375   0.1875   0.025
0.5625   0.1875   0.025
0.5875   0.1875   0.025
0.6125   0.1875   0.025
0.6375   0.1875   0.025
0.6625   0.1875   0.025
0.6875   0.1875   0.025
0.7125   0.1875   0.025
0.7375   0.1875   0.025
0.7625   0.1875   0.025
0.7875   0.1875   0.025
0.8125   0.1875   0.025
0.8375   0.1875   0.025
0.8625   0.1875   0.025
0.8875   0.1875   0.025
0.9125   0.1875   0.025
0.9375   0.1875   0.025
0.9625   0.1875   0.025
0.9875   0.1875   0.025
0.0125   0.2125   0.025
0.0375   0.2125   0.025
0.0625   0.2125   0.025
0.0875   0.2125   0.025
0.1125   0.2125   0.025
0.1375   0.2125   0.025
0.1625   0.2125   0.025
0.1875   0.2125   0.025
0.2125   0.2125   0.025
0.2375   0.2125   0.025
0.2625   0.2125   0.025
0.2875   0.2125   0.025
0.3125   0.2125   0.025
0.3375   0.2125   0.025
0.3625   0.2125   0.025
0.3875   0.2125   0.025
0.4125   0.2125   0.025
0.4375   0.2125   0.025
0.4625   0.2125   0.025
0.4875   0.2125   0.025
0.5125   0.2125   0.025
0.5375   0.2125   0.025
0.5625   0.2125   0.025
0.5875   0.2125   0.025
0.6125   0.2125   0.025
0.6375   0.2125   0.025
0.6625   0.2125   0.025
0.6875   0.2125   0.025
0.7125   0.2125   0.025
0.7375   0.2125   0.025
0.7625   0.2125   0.025
0.7875   0.2125   0.025
0.8125   0.2125   0.025
0.8375   0.2125   0.025
0.8625   0.2125   0.025
0.8875   0.2125   0.025
0.9125   0.2125   0.025
0.9375   0.2125   0.025
0.9625   0.2125   0.025
0.9875   0.2125   0.025
0.0125   0.2375   0.025
0.0375   0.2375   0.025
0.0625   0.2375   0.025
0.0875   0.2375   0.025
0.1125   0.2375   0.025
0.1375   0.2375   0.025
0.1625   0.2375   0.025
0.1875   0.2375   0.025
0.2125   0.2375   0.025
0.2375   0.2375   0.025
0.2625   0.2375   0.025
0.2875   0.2375   0.025
0.3125   0.2375   0.025
0.3375   0.2375   0.025
0.3625   0.2375   0.025
0.3875   0.2375   0.025
0.4125   0.2375   0.025
0.4375   0.2375   0.025
0.4625   0.2375   0.025
0.4875   0.2375   0.025
0.5125   0.2375   0.025
0.5375   0.2375   0.025
0.5625   0.2375   0.025
0.5875   0.2375   0.025
0.6125   0.2375   0.025
0.6375   0.2375   0.025
0.6625   0.2375   0.025
0.6875   0.2375   0.025
0.7125   0.2375   0.025
0.7375   0.2375   0.025
0.7625   0.2375   0.025
0.7875   0.2375   0.025
0.8125   0.2375   0.025
0.8375   0.2375   0.025
0.8625   0.2375   0.025
0.8875   0.2375   0.025
0.9125   0.2375   0.025
0.9375   0.2375   0.025
0.9625   0.2375   0.025
0.9875   0.2375   0.025
0.0125   0.2625   0.025
0.0375   0.2625   0.025
0.0625   0.2625   0.025
0.0875   0.2625   0.025
0.1125   0.2625   0.025
0.1375   0.2625   0.025
0.1625   0.2625   0.025
0.1875   0.2625   0.025
0.2125   0.2625   0.025
0.2375   0.2625   0.025
0.2625   0.2625   0.025
[...]
POINT_DATA   32000
SCALARS Presion double
LOOKUP_TABLE   Presion

0 0 0 0 0 0 0 0 0 0 0 0 0 0 0 0 0 0 0 0 0 0 0 0 0 0 0 0 0 0 0 0 0 0 0 0 0 0 0 0 -0.00202968 -0.00240755 -0.00304787 -0.00377929 -0.0045233 -0.00522927 -0.00586011 -0.00638832 -0.00679409 -0.00706371 -0.0071884 -0.00716332 -0.00698689 -0.00666048 -0.00618829 -0.00557743 -0.00483806 -0.00398353 -0.00303043 -0.00199852 -0.000910432 0.000208698 0.00133195 0.00243133 0.00347872 0.00444677 0.00530996 0.00604553 0.00663446 0.00706224 0.00731972 0.00740367 0.00731724 0.0070701 0.00667813 0.00616276 0.00555 0.00487196 0.00418429 0.00367285 -0.00220647 -0.00242428 -0.00292449 -0.00356201 -0.00424571 -0.00491506 -0.00552779 -0.0060537 -0.0064713 -0.00676561 -0.00692663 -0.00694833 -0.00682788 -0.00656531 -0.00616336 -0.00562751 -0.00496606 -0.0041903 -0.00331451 -0.00235596 -0.00133468 -0.000273225 0.000803912 0.00187089 0.00290125 0.0038688 0.00474849 0.00551736 0.0061555 0.00664698 0.00698074 0.0071514 0.00715997 0.00701443 0.00673028 0.00633134 0.00585183 0.00534292 0.00489302 0.00468505 -0.00189525 -0.00217822 -0.00267218 -0.003287 -0.00394983 -0.00460619 -0.00521622 -0.00575092 -0.00618939 -0.00651671 -0.00672245 -0.00679976 -0.00674456 -0.0065553 -0.00623285 -0.00578046 -0.005204 -0.00451206 -0.00371608 -0.00283043 -0.00187235 -0.000861818 0.000178886 0.00122558 0.00225282 0.00323469 0.00414564 0.00496153 0.00566062 0.00622469 0.00664013 0.00689891 0.00699961 0.00694825 0.00675922 0.00645642 0.00607558 0.00566929 0.00531792 0.00514872 -0.00131351 -0.0017416 -0.00230805 -0.00295781 -0.00363908 -0.00430932 -0.00493568 -0.00549344 -0.00596423 -0.00633447 -0.00659407 -0.00673573 -0.00675423 -0.00664637 -0.0064108 -0.00604826 -0.00556174 -0.00495673 -0.00424153 -0.00342738 -0.0025286 -0.00156264 -0.000549795 0.000487064 0.00152301 0.00253177 0.00348662 0.00436146 0.00513195 0.00577682 0.00627918 0.00662769 0.00681785 0.00685293 0.00674501 0.00651597 0.00619908 0.00584165 0.00550942 0.00529027 -0.000602079 -0.00119824 -0.00187599 -0.00259823 -0.00332897 -0.0040375 -0.00469929 -0.00529536 -0.00581109 -0.00623506 -0.00655812 -0.00677285 -0.00687305 -0.0068538 -0.00671149 -0.00644409 -0.00605149 -0.00553588 -0.00490217 -0.00415837 -0.00331579 -0.00238938 -0.00139754 -0.000362046 0.000692394 0.00173878 0.00274871 0.00369355 0.00454571 0.00528014 0.00587587 0.00631746 0.00659644 0.00671244 0.00667422 0.00650044 0.00622056 0.00587596 0.00552103 0.00522228 0.000141966 -0.000622864 -0.00142731 -0.00224286 -0.00304413 -0.00381006 -0.00452395 -0.00517271 -0.00574582 -0.00623443 -0.0066306 -0.00692702 -0.00711664 -0.00719287 -0.00714979 -0.00698254 -0.0066878 -0.00626433 -0.00571355 -0.00504008 -0.00425215 -0.00336215 -0.00238653 -0.00134599 -0.000265128 0.00082814 0.00190346 0.0029292 0.00387396 0.00470819 0.00540599 0.00594685 0.00631739 0.00651266 0.00653726 0.00640608 0.00614478 0.00579014 0.00538984 0.00500062 0.000846376 -7.89035e-05 -0.00101258 -0.00193056 -0.00281462 -0.0036512 -0.00443022 -0.00514392 -0.00578568 -0.00634917 -0.00682773 -0.00721423 -0.00750084 -0.00767938 -0.00774164 -0.00767991 -0.00748764 -0.00716009 -0.00669508 -0.0060937 -0.00536095 -0.00450643 -0.00354451 -0.00249463 -0.00138115 -0.000232913 0.000917624 0.00203556 0.00308513 0.00403154 0.00484307 0.00549308 0.00596216 0.00623976 0.00632554 0.00623027 0.00597622 0.00559717 0.00513785 0.00465222 0.00145357 0.00037959 -0.000678886 -0.00170075 -0.00267307 -0.00358819 -0.00444148 -0.00522968 -0.00594955 -0.00659701 -0.00716655 -0.00765117 -0.00804228 -0.00833016 -0.00850435 -0.00855436 -0.00847039 -0.00824412 -0.00786966 -0.0073444 -0.0066698 -0.0058524 -0.00490409 -0.00384273 -0.00269215 -0.00148189 -0.000246519 0.000975598 0.00214386 0.0032175 0.00415793 0.00493121 0.00551061 0.00587878 0.00602954 0.0059691 0.00571661 0.00530419 0.0047763 0.00418828 0.00191525 0.000705797 -0.000469236 -0.00159152 -0.00265263 -0.0036498 -0.0045829 -0.00545239 -0.00625782 -0.00699694 -0.00766514 -0.00825547 -0.00875857 -0.00916319 -0.00945671 -0.00962587 -0.00965761 -0.00953998 -0.00926321 -0.00882069 -0.00821002 -0.00743417 -0.00650207 -0.00542942 -0.00423905 -0.00296082 -0.00163118 -0.00029207 0.00101069 0.00222956 0.00331802 0.00423341 0.00494021 0.00541278 0.00563791 0.00561652 0.00536465 0.00491359 0.0043093 0.00361111 0.00218946 0.000858514 -0.00042263 -0.00163875 -0.00278572 -0.00386506 -0.00488047 -0.00583548 -0.00673189 -0.00756888 -0.00834249 -0.00904567 -0.00966825 -0.0101975 -0.0106187 -0.0109158 -0.0110725 -0.0110732 -0.0109038 -0.0105536 -0.0100157 -0.00928896 -0.00837861 -0.00729752 -0.00606674 -0.0047159 -0.00328293 -0.00181327 -0.000358297 0.00102696 0.00228682 0.00336836 0.00422543 0.00482229 0.00513709 0.00516433 0.0049165 0.0044244 0.00373659 0.00291809 0.00223903 0.000801132 -0.000574317 -0.0018757 -0.00310315 -0.00426224 -0.00536002 -0.00640259 -0.00739357 -0.00833322 -0.009218 -0.0100407 -0.0107902 -0.0114525 -0.0120107 -0.0124461 -0.0127391 -0.01287 -0.0128207 -0.0125754 -0.0121224 -0.0114558 -0.0105761 -0.00949236 -0.00822309 -0.00679676 -0.0052522 -0.00363804 -0.00201138 -0.000435459 0.00102362 0.0023009 0.00333745 0.00408518 0.00451141 0.00460261 0.00436671 0.00383386 0.00305581 0.00210434 0.0020309 0.000501085 -0.000955954 -0.00233268 -0.00363359 -0.00486812 -0.00604638 -0.00717669 -0.00826417 -0.00930993 -0.0103107 -0.011259 -0.012143 -0.0129472 -0.0136527 -0.0142381 -0.0146805 -0.0149562 -0.0150422 -0.0149177 -0.0145654 -0.0139734 -0.0131369 -0.01206 -0.0107573 -0.00925502 -0.00759208 -0.00581971 -0.00400067 -0.00220697 -0.000516395 0.000992071 0.00224423 0.00317677 0.00374347 0.00392038 0.00370925 0.00313889 0.00226435 0.00116483 0.0015358 -7.03637e-05 -0.00159562 -0.00303687 -0.00440305 -0.0057073 -0.00696258 -0.00817922 -0.00936362 -0.0105176 -0.0116382 -0.0127176 -0.0137433 -0.0146983 -0.0155621 -0.0163105 -0.0169172 -0.0173542 -0.0175938 -0.0176091 -0.0173766 -0.0168777 -0.0161011 -0.0150444 -0.0137171 -0.0121418 -0.0103561 -0.00841307 -0.00638059 -0.00433981 -0.00238139 -0.000600385 0.000910832 0.00207032 0.00281472 0.00310646 0.00293875 0.00233766 0.00136124 9.64199e-05 0.00072839 -0.000938071 -0.00251773 -0.0040121 -0.00543448 -0.0068016 -0.00812909 -0.00942913 -0.0107094 -0.0119723 -0.0132153 -0.0144303 -0.0156042 -0.0167191 -0.0177524 -0.0186775 -0.0194645 -0.0200814 -0.0204947 -0.0206717 -0.0205815 -0.0201981 -0.0195021 -0.0184836 -0.0171451 -0.015504 -0.013595 -0.0114712 -0.00920524 -0.00688708 -0.00462119 -0.00252076 -0.000699538 0.000737823 0.00170637 0.00215062 0.00205183 0.00143125 0.000349014 -0.00110017 -0.00041244 -0.00212282 -0.0037428 -0.00527849 -0.00674734 -0.00816945 -0.00956298 -0.0109419 -0.0123152 -0.0136861 -0.0150524 -0.0164062 -0.017734 -0.0190168 -0.0202304 -0.0213459 -0.0223299 -0.0231459 -0.0237549 -0.0241174 -0.024195 -0.0239528 -0.0233625 -0.0224049 -0.0210738 -0.0193794 -0.0173512 -0.0150411 -0.0125243 -0.00989918 -0.00728441 -0.00481315 -0.00262384 -0.000848528 0.000400714 0.00104498 0.00104885 0.000425578 -0.000764086 -0.00241804 -0.00190317 -0.00364103 -0.00528727 -0.00685224 -0.00835721 -0.00982534 -0.0112772 -0.0127287 -0.0141902 -0.0156659 -0.0171544 -0.0186481 -0.0201333 -0.0215905 -0.0229941 -0.0243126 -0.0255097 -0.0265441 -0.0273711 -0.0279442 -0.0282166 -0.0281442 -0.0276882 -0.0268187 -0.025519 -0.0237898 -0.0216532 -0.019157 -0.0163771 -0.0134186 -0.0104141 -0.00751789 -0.00489638 -0.00271415 -0.00111694 -0.000214145 -6.41637e-05 -0.000666335 -0.00196168 -0.00384151 -0.00375523 -0.0055045 -0.00716325 -0.00874542 -0.0102755 -0.0117794 -0.01328 -0.0147953 -0.0163373 -0.0179117 -0.0195182 -0.02115 -0.0227936 -0.0244291 -0.0260297 -0.027562 -0.0289862 -0.0302568 -0.0313232 -0.0321316 -0.0326265 -0.0327537 -0.032463 -0.0317126 -0.0304735 -0.0287345 -0.0265075 -0.0238333 -0.0207854 -0.0174732 -0.0140415 -0.0106663 -0.00754465 -0.00487875 -0.00285557 -0.00162372 -0.00127297 -0.00182166 -0.00321629 -0.00534303 -0.00597462 -0.00772022 -0.00937847 -0.0109658 -0.0125092 -0.0140368 -0.0155741 -0.0171413 -0.0187526 -0.0204158 -0.0221322 -0.0238962 -0.0256952 -0.027509 -0.0293101 -0.0310632 -0.0327255 -0.0342471 -0.0355715 -0.0366377 -0.0373812 -0.0377372 -0.0376438 -0.0370458 -0.0359003 -0.0341822 -0.0318905 -0.0290553 -0.0257441 -0.0220669 -0.0181781 -0.0142739 -0.0105835 -0.00735163 -0.00481464 -0.00317077 -0.00255196 -0.00300451 -0.00448587 -0.00687948 -0.0085617 -0.0102904 -0.0119364 -0.0135171 -0.0150608 -0.0165979 -0.0181564 -0.0197593 -0.021424 -0.0231612 -0.0249743 -0.0268597 -0.0288059 -0.0307931 -0.0327933 -0.0347694 -0.0366757 -0.0384582 -0.0400547 -0.0413968 -0.0424112 -0.0430226 -0.0431565 -0.0427441 -0.0417272 -0.040065 -0.0377409 -0.0347711 -0.0312125 -0.0271711 -0.0228061 -0.0183313 -0.0140074 -0.0101255 -0.00697908 -0.00482811 -0.00386027 -0.00416194 -0.0057096 -0.00838782 -0.0115113 -0.0132126 -0.0148365 -0.0163991 -0.0179289 -0.019458 -0.0210177 -0.0226349 -0.0243312 -0.0261211 -0.0280114 -0.0300012 -0.0320804 -0.0342301 -0.0364217 -0.0386167 -0.0407668 -0.0428137 -0.0446899 -0.0463198 -0.0476213 -0.0485088 -0.0488954 -0.0486984 -0.047844 -0.0462741 -0.0439545 -0.0408841 -0.0371052 -0.0327137 -0.0278681 -0.0227942 -0.0177814 -0.0131682 -0.00931264 -0.00654891 -0.00513691 -0.00521919 -0.00680298 -0.00977994 -0.0148128 -0.0164806 -0.0180752 -0.0196087 -0.0211081 -0.0226076 -0.0241426 -0.0257458 -0.0274445 -0.0292585 -0.0311993 -0.0332691 -0.03546 -0.0377542 -0.0401228 -0.0425258 -0.0449121 -0.0472193 -0.0493747 -0.0512959 -0.0528923 -0.0540682 -0.0547252 -0.0547665 -0.054103 -0.0526589 -0.0503812 -0.047249 -0.0432856 -0.0385715 -0.0332572 -0.0275726 -0.02183 -0.0164134 -0.0117497 -0.00825987 -0.0062948 -0.00607399 -0.00765197 -0.0109366 -0.0184516 -0.0200853 -0.0216469 -0.0231404 -0.0245902 -0.0260329 -0.0275099 -0.0290622 -0.0307252 -0.0325261 -0.0344823 -0.0366 -0.0388741 -0.0412876 -0.0438114 -0.0464039 -0.0490109 -0.0515662 -0.0539915 -0.0561977 -0.0580866 -0.0595526 -0.0604864 -0.0607784 -0.0603244 -0.0590318 -0.0568283 -0.053672 -0.0495642 -0.0445649 -0.0388087 -0.0325209 -0.0260269 -0.0197497 -0.0141858 -0.00985298 -0.00721365 -0.00658981 -0.00810614 -0.0117006 -0.0224095 -0.0240167 -0.025546 -0.0269887 -0.0283653 -0.0297162 -0.0310926 -0.0325468 -0.0341259 -0.0358669 -0.0377945 -0.0399201 -0.0422414 -0.0447423 -0.0473928 -0.0501493 -0.0529542 -0.0557369 -0.0584136 -0.0608886 -0.063056 -0.0648014 -0.0660051 -0.066546 -0.066306 -0.0651769 -0.0630682 -0.0599171 -0.0557018 -0.0504577 -0.0442972 -0.0374306 -0.0301843 -0.0230094 -0.0164663 -0.0111759 -0.00773141 -0.00658783 -0.00797062 -0.0118683 -0.0266676 -0.0282662 -0.0297693 -0.0311497 -0.0324231 -0.0336373 -0.0348582 -0.0361549 -0.0375904 -0.0392145 -0.0410612 -0.0431474 -0.0454737 -0.0480241 -0.0507673 -0.0536564 -0.0566301 -0.0596123 -0.0625135 -0.0652312 -0.0676519 -0.0696528 -0.0711048 -0.0718759 -0.0718363 -0.0708638 -0.0688518 -0.0657183 -0.0614191 -0.055964 -0.0494381 -0.0420275 -0.0340466 -0.0259586 -0.0183759 -0.0120209 -0.00763444 -0.00583761 -0.00699662 -0.0111804 -0.0312094 -0.0328309 -0.0343198 -0.0356237 -0.0367545 -0.0377736 -0.0387692 -0.039835 -0.041055 -0.0424954 -0.044201 -0.0461947 -0.0484791 -0.0510375 -0.0538356 -0.0568225 -0.0599311 -0.0630796 -0.0661716 -0.0690975 -0.0717359 -0.0739557 -0.075619 -0.0765841 -0.0767106 -0.0758648 -0.0739262 -0.0707971 -0.0664135 -0.0607613 -0.0538968 -0.0459759 -0.0372877 -0.0282897 -0.0196271 -0.0121136 -0.00664614 -0.00404607 -0.00487008 -0.00931013 -0.0360252 -0.037719 -0.039212 -0.0404195 -0.0413539 -0.042101 -0.0427833 -0.0435284 -0.0444487 -0.0456298 -0.0471285 -0.0489733 -0.0511672 -0.0536911 -0.0565058 -0.0595541 -0.0627622 -0.0660406 -0.0692852 -0.0723782 -0.0751901 -0.0775811 -0.0794046 -0.0805097 -0.0807468 -0.079972 -0.0780542 -0.0748832 -0.07038 -0.0645106 -0.0573058 -0.0488891 -0.0395156 -0.0296186 -0.0198523 -0.0111006 -0.0044141 -0.000844324 -0.00119769 -0.00584955 -0.0411204 -0.0429588 -0.044479 -0.0455581 -0.0462206 -0.0465942 -0.0468527 -0.0471705 -0.047695 -0.0485347 -0.0497583 -0.0513978 -0.0534546 -0.0559039 -0.0586992 -0.0617746 -0.0650474 -0.0684189 -0.0717757 -0.074991 -0.0779259 -0.0804316 -0.082352 -0.0835274 -0.0837989 -0.0830138 -0.0810323 -0.0777355 -0.0730341 -0.0668811 -0.0592879 -0.0503498 -0.0402849 -0.0294888 -0.0185987 -0.00853848 -0.00049566 0.00422846 0.00451101 -0.000290493 -0.046528 -0.0486125 -0.0501829 -0.0510795 -0.0513614 -0.0512268 -0.0509246 -0.0506904 -0.0507139 -0.0511274 -0.0520093 -0.053392 -0.0552708 -0.0576117 -0.0603572 -0.0634303 -0.0667366 -0.0701664 -0.0735954 -0.0768864 -0.0798901 -0.0824474 -0.0843922 -0.0855549 -0.085767 -0.0848669 -0.082707 -0.0791617 -0.0741361 -0.0675767 -0.0594848 -0.049937 -0.0391193 -0.0273841 -0.0153298 -0.00388485 0.00565842 0.0117455 0.012868 0.00800134 -0.0523302 -0.0547976 -0.056431 -0.0570501 -0.0567926 -0.0559713 -0.0549405 -0.0540131 -0.0534248 -0.0533299 -0.0538112 -0.0548951 -0.0565653 -0.0587735 -0.0614476 -0.0644956 -0.0678096 -0.0712666 -0.0747299 -0.0780502 -0.0810668 -0.0836091 -0.0854995 -0.0865571 -0.0866025 -0.0854639 -0.082985 -0.0790337 -0.0735114 -0.0663634 -0.05759 -0.0472614 -0.0355443 -0.0227532 -0.00943626 0.00350647 0.0147219 0.0224197 0.0246418 0.0198261 -0.0586972 -0.0617237 -0.0633992 -0.0635735 -0.0625427 -0.0607987 -0.0588377 -0.057062 -0.0557522 -0.0550761 -0.0551112 -0.0558689 -0.0573136 -0.0593772 -0.061968 -0.0649766 -0.0682785 -0.0717359 -0.0751983 -0.078503 -0.0814766 -0.0839357 -0.0856898 -0.0865448 -0.0863084 -0.084796 -0.08184 -0.077299 -0.0710695 -0.0630963 -0.0533842 -0.0420085 -0.0291335 -0.0150511 -0.00026313 0.0143805 0.0275114 0.0371412 0.0408111 0.0362143 -0.0659562 -0.0697526 -0.0713669 -0.0708034 -0.0686545 -0.0656792 -0.062551 -0.0597645 -0.0576324 -0.0563191 -0.0558817 -0.0563041 -0.0575224 -0.0594422 -0.0619483 -0.0649105 -0.068186 -0.0716208 -0.0750494 -0.0782952 -0.0811709 -0.0834791 -0.0850153 -0.0855704 -0.0849363 -0.0829127 -0.0793159 -0.0739902 -0.0668208 -0.0577472 -0.0467762 -0.0339928 -0.0195719 -0.00380388 0.0128383 0.0295566 0.0450006 0.0570291 0.06265 0.0585393 -0.0747217 -0.0794997 -0.0807672 -0.0789586 -0.0751861 -0.0705814 -0.066016 -0.0620574 -0.0590201 -0.0570377 -0.0561249 -0.0562228 -0.0572296 -0.0590183 -0.0614462 -0.0643604 -0.0675987 -0.0709901 -0.0743539 -0.077499 -0.080224 -0.0823171 -0.0835584 -0.0837226 -0.0825837 -0.0799214 -0.0755309 -0.0692345 -0.0608958 -0.050436 -0.0378511 -0.0232253 -0.00674394 0.0112915 0.030415 0.0498639 0.068314 0.0834998 0.0918676 0.0887208 -0.0861454 -0.0920036 -0.0922531 -0.0883305 -0.0822018 -0.0754651 -0.0691657 -0.063886 -0.0598882 -0.0572336 -0.0558673 -0.055671 -0.0564949 -0.0581737 -0.0605353 -0.0634028 -0.0665945 -0.0699228 -0.0731922 -0.0761976 -0.0787238 -0.080545 -0.0814258 -0.0811238 -0.0793932 -0.0759912 -0.0706863 -0.0632696 -0.0535695 -0.0414696 -0.0269286 -0.0100007 0.00914672 0.0302163 0.0527466 0.075998 0.0986625 0.118338 0.130833 0.129603 -0.102421 -0.109001 -0.106757 -0.0992554 -0.0897301 -0.0802454 -0.0719012 -0.0651784 -0.0602017 -0.056906 -0.0551347 -0.0546927 -0.0553734 -0.0569705 -0.0592809 -0.0621048 -0.065242 -0.0684899 -0.0716393 -0.074473 -0.0767633 -0.0782712 -0.0787471 -0.0779319 -0.0755601 -0.0713642 -0.065082 -0.0564654 -0.0452933 -0.0313873 -0.0146325 0.00499941 0.0274231 0.0524144 0.0795752 0.108234 0.137132 0.163706 0.182921 0.185662 -0.127862 -0.133331 -0.125465 -0.111973 -0.0976204 -0.0846686 -0.0739872 -0.0657563 -0.0598417 -0.0559843 -0.0538915 -0.0532756 -0.0538682 -0.0554211 -0.0577025 -0.0604919 -0.0635738 -0.0667329 -0.0697496 -0.0723965 -0.074436 -0.0756184 -0.075682 -0.0743532 -0.0713482 -0.0663757 -0.0591413 -0.0493529 -0.0367283 -0.0210052 -0.00195447 0.0206012 0.0467614 0.0765156 0.1097 0.145904 0.184153 0.221901 0.252958 0.264295 -0.171352 -0.169341 -0.149437 -0.126145 -0.105117 -0.0879724 -0.0747933 -0.0651404 -0.0584555 -0.0542095 -0.0519437 -0.0512706 -0.0518615 -0.0534316 -0.0557266 -0.0585107 -0.061558 -0.0646451 -0.0675453 -0.0700251 -0.0718402 -0.0727339 -0.0724359 -0.0706619 -0.0671135 -0.0614792 -0.0534353 -0.0426464 -0.0287661 -0.0114356 0.00971726 0.0350804 0.0650556 0.100049 0.140446 0.186555 0.238366 0.294335 0.347477 0.37818 -0.252183 -0.222506 -0.178033 -0.13937 -0.109758 -0.088167 -0.0728483 -0.0622686 -0.0552669 -0.0509957 -0.048832 -0.0483054 -0.0490456 -0.0507472 -0.0531453 -0.0559989 -0.0590792 -0.0621608 -0.0650155 -0.0674078 -0.0690916 -0.0698073 -0.069281 -0.0672225 -0.0633247 -0.0572624 -0.0486901 -0.0372379 -0.0225041 -0.00404148 0.018665 0.046234 0.0794418 0.119298 0.167144 0.224772 0.294524 0.378643 0.473445 0.549937 -0.413134 -0.294557 -0.202782 -0.143062 -0.105312 -0.0811658 -0.0654973 -0.0553507 -0.0489962 -0.0453717 -0.0437835 -0.0437458 -0.0448932 -0.0469306 -0.0496039 -0.0526813 -0.0559417 -0.0591656 -0.0621297 -0.0646023 -0.0663403 -0.0670866 -0.0665682 -0.0644953 -0.060559 -0.054429 -0.04575 -0.0341337 -0.0191464 -0.000285685 0.0230598 0.0516792 0.086661 0.129606 0.183007 0.250917 0.340117 0.461903 0.630133 0.823159 -0.752734 -0.345234 -0.186219 -0.116487 -0.0812613 -0.0614159 -0.049506 -0.0422696 -0.0381065 -0.0361372 -0.0358195 -0.0367788 -0.0387277 -0.0414262 -0.0446589 -0.0482219 -0.0519144 -0.0555328 -0.058866 -0.0616924 -0.0637772 -0.0648706 -0.0647062 -0.0629997 -0.0594473 -0.0537233 -0.0454761 -0.0343202 -0.0198236 -0.0014829 0.0213186 0.0493875 0.083863 0.1265 0.180278 0.250841 0.350151 0.505352 0.774657 1.27427 0 0 0 0 0 0 0 0 0 0 0 0 0 0 0 0 0 0 0 0 0 0 0 0 0 0 0 0 0 0 0 0 0 0 0 0 0 0 0 0 -0.00206441 -0.00242805 -0.00295478 -0.00350475 -0.00402731 -0.00449388 -0.00488413 -0.00518297 -0.00537958 -0.00546673 -0.00544025 -0.00529858 -0.00504256 -0.00467531 -0.00420228 -0.00363137 -0.00297304 -0.00224034 -0.00144894 -0.000616881 0.000235741 0.00108731 0.00191536 0.00269736 0.00341158 0.004038 0.00455918 0.0049611 0.00523385 0.00537225 0.00537622 0.005251 0.00500717 0.00466035 0.00423062 0.00374171 0.00322033 0.00269761 0.00222187 0.00192484 -0.00237418 -0.00256691 -0.00293963 -0.00337423 -0.00380731 -0.00420208 -0.00453503 -0.00479022 -0.00495671 -0.00502724 -0.0049974 -0.00486521 -0.00463088 -0.00429674 -0.0038673 -0.00334935 -0.00275209 -0.00208717 -0.00136866 -0.000612908 0.000161819 0.000935773 0.00168835 0.00239881 0.00304712 0.00361483 0.00408589 0.00444755 0.00469101 0.00481202 0.00481131 0.00469476 0.0044734 0.00416326 0.00378509 0.00336444 0.00293271 0.00253144 0.00222445 0.00212545 -0.002305 -0.00252596 -0.00286122 -0.00324303 -0.00362338 -0.00397057 -0.00426362 -0.00448839 -0.00463528 -0.0046978 -0.00467183 -0.00455518 -0.00434741 -0.00404987 -0.0036658 -0.00320047 -0.0026614 -0.00205845 -0.00140383 -0.00071205 3.32764e-07 0.000715107 0.00141295 0.0020741 0.0026792 0.00321017 0.00365114 0.00398938 0.00421609 0.00432711 0.00432333 0.00421099 0.00400161 0.00371181 0.00336307 0.00298174 0.0025998 0.00225715 0.00200581 0.00191311 -0.00205468 -0.00237209 -0.00273609 -0.00311336 -0.00347475 -0.00379869 -0.00407019 -0.004279 -0.00441803 -0.00448232 -0.00446842 -0.00437408 -0.00419824 -0.0039411 -0.00360439 -0.00319158 -0.0027082 -0.00216205 -0.00156331 -0.000924631 -0.000260956 0.000410735 0.00107191 0.00170313 0.00228488 0.00279851 0.00322734 0.00355765 0.00377969 0.00388856 0.00388471 0.00377427 0.00356899 0.00328589 0.00294678 0.00257775 0.00220888 0.00187421 0.00161131 0.00145752 -0.00174225 -0.00217625 -0.0026015 -0.00300512 -0.00337329 -0.00369491 -0.00396205 -0.00416928 -0.00431267 -0.00438921 -0.00439631 -0.00433179 -0.00419388 -0.00398153 -0.00369475 -0.00333501 -0.00290562 -0.00241213 -0.00186259 -0.00126772 -0.000640971 1.69275e-06 0.000642164 0.0012608 0.00183729 0.00235167 0.00278555 0.00312335 0.00335352 0.00346956 0.00347074 0.00336254 0.00315648 0.00286967 0.0025239 0.00214458 0.0017595 0.0013974 0.00108586 0.000847343 -0.00144583 -0.00199866 -0.00249902 -0.00294661 -0.00333919 -0.00367484 -0.00395245 -0.00417145 -0.00433122 -0.00443072 -0.0044683 -0.00444173 -0.00434849 -0.00418613 -0.00395278 -0.0036477 -0.00327183 -0.0028