# vtk DataFile Version 2.0
Velocidades
ASCII

DATASET STRUCTURED_GRID
DIMENSIONS   40   40   20

POINTS   32000   double
0.0125   0.0125   0.025
0.0125   0.0375   0.025
0.0125   0.0625   0.025
0.0125   0.0875   0.025
0.0125   0.1125   0.025
0.0125   0.1375   0.025
0.0125   0.1625   0.025
0.0125   0.1875   0.025
0.0125   0.2125   0.025
0.0125   0.2375   0.025
0.0125   0.2625   0.025
0.0125   0.2875   0.025
0.0125   0.3125   0.025
0.0125   0.3375   0.025
0.0125   0.3625   0.025
0.0125   0.3875   0.025
0.0125   0.4125   0.025
0.0125   0.4375   0.025
0.0125   0.4625   0.025
0.0125   0.4875   0.025
0.0125   0.5125   0.025
0.0125   0.5375   0.025
0.0125   0.5625   0.025
0.0125   0.5875   0.025
0.0125   0.6125   0.025
0.0125   0.6375   0.025
0.0125   0.6625   0.025
0.0125   0.6875   0.025
0.0125   0.7125   0.025
0.0125   0.7375   0.025
0.0125   0.7625   0.025
0.0125   0.7875   0.025
0.0125   0.8125   0.025
0.0125   0.8375   0.025
0.0125   0.8625   0.025
0.0125   0.8875   0.025
0.0125   0.9125   0.025
0.0125   0.9375   0.025
0.0125   0.9625   0.025
0.0125   0.9875   0.025
0.0375   0.0125   0.025
0.0375   0.0375   0.025
0.0375   0.0625   0.025
0.0375   0.0875   0.025
0.0375   0.1125   0.025
0.0375   0.1375   0.025
0.0375   0.1625   0.025
0.0375   0.1875   0.025
0.0375   0.2125   0.025
0.0375   0.2375   0.025
0.0375   0.2625   0.025
0.0375   0.2875   0.025
0.0375   0.3125   0.025
0.0375   0.3375   0.025
0.0375   0.3625   0.025
0.0375   0.3875   0.025
0.0375   0.4125   0.025
0.0375   0.4375   0.025
0.0375   0.4625   0.025
0.0375   0.4875   0.025
0.0375   0.5125   0.025
0.0375   0.5375   0.025
0.0375   0.5625   0.025
0.0375   0.5875   0.025
0.0375   0.6125   0.025
0.0375   0.6375   0.025
0.0375   0.6625   0.025
0.0375   0.6875   0.025
0.0375   0.7125   0.025
0.0375   0.7375   0.025
0.0375   0.7625   0.025
0.0375   0.7875   0.025
0.0375   0.8125   0.025
0.0375   0.8375   0.025
0.0375   0.8625   0.025
0.0375   0.8875   0.025
0.0375   0.9125   0.025
0.0375   0.9375   0.025
0.0375   0.9625   0.025
0.0375   0.9875   0.025
0.0625   0.0125   0.025
0.0625   0.0375   0.025
0.0625   0.0625   0.025
0.0625   0.0875   0.025
0.0625   0.1125   0.025
0.0625   0.1375   0.025
0.0625   0.1625   0.025
0.0625   0.1875   0.025
0.0625   0.2125   0.025
0.0625   0.2375   0.025
0.0625   0.2625   0.025
0.0625   0.2875   0.025
0.0625   0.3125   0.025
0.0625   0.3375   0.025
0.0625   0.3625   0.025
0.0625   0.3875   0.025
0.0625   0.4125   0.025
0.0625   0.4375   0.025
0.0625   0.4625   0.025
0.0625   0.4875   0.025
0.0625   0.5125   0.025
0.0625   0.5375   0.025
0.0625   0.5625   0.025
0.0625   0.5875   0.025
0.0625   0.6125   0.025
0.0625   0.6375   0.025
0.0625   0.6625   0.025
0.0625   0.6875   0.025
0.0625   0.7125   0.025
0.0625   0.7375   0.025
0.0625   0.7625   0.025
0.0625   0.7875   0.025
0.0625   0.8125   0.025
0.0625   0.8375   0.025
0.0625   0.8625   0.025
0.0625   0.8875   0.025
0.0625   0.9125   0.025
0.0625   0.9375   0.025
0.0625   0.9625   0.025
0.0625   0.9875   0.025
0.0875   0.0125   0.025
0.0875   0.0375   0.025
0.0875   0.0625   0.025
0.0875   0.0875   0.025
0.0875   0.1125   0.025
0.0875   0.1375   0.025
0.0875   0.1625   0.025
0.0875   0.1875   0.025
0.0875   0.2125   0.025
0.0875   0.2375   0.025
0.0875   0.2625   0.025
0.0875   0.2875   0.025
0.0875   0.3125   0.025
0.0875   0.3375   0.025
0.0875   0.3625   0.025
0.0875   0.3875   0.025
0.0875   0.4125   0.025
0.0875   0.4375   0.025
0.0875   0.4625   0.025
0.0875   0.4875   0.025
0.0875   0.5125   0.025
0.0875   0.5375   0.025
0.0875   0.5625   0.025
0.0875   0.5875   0.025
0.0875   0.6125   0.025
0.0875   0.6375   0.025
0.0875   0.6625   0.025
0.0875   0.6875   0.025
0.0875   0.7125   0.025
0.0875   0.7375   0.025
0.0875   0.7625   0.025
0.0875   0.7875   0.025
0.0875   0.8125   0.025
0.0875   0.8375   0.025
0.0875   0.8625   0.025
0.0875   0.8875   0.025
0.0875   0.9125   0.025
0.0875   0.9375   0.025
0.0875   0.9625   0.025
0.0875   0.9875   0.025
0.1125   0.0125   0.025
0.1125   0.0375   0.025
0.1125   0.0625   0.025
0.1125   0.0875   0.025
0.1125   0.1125   0.025
0.1125   0.1375   0.025
0.1125   0.1625   0.025
0.1125   0.1875   0.025
0.1125   0.2125   0.025
0.1125   0.2375   0.025
0.1125   0.2625   0.025
0.1125   0.2875   0.025
0.1125   0.3125   0.025
0.1125   0.3375   0.025
0.1125   0.3625   0.025
0.1125   0.3875   0.025
0.1125   0.4125   0.025
0.1125   0.4375   0.025
0.1125   0.4625   0.025
0.1125   0.4875   0.025
0.1125   0.5125   0.025
0.1125   0.5375   0.025
0.1125   0.5625   0.025
0.1125   0.5875   0.025
0.1125   0.6125   0.025
0.1125   0.6375   0.025
0.1125   0.6625   0.025
0.1125   0.6875   0.025
0.1125   0.7125   0.025
0.1125   0.7375   0.025
0.1125   0.7625   0.025
0.1125   0.7875   0.025
0.1125   0.8125   0.025
0.1125   0.8375   0.025
0.1125   0.8625   0.025
0.1125   0.8875   0.025
0.1125   0.9125   0.025
0.1125   0.9375   0.025
0.1125   0.9625   0.025
0.1125   0.9875   0.025
0.1375   0.0125   0.025
0.1375   0.0375   0.025
0.1375   0.0625   0.025
0.1375   0.0875   0.025
0.1375   0.1125   0.025
0.1375   0.1375   0.025
0.1375   0.1625   0.025
0.1375   0.1875   0.025
0.1375   0.2125   0.025
0.1375   0.2375   0.025
0.1375   0.2625   0.025
0.1375   0.2875   0.025
0.1375   0.3125   0.025
0.1375   0.3375   0.025
0.1375   0.3625   0.025
0.1375   0.3875   0.025
0.1375   0.4125   0.025
0.1375   0.4375   0.025
0.1375   0.4625   0.025
0.1375   0.4875   0.025
0.1375   0.5125   0.025
0.1375   0.5375   0.025
0.1375   0.5625   0.025
0.1375   0.5875   0.025
0.1375   0.6125   0.025
0.1375   0.6375   0.025
0.1375   0.6625   0.025
0.1375   0.6875   0.025
0.1375   0.7125   0.025
0.1375   0.7375   0.025
0.1375   0.7625   0.025
0.1375   0.7875   0.025
0.1375   0.8125   0.025
0.1375   0.8375   0.025
0.1375   0.8625   0.025
0.1375   0.8875   0.025
0.1375   0.9125   0.025
0.1375   0.9375   0.025
0.1375   0.9625   0.025
0.1375   0.9875   0.025
0.1625   0.0125   0.025
0.1625   0.0375   0.025
0.1625   0.0625   0.025
0.1625   0.0875   0.025
0.1625   0.1125   0.025
0.1625   0.1375   0.025
0.1625   0.1625   0.025
0.1625   0.1875   0.025
0.1625   0.2125   0.025
0.1625   0.2375   0.025
0.1625   0.2625   0.025
0.1625   0.2875   0.025
0.1625   0.3125   0.025
0.1625   0.3375   0.025
0.1625   0.3625   0.025
0.1625   0.3875   0.025
0.1625   0.4125   0.025
0.1625   0.4375   0.025
0.1625   0.4625   0.025
0.1625   0.4875   0.025
0.1625   0.5125   0.025
0.1625   0.5375   0.025
0.1625   0.5625   0.025
0.1625   0.5875   0.025
0.1625   0.6125   0.025
0.1625   0.6375   0.025
0.1625   0.6625   0.025
0.1625   0.6875   0.025
0.1625   0.7125   0.025
0.1625   0.7375   0.025
0.1625   0.7625   0.025
0.1625   0.7875   0.025
0.1625   0.8125   0.025
0.1625   0.8375   0.025
0.1625   0.8625   0.025
0.1625   0.8875   0.025
0.1625   0.9125   0.025
0.1625   0.9375   0.025
0.1625   0.9625   0.025
0.1625   0.9875   0.025
0.1875   0.0125   0.025
0.1875   0.0375   0.025
0.1875   0.0625   0.025
0.1875   0.0875   0.025
0.1875   0.1125   0.025
0.1875   0.1375   0.025
0.1875   0.1625   0.025
0.1875   0.1875   0.025
0.1875   0.2125   0.025
0.1875   0.2375   0.025
0.1875   0.2625   0.025
0.1875   0.2875   0.025
0.1875   0.3125   0.025
0.1875   0.3375   0.025
0.1875   0.3625   0.025
0.1875   0.3875   0.025
0.1875   0.4125   0.025
0.1875   0.4375   0.025
0.1875   0.4625   0.025
0.1875   0.4875   0.025
0.1875   0.5125   0.025
0.1875   0.5375   0.025
0.1875   0.5625   0.025
0.1875   0.5875   0.025
0.1875   0.6125   0.025
0.1875   0.6375   0.025
0.1875   0.6625   0.025
0.1875   0.6875   0.025
0.1875   0.7125   0.025
0.1875   0.7375   0.025
0.1875   0.7625   0.025
0.1875   0.7875   0.025
0.1875   0.8125   0.025
0.1875   0.8375   0.025
0.1875   0.8625   0.025
0.1875   0.8875   0.025
0.1875   0.9125   0.025
0.1875   0.9375   0.025
0.1875   0.9625   0.025
0.1875   0.9875   0.025
0.2125   0.0125   0.025
0.2125   0.0375   0.025
0.2125   0.0625   0.025
0.2125   0.0875   0.025
0.2125   0.1125   0.025
0.2125   0.1375   0.025
0.2125   0.1625   0.025
0.2125   0.1875   0.025
0.2125   0.2125   0.025
0.2125   0.2375   0.025
0.2125   0.2625   0.025
0.2125   0.2875   0.025
0.2125   0.3125   0.025
0.2125   0.3375   0.025
0.2125   0.3625   0.025
0.2125   0.3875   0.025
0.2125   0.4125   0.025
0.2125   0.4375   0.025
0.2125   0.4625   0.025
0.2125   0.4875   0.025
0.2125   0.5125   0.025
0.2125   0.5375   0.025
0.2125   0.5625   0.025
0.2125   0.5875   0.025
0.2125   0.6125   0.025
0.2125   0.6375   0.025
0.2125   0.6625   0.025
0.2125   0.6875   0.025
0.2125   0.7125   0.025
0.2125   0.7375   0.025
0.2125   0.7625   0.025
0.2125   0.7875   0.025
0.2125   0.8125   0.025
0.2125   0.8375   0.025
0.2125   0.8625   0.025
0.2125   0.8875   0.025
0.2125   0.9125   0.025
0.2125   0.9375   0.025
0.2125   0.9625   0.025
0.2125   0.9875   0.025
0.2375   0.0125   0.025
0.2375   0.0375   0.025
0.2375   0.0625   0.025
0.2375   0.0875   0.025
0.2375   0.1125   0.025
0.2375   0.1375   0.025
0.2375   0.1625   0.025
0.2375   0.1875   0.025
0.2375   0.2125   0.025
0.2375   0.2375   0.025
0.2375   0.2625   0.025
0.2375   0.2875   0.025
0.2375   0.3125   0.025
0.2375   0.3375   0.025
0.2375   0.3625   0.025
0.2375   0.3875   0.025
0.2375   0.4125   0.025
0.2375   0.4375   0.025
0.2375   0.4625   0.025
0.2375   0.4875   0.025
0.2375   0.5125   0.025
0.2375   0.5375   0.025
0.2375   0.5625   0.025
0.2375   0.5875   0.025
0.2375   0.6125   0.025
0.2375   0.6375   0.025
0.2375   0.6625   0.025
0.2375   0.6875   0.025
0.2375   0.7125   0.025
0.2375   0.7375   0.025
0.2375   0.7625   0.025
0.2375   0.7875   0.025
0.2375   0.8125   0.025
0.2375   0.8375   0.025
0.2375   0.8625   0.025
0.2375   0.8875   0.025
0.2375   0.9125   0.025
0.2375   0.9375   0.025
0.2375   0.9625   0.025
0.2375   0.9875   0.025
0.2625   0.0125   0.025
0.2625   0.0375   0.025
0.2625   0.0625   0.025
0.2625   0.0875   0.025
0.2625   0.1125   0.025
0.2625   0.1375   0.025
0.2625   0.1625   0.025
0.2625   0.1875   0.025
0.2625   0.2125   0.025
0.2625   0.2375   0.025
0.2625   0.2625   0.025
[...]
POINT_DATA   32000
VECTORS Velocidades double

2.61363e-05 0 0
7.8742e-05 0 0
0.000132417 0 0
0.000187909 0 0
0.000245967 0 0
0.000307327 0 0
0.000372705 0 0
0.000442797 0 0
0.00051828 0 0
0.000599815 0 0
0.000688058 0 0
0.000783674 0 0
0.000887363 0 0
0.000999882 0 0
0.00112209 0 0
0.00125499 0 0
0.0013998 0 0
0.00155801 0 0
0.0017315 0 0
0.00192268 0 0
0.00213458 0 0
0.00237115 0 0
0.00263744 0 0
0.00294002 0 0
0.00328747 0 0
0.0036911 0 0
0.00416607 0 0
0.00473304 0 0
0.00542077 0 0
0.00627033 0 0
0.00734218 0 0
0.0087286 0 0
0.0105769 0 0
0.0131355 0 0
0.0168532 0 0
0.022617 0 0
0.032393 0 0
0.0512443 0 0
0.0949522 0 0
0.225921 0 0
7.44253e-05 0 0
0.00022423 0 0
0.000377095 0 0
0.000535159 0 0
0.000700559 0 0
0.000875397 0 0
0.00106172 0 0
0.00126153 0 0
0.00147675 0 0
0.00170928 0 0
0.001961 0 0
0.00223381 0 0
0.00252972 0 0
0.00285091 0 0
0.00319984 0 0
0.00357938 0 0
0.00399302 0 0
0.00444505 0 0
0.00494087 0 0
0.00548733 0 0
0.0060932 0 0
0.00676975 0 0
0.00753151 0 0
0.00839734 0 0
0.00939187 0 0
0.0105476 0 0
0.0119081 0 0
0.0135328 0 0
0.0155041 0 0
0.01794 0 0
0.0210138 0 0
0.0249894 0 0
0.0302864 0 0
0.0376075 0 0
0.0482073 0 0
0.0645113 0 0
0.0916991 0 0
0.142284 0 0
0.251407 0 0
0.53661 0 0
0.000116148 0 0
0.00034995 0 0
0.000588569 0 0
0.000835368 0 0
0.0010937 0 0
0.00136687 0 0
0.0016581 0 0
0.00197053 0 0
0.00230719 0 0
0.00267107 0 0
0.00306514 0 0
0.00349241 0 0
0.00395604 0 0
0.00445949 0 0
0.00500663 0 0
0.00560201 0 0
0.00625112 0 0
0.00696075 0 0
0.0077394 0 0
0.00859788 0 0
0.00955003 0 0
0.0106136 0 0
0.0118117 0 0
0.013174 0 0
0.0147396 0 0
0.0165597 0 0
0.0187034 0 0
0.0212643 0 0
0.0243728 0 0
0.0282147 0 0
0.0330623 0 0
0.0393285 0 0
0.0476644 0 0
0.0591474 0 0
0.0756631 0 0
0.10074 0 0
0.141524 0 0
0.213822 0 0
0.355916 0 0
0.665392 0 0
0.00015351 0 0
0.000462545 0 0
0.000778018 0 0
0.00110441 0 0
0.00144621 0 0
0.0018078 0 0
0.00219349 0 0
0.00260745 0 0
0.00305377 0 0
0.00353644 0 0
0.00405941 0 0
0.00462675 0 0
0.00524269 0 0
0.00591184 0 0
0.00663943 0 0
0.00743155 0 0
0.00829555 0 0
0.00924049 0 0
0.0102777 0 0
0.0114218 0 0
0.012691 0 0
0.0141094 0 0
0.0157076 0 0
0.0175256 0 0
0.0196157 0 0
0.0220467 0 0
0.0249106 0 0
0.0283328 0 0
0.0324871 0 0
0.0376206 0 0
0.0440939 0 0
0.0524497 0 0
0.063536 0 0
0.0787342 0 0
0.100409 0 0
0.132838 0 0
0.184253 0 0
0.271506 0 0
0.43068 0 0
0.735726 0 0
0.000187791 0 0
0.000565873 0 0
0.000951934 0 0
0.00135152 0 0
0.00177016 0 0
0.00221329 0 0
0.00268623 0 0
0.00319416 0 0
0.00374213 0 0
0.00433508 0 0
0.00497795 0 0
0.00567576 0 0
0.00643379 0 0
0.00725778 0 0
0.00815421 0 0
0.00913064 0 0
0.0101962 0 0
0.011362 0 0
0.0126423 0 0
0.0140547 0 0
0.0156222 0 0
0.0173743 0 0
0.019349 0 0
0.0215959 0 0
0.0241797 0 0
0.0271854 0 0
0.0307268 0 0
0.0349583 0 0
0.0400935 0 0
0.0464351 0 0
0.0544218 0 0
0.0647096 0 0
0.078311 0 0
0.0968499 0 0
0.123043 0 0
0.161651 0 0
0.22142 0 0
0.319074 0 0
0.486824 0 0
0.779241 0 0
0.000219764 0 0
0.000662265 0 0
0.00111424 0 0
0.00158225 0 0
0.00207284 0 0
0.00259247 0 0
0.00314742 0 0
0.00374385 0 0
0.00438773 0 0
0.00508494 0 0
0.00584136 0 0
0.00666297 0 0
0.00755603 0 0
0.00852739 0 0
0.00958474 0 0
0.0107371 0 0
0.0119952 0 0
0.0133723 0 0
0.014885 0 0
0.0165545 0 0
0.0184075 0 0
0.020479 0 0
0.0228138 0 0
0.0254707 0 0
0.028526 0 0
0.0320802 0 0
0.0362671 0 0
0.0412679 0 0
0.0473329 0 0
0.0548144 0 0
0.0642207 0 0
0.0763048 0 0
0.0922156 0 0
0.113767 0 0
0.143926 0 0
0.187743 0 0
0.254109 0 0
0.359024 0 0
0.530521 0 0
0.80843 0 0
0.000249909 0 0
0.000753165 0 0
0.00126736 0 0
0.00180005 0 0
0.0023588 0 0
0.00295102 0 0
0.00358397 0 0
0.00426474 0 0
0.00500023 0 0
0.00579724 0 0
0.00666256 0 0
0.00760309 0 0
0.00862611 0 0
0.00973952 0 0
0.0109522 0 0
0.0122745 0 0
0.013719 0 0
0.0153007 0 0
0.0170388 0 0
0.0189574 0 0
0.0210872 0 0
0.023468 0 0
0.0261512 0 0
0.0292041 0 0
0.0327143 0 0
0.0367966 0 0
0.0416033 0 0
0.0473405 0 0
0.0542915 0 0
0.0628535 0 0
0.0735959 0 0
0.0873541 0 0
0.105389 0 0
0.12966 0 0
0.163308 0 0
0.211529 0 0
0.283126 0 0
0.393086 0 0
0.565494 0 0
0.829225 0 0
0.000278525 0 0
0.000839476 0 0
0.00141282 0 0
0.00200711 0 0
0.00263087 0 0
0.00329251 0 0
0.00400023 0 0
0.00476204 0 0
0.00558577 0 0
0.00647911 0 0
0.00744976 0 0
0.00850555 0 0
0.00965473 0 0
0.0109063 0 0
0.0122702 0 0
0.0137583 0 0
0.0153846 0 0
0.0171663 0 0
0.0191248 0 0
0.0212872 0 0
0.0236878 0 0
0.0263709 0 0
0.029394 0 0
0.0328324 0 0
0.0367845 0 0
0.0413784 0 0
0.0467836 0 0
0.0532286 0 0
0.0610269 0 0
0.0706158 0 0
0.0826176 0 0
0.0979381 0 0
0.117928 0 0
0.144657 0 0
0.181378 0 0
0.233331 0 0
0.309086 0 0
0.422501 0 0
0.594132 0 0
0.844761 0 0
0.000305796 0 0
0.000921756 0 0
0.00155156 0 0
0.00220475 0 0
0.00289084 0 0
0.00361919 0 0
0.00439895 0 0
0.00523905 0 0
0.00614823 0 0
0.00713509 0 0
0.00820822 0 0
0.00937637 0 0
0.0106488 0 0
0.0120354 0 0
0.0135475 0 0
0.0151982 0 0
0.0170031 0 0
0.0189814 0 0
0.0211569 0 0
0.0235593 0 0
0.0262269 0 0
0.029208 0 0
0.0325654 0 0
0.0363817 0 0
0.040766 0 0
0.0458581 0 0
0.0518435 0 0
0.0589713 0 0
0.0675821 0 0
0.0781488 0 0
0.0913397 0 0
0.108119 0 0
0.129911 0 0
0.158862 0 0
0.198292 0 0
0.253413 0 0
0.332474 0 0
0.448187 0 0
0.618037 0 0
0.856824 0 0
0.000331842 0 0
0.00100036 0 0
0.00168418 0 0
0.00239385 0 0
0.00313985 0 0
0.00393249 0 0
0.00478188 0 0
0.00569789 0 0
0.00669015 0 0
0.00776816 0 0
0.00894139 0 0
0.0102195 0 0
0.0116127 0 0
0.0131321 0 0
0.0147899 0 0
0.0166007 0 0
0.0185816 0 0
0.0207538 0 0
0.0231435 0 0
0.0257836 0 0
0.0287159 0 0
0.0319941 0 0
0.0356878 0 0
0.0398912 0 0
0.0447033 0 0
0.0502839 0 0
0.0568348 0 0
0.064625 0 0
0.0740195 0 0
0.0855223 0 0
0.0998414 0 0
0.11799 0 0
0.141446 0 0
0.172414 0 0
0.214238 0 0
0.272053 0 0
0.353732 0 0
0.470881 0 0
0.638354 0 0
0.86651 0 0
0.000356707 0 0
0.00107543 0 0
0.00181094 0 0
0.00257476 0 0
0.00337836 0 0
0.00423305 0 0
0.00514985 0 0
0.00613958 0 0
0.00721277 0 0
0.00837981 0 0
0.00965108 0 0
0.0110372 0 0
0.0125492 0 0
0.0141991 0 0
0.0160006 0 0
0.0179693 0 0
0.0201241 0 0
0.0224879 0 0
0.0250893 0 0
0.0279644 0 0
0.0311588 0 0
0.0347315 0 0
0.0387588 0 0
0.0433416 0 0
0.0485763 0 0
0.0546362 0 0
0.0617389 0 0
0.0701718 0 0
0.0803223 0 0
0.0927221 0 0
0.108113 0 0
0.127547 0 0
0.152547 0 0
0.185351 0 0
0.229298 0 0
0.28941 0 0
0.373159 0 0
0.491108 0 0
0.65587 0 0
0.874492 0 0
0.000380381 0 0
0.00114694 0 0
0.00193177 0 0
0.00274743 0 0
0.00360636 0 0
0.00452085 0 0
0.0055029 0 0
0.00656423 0 0
0.00771631 0 0
0.00897041 0 0
0.0103378 0 0
0.01183 0 0
0.013459 0 0
0.0152378 0 0
0.0171811 0 0
0.0193059 0 0
0.0216324 0 0
0.0241854 0 0
0.0269957 0 0
0.0301022 0 0
0.033554 0 0
0.037414 0 0
0.0417621 0 0
0.0466992 0 0
0.0523437 0 0
0.0588704 0 0
0.0665089 0 0
0.0755628 0 0
0.0864399 0 0
0.0996961 0 0
0.116102 0 0
0.136744 0 0
0.163174 0 0
0.197649 0 0
0.243484 0 0
0.305562 0 0
0.390946 0 0
0.509229 0 0
0.671125 0 0
0.881191 0 0
0.000402832 0 0
0.00121478 0 0
0.00204653 0 0
0.00291165 0 0
0.0038236 0 0
0.00479563 0 0
0.00584074 0 0
0.00697157 0 0
0.00820053 0 0
0.00953978 0 0
0.0110015 0 0
0.012598 0 0
0.0143423 0 0
0.0162483 0 0
0.0183318 0 0
0.0206108 0 0
0.023107 0 0
0.0258469 0 0
0.0288632 0 0
0.0321972 0 0
0.0359009 0 0
0.0400402 0 0
0.0446987 0 0
0.0499817 0 0
0.0560223 0 0
0.0630016 0 0
0.0711593 0 0
0.0808131 0 0
0.0923884 0 0
0.106463 0 0
0.123832 0 0
0.145606 0 0
0.173363 0 0
0.209363 0 0
0.25688 0 0
0.32064 0 0
0.407303 0 0
0.525574 0 0
0.684552 0 0
0.886915 0 0
0.000423994 0 0
0.00127877 0 0
0.0021549 0 0
0.00306698 0 0
0.0040295 0 0
0.00505673 0 0
0.00616262 0 0
0.0073608 0 0
0.00866458 0 0
0.0100871 0 0
0.0116413 0 0
0.0133405 0 0
0.0151985 0 0
0.0172301 0 0
0.0194522 0 0
0.0218838 0 0
0.0245479 0 0
0.0274724 0 0
0.0306918 0 0
0.0342495 0 0
0.0382001 0 0
0.0426125 0 0
0.0475742 0 0
0.0531964 0 0
0.0596221 0 0
0.0670405 0 0
0.0757011 0 0
0.0859342 0 0
0.0981809 0 0
0.113037 0 0
0.13132 0 0
0.15416 0 0
0.183148 0 0
0.220541 0 0
0.269558 0 0
0.334759 0 0
0.42241 0 0
0.540406 0 0
0.696479 0 0
0.891878 0 0
0.000443769 0 0
0.00133861 0 0
0.00225639 0 0
0.00321276 0 0
0.00422325 0 0
0.00530315 0 0
0.00646741 0 0
0.00773063 0 0
0.00910708 0 0
0.0106108 0 0
0.0122557 0 0
0.0140558 0 0
0.0160259 0 0
0.0181818 0 0
0.020541 0 0
0.0231237 0 0
0.025954 0 0
0.0290611 0 0
0.0324812 0 0
0.0362594 0 0
0.0404528 0 0
0.0451334 0 0
0.0503927 0 0
0.0563477 0 0
0.0631493 0 0
0.0709947 0 0
0.0801428 0 0
0.0909355 0 0
0.103828 0 0
0.119432 0 0
0.138582 0 0
0.162424 0 0
0.192557 0 0
0.231224 0 0
0.28158 0 0
0.348014 0 0
0.436413 0 0
0.55394 0 0
0.70716 0 0
0.896235 0 0
0.000462035 0 0
0.00139394 0 0
0.00235039 0 0
0.00334813 0 0
0.00440373 0 0
0.00553354 0 0
0.00675353 0 0
0.0080793 0 0
0.00952609 0 0
0.0111089 0 0
0.0128424 0 0
0.0147418 0 0
0.0168225 0 0
0.0191012 0 0
0.0215962 0 0
0.0243287 0 0
0.0273238 0 0
0.0306119 0 0
0.0342306 0 0
0.0382269 0 0
0.04266 0 0
0.047605 0 0
0.0531573 0 0
0.0594392 0 0
0.0666084 0 0
0.0748697 0 0
0.084491 0 0
0.0958248 0 0
0.109339 0 0
0.125658 0 0
0.145631 0 0
0.170417 0 0
0.201615 0 0
0.241449 0 0
0.293001 0 0
0.360489 0 0
0.44944 0 0
0.56635 0 0
0.716793 0 0
0.900099 0 0
0.000478639 0 0
0.00144429 0 0
0.00243614 0 0
0.00347201 0 0
0.00456958 0 0
0.00574624 0 0
0.00701903 0 0
0.00840458 0 0
0.00991913 0 0
0.0115786 0 0
0.0133988 0 0
0.0153955 0 0
0.0175851 0 0
0.0199852 0 0
0.0226148 0 0
0.0254961 0 0
0.028655 0 0
0.032123 0 0
0.0359389 0 0
0.0401515 0 0
0.0448221 0 0
0.0500284 0 0
0.0558698 0 0
0.0624734 0 0
0.0700028 0 0
0.07867 0 0
0.0887511 0 0
0.100608 0 0
0.11472 0 0
0.131725 0 0
0.152481 0 0
0.178156 0 0
0.210346 0 0
0.251248 0 0
0.30387 0 0
0.372258 0 0
0.461596 0 0
0.577781 0 0
0.725538 0 0
0.903557 0 0
0.000493402 0 0
0.00148912 0 0
0.00251273 0 0
0.00358315 0 0
0.00471916 0 0
0.00593925 0 0
0.00726154 0 0
0.00870373 0 0
0.0102831 0 0
0.0120166 0 0
0.013921 0 0
0.016013 0 0
0.0183099 0 0
0.0208299 0 0
0.0235931 0 0
0.0266223 0 0
0.0299442 0 0
0.0335914 0 0
0.0376038 0 0
0.0420317 0 0
0.0469382 0 0
0.0524039 0 0
0.0585313 0 0
0.065452 0 0
0.073335 0 0
0.082399 0 0
0.0929278 0 0
0.105292 0 0
0.119981 0 0
0.137641 0 0
0.159142 0 0
0.185654 0 0
0.218769 0 0
0.260651 0 0
0.31423 0 0
0.383383 0 0
0.472972 0 0
0.588352 0 0
0.73352 0 0
0.906675 0 0
0.000506118 0 0
0.00152783 0 0
0.00257912 0 0
0.00368006 0 0
0.00485055 0 0
0.00611019 0 0
0.00747823 0 0
0.00897349 0 0
0.0106144 0 0
0.0124188 0 0
0.0144047 0 0
0.0165896 0 0
0.0189919 0 0
0.0216304 0 0
0.0245261 0 0
0.0277025 0 0
0.0311871 0 0
0.0350133 0 0
0.0392221 0 0
0.0438649 0 0
0.0490068 0 0
0.0547306 0 0
0.0611419 0 0
0.068376 0 0
0.0766073 0 0
0.0860601 0 0
0.0970252 0 0
0.109881 0 0
0.125126 0 0
0.143416 0 0
0.165625 0 0
0.192928 0 0
0.226904 0 0
0.269686 0 0
0.324121 0 0
0.393922 0 0
0.483649 0 0
0.598166 0 0
0.740843 0 0
0.909507 0 0
0.000516574 0 0
0.00155976 0 0
0.00263424 0 0
0.00376122 0 0
0.00496174 0 0
0.00625655 0 0
0.00766606 0 0
0.00921027 0 0
0.0109087 0 0
0.0127806 0 0
0.0148447 0 0
0.0171199 0 0
0.0196252 0 0
0.0223807 0 0
0.0254078 0 0
0.0287308 0 0
0.032378 0 0
0.0363835 0 0
0.0407891 0 0
0.0456474 0 0
0.0510251 0 0
0.0570069 0 0
0.0637014 0 0
0.071248 0 0
0.0798236 0 0
0.0896588 0 0
0.101051 0 0
0.114385 0 0
0.130168 0 0
0.149062 0 0
0.171947 0 0
0.199996 0 0
0.234777 0 0
0.278385 0 0
0.333586 0 0
0.403932 0 0
0.493699 0 0
0.607311 0 0
0.747596 0 0
0.912095 0 0
0.000524514 0 0
0.00158414 0 0
0.00267677 0 0
0.00382474 0 0
0.00505025 0 0
0.00637522 0 0
0.00782126 0 0
0.00940962 0 0
0.0111611 0 0
0.0130961 0 0
0.0152346 0 0
0.0175967 0 0
0.0202025 0 0
0.0230728 0 0
0.02623 0 0
0.0296992 0 0
0.0335092 0 0
0.0376946 0 0
0.0422981 0 0
0.0473733 0 0
0.0529879 0 0
0.0592285 0 0
0.0662062 0 0
0.0740636 0 0
0.0829805 0 0
0.0931924 0 0
0.105003 0 0
0.118803 0 0
0.135106 0 0
0.154581 0 0
0.178112 0 0
0.206867 0 0
0.242401 0 0
0.286768 0 0
0.342653 0 0
0.413454 0 0
0.503182 0 0
0.61586 0 0
0.753849 0 0
0.914473 0 0
0.000529644 0 0
0.00160008 0 0
0.0027052 0 0
0.00386846 0 0
0.0051132 0 0
0.00646255 0 0
0.00793938 0 0
0.0095662 0 0
0.0113652 0 0
0.0133581 0 0
0.0155664 0 0
0.0180112 0 0
0.0207139 0 0
0.0236966 0 0
0.0269824 0 0
0.030597 0 0
0.03457 0 0
0.0389365 0 0
0.0437396 0 0
0.0490336 0 0
0.0548871 0 0
0.0613881 0 0
0.0686493 0 0
0.0768152 0 0
0.0860704 0 0
0.0966539 0 0
0.108874 0 0
0.123129 0 0
0.139937 0 0
0.159971 0 0
0.184117 0 0
0.213541 0 0
0.249779 0 0
0.294845 0 0
0.351343 0 0
0.422522 0 0
0.512144 0 0
0.623871 0 0
0.759658 0 0
0.916666 0 0
0.000531676 0 0
0.00160671 0 0
0.00271804 0 0
0.00389021 0 0
0.00514769 0 0
0.00651481 0 0
0.00801573 0 0
0.00967435 0 0
0.0115143 0 0
0.0135588 0 0
0.0158309 0 0
0.0183532 0 0
0.0211485 0 0
0.02424 0 0
0.027652 0 0
0.0314111 0 0
0.0355472 0 0
0.0400961 0 0
0.0451013 0 0
0.050617 0 0
0.0567126 0 0
0.0634766 0 0
0.0710231 0 0
0.0794984 0 0
0.0890905 0 0
0.100042 0 0
0.112666 0 0
0.127365 0 0
0.144661 0 0
0.165234 0 0
0.18997 0 0
0.220027 0 0
0.256924 0 0
0.302634 0 0
0.35968 0 0
0.431169 0 0
0.52063 0 0
0.631397 0 0
0.765071 0 0
0.918696 0 0
0.000530312 0 0
0.00160311 0 0
0.00271371 0 0
0.00388769 0 0
0.00515059 0 0
0.00652795 0 0
0.00804522 0 0
0.00972776 0 0
0.0116008 0 0
0.0136892 0 0
0.0160177 0 0
0.0186107 0 0
0.0214927 0 0
0.0246883 0 0
0.0282232 0 0
0.0321248 0 0
0.036424 0 0
0.0411566 0 0
0.0463665 0 0
0.0521079 0 0
0.0584501 0 0
0.0654819 0 0
0.0733178 0 0
0.0821055 0 0
0.0920355 0 0
0.103353 0 0
0.116375 0 0
0.13151 0 0
0.149283 0 0
0.170376 0 0
0.195676 0 0
0.226335 0 0
0.26385 0 0
0.310153 0 0
0.367689 0 0
0.439427 0 0
0.528681 0 0
0.638485 0 0
0.770133 0 0
0.920583 0 0
0.000525256 0 0
0.00158839 0 0
0.00269066 0 0
0.00385858 0 0
0.0051187 0 0
0.00649772 0 0
0.00802239 0 0
0.0097196 0 0
0.0116162 0 0
0.013739 0 0
0.0161147 0 0
0.0187697 0 0
0.0217305 0 0
0.0250236 0 0
0.0286762 0 0
0.0327172 0 0
0.0371782 0 0
0.0420957 0 0
0.0475133 0 0
0.0534852 0 0
0.0600801 0 0
0.0673865 0 0
0.0755186 0 0
0.0846246 0 0
0.0948964 0 0
0.106582 0 0
0.12 0 0
0.135564 0 0
0.153802 0 0
0.175399 0 0
0.201241 0 0
0.23247 0 0
0.270566 0 0
0.317416 0 0
0.37539 0 0
0.447324 0 0
0.536332 0 0
0.645175 0 0
0.774878 0 0
0.922343 0 0
0.000516225 0 0
0.00156166 0 0
0.00264735 0 0
0.00380058 0 0
0.00504882 0 0
0.0064198 0 0
0.0079416 0 0
0.0096426 0 0
0.0115515 0 0
0.0136971 0 0
0.0161082 0 0
0.0188139 0 0
0.0218429 0 0
0.0252242 0 0
0.028987 0 0
0.033162 0 0
0.0377821 0 0
0.0428844 0 0
0.0485126 0 0
0.0547205 0 0
0.0615758 0 0
0.0691659 0 0
0.0776041 0 0
0.0870378 0 0
0.0976589 0 0
0.109716 0 0
0.123533 0 0
0.139522 0 0
0.158217 0 0
0.180305 0 0
0.206668 0 0
0.238441 0 0
0.277082 0 0
0.324438 0 0
0.382802 0 0
0.454886 0 0
0.543614 0 0
0.651503 0 0
0.779339 0 0
0.92399 0 0
0.000502968 0 0
0.00152215 0 0
0.00258239 0 0
0.00371157 0 0
0.00493789 0 0
0.00629001 0 0
0.0077972 0 0
0.00948937 0 0
0.011397 0 0
0.0135512 0 0
0.0159833 0 0
0.0187251 0 0
0.0218082 0 0
0.0252646 0 0
0.0291264 0 0
0.0334266 0 0
0.0382 0 0
0.0434849 0 0
0.0493254 0 0
0.0557746 0 0
0.0628992 0 0
0.0707848 0 0
0.0795424 0 0
0.0893176 0 0
0.1003 0 0
0.11274 0 0
0.12696 0 0
0.143376 0 0
0.162525 0 0
0.185092 0 0
0.21196 0 0
0.244253 0 0
0.283408 0 0
0.331232 0 0
0.389942 0 0
0.462135 0 0
0.550557 0 0
0.6575 0 0
0.783542 0 0
0.925534 0 0
0.000485284 0 0
0.00146924 0 0
0.00249465 0 0
0.00358975 0 0
0.00478323 0 0
0.0061045 0 0
0.00758387 0 0
0.00925267 0 0
0.0111432 0 0
0.0132889 0 0
0.0157239 0 0
0.018483 0 0
0.0216016 0 0
0.0251151 0 0
0.0290594 0 0
0.0334709 0 0
0.0383873 0 0
0.0438487 0 0
0.0499002 0 0
0.0565947 0 0
0.0639976 0 0
0.0721921 0 0
0.0812863 0 0
0.0914219 0 0
0.102785 0 0
0.115624 0 0
0.13026 0 0
0.147111 0 0
0.166714 0 0
0.189756 0 0
0.217115 0 0
0.249908 0 0
0.28955 0 0
0.337807 0 0
0.396827 0 0
0.469093 0 0
0.557186 0 0
0.663193 0 0
0.787511 0 0
0.926988 0 0
0.000463044 0 0
0.00140249 0 0
0.00238332 0 0
0.00343378 0 0
0.00458276 0 0
0.00586014 0 0
0.00729701 0 0
0.00892593 0 0
0.010781 0 0
0.0128978 0 0
0.0153135 0 0
0.0180664 0 0
0.0211959 0 0
0.024742 0 0
0.0287453 0 0
0.0332469 0 0
0.0382884 0 0
0.0439135 0 0
0.0501693 0 0
0.0571091 0 0
0.0647973 0 0
0.0733146 0 0
0.0827653 0 0
0.093286 0 0
0.105056 0 0
0.118318 0 0
0.133392 0 0
0.150695 0 0
0.170762 0 0
0.194281 0 0
0.222125 0 0
0.255404 0 0
0.295511 0 0
0.344173 0 0
0.40347 0 0
0.475776 0 0
0.563522 0 0
0.668606 0 0
0.791265 0 0
0.928356 0 0
0.000436233 0 0
0.00132184 0 0
0.00224818 0 0
0.00324314 0 0
0.00433542 0 0
0.00555499 0 0
0.0069334 0 0
0.00850409 0 0
0.0103026 0 0
0.0123668 0 0
0.0147366 0 0
0.0174541 0 0
0.0205631 0 0
0.0241091 0 0
0.0281385 0 0
0.0326984 0 0
0.0378366 0 0
0.043602 0 0
0.0500456 0 0
0.0572228 0 0
0.0651973 0 0
0.0740462 0 0
0.0838668 0 0
0.0947816 0 0
0.10699 0 0
0.120712 0 0
0.13626 0 0
0.154044 0 0
0.174596 0 0
0.198601 0 0
0.226931 0 0
0.260687 0 0
0.301242 0 0
0.350286 0 0
0.409834 0 0
0.482159 0 0
0.569547 0 0
0.673726 0 0
0.794793 0 0
0.929628 0 0
0.000404939 0 0
0.00122753 0 0
0.00208954 0 0
0.00301807 0 0
0.00404118 0 0
0.00518846 0 0
0.00649142 0 0
0.00798394 0 0
0.0097026 0 0
0.0116869 0 0
0.0139796 0 0
0.0166262 0 0
0.0196755 0 0
0.0231786 0 0
0.0271891 0 0
0.0317618 0 0
0.0369528 0 0
0.042819 0 0
0.0494183 0 0
0.0568111 0 0
0.0650626 0 0
0.0742477 0 0
0.0844567 0 0
0.0958036 0 0
0.108493 0 0
0.122728 0 0
0.138803 0 0
0.157115 0 0
0.17819 0 0
0.202707 0 0
0.231534 0 0
0.265763 0 0
0.306753 0 0
0.356158 0 0
0.415934 0 0
0.488258 0 0
0.575282 0 0
0.678579 0 0
0.798121 0 0
0.93082 0 0
0.000369385 0 0
0.00112021 0 0
0.00190843 0 0
0.00275986 0 0
0.00370141 0 0
0.00476173 0 0
0.00597168 0 0
0.00736495 0 0
0.00897844 0 0
0.0108528 0 0
0.0130326 0 0
0.0155667 0 0
0.0185083 0 0
0.0219146 0 0
0.0258468 0 0
0.0303691 0 0
0.0355481 0 0
0.0414522 0 0
0.0481504 0 0
0.0557132 0 0
0.0642131 0 0
0.0737283 0 0
0.0843492 0 0
0.0961911 0 0
0.109424 0 0
0.124246 0 0
0.140931 0 0
0.159854 0 0
0.181524 0 0
0.206608 0 0
0.235965 0 0
0.270682 0 0
0.312102 0 0
0.361851 0 0
0.421831 0 0
0.494132 0 0
0.580782 0 0
0.683211 0 0
0.801284 0 0
0.931953 0 0
0.000329976 0 0
0.00100109 0 0
0.00170683 0 0
0.00247121 0 0
0.00331943 0 0
0.00427856 0 0
0.00537812 0 0
0.00665074 0 0
0.00813278 0 0
0.00986492 0 0
0.0118927 0 0
0.0142672 0 0
0.017045 0 0
0.020289 0 0
0.0240677 0 0
0.0284553 0 0
0.033531 0 0
0.0393777 0 0
0.0460809 0 0
0.0537278 0 0
0.0624068 0 0
0.0722088 0 0
0.0832322 0 0
0.0955919 0 0
0.109435 0 0
0.124942 0 0
0.142358 0 0
0.162026 0 0
0.184421 0 0
0.210182 0 0
0.240152 0 0
0.275405 0 0
0.317274 0 0
0.367364 0 0
0.427534 0 0
0.499794 0 0
0.586064 0 0
0.687647 0 0
0.804313 0 0
0.933045 0 0
0.000287296 0 0
0.000871915 0 0
0.00148768 0 0
0.00215626 0 0
0.00290058 0 0
0.00374545 0 0
0.00471825 0 0
0.00584962 0 0
0.00717424 0 0
0.00873152 0 0
0.0105665 0 0
0.0127305 0 0
0.0152822 0 0
0.0182879 0 0
0.0218223 0 0
0.0259689 0 0
0.0308192 0 0
0.036473 0 0
0.0430361 0 0
0.0506199 0 0
0.0593386 0 0
0.069309 0 0
0.0806508 0 0
0.0934908 0 0
0.10797 0 0
0.124254 0 0
0.142553 0 0
0.163164 0 0
0.186503 0 0
0.213154 0 0
0.243915 0 0
0.279831 0 0
0.322223 0 0
0.372683 0 0
0.433041 0 0
0.50525 0 0
0.591129 0 0
0.691863 0 0
0.807141 0 0
0.934033 0 0
0.000242115 0 0
0.000735027 0 0
0.00125494 0 0
0.00182071 0 0
0.00245241 0 0
0.00317193 0 0
0.00400369 0 0
0.00497534 0 0
0.00611857 0 0
0.00747 0 0
0.00907217 0 0
0.0109746 0 0
0.0132349 0 0
0.0159202 0 0
0.019108 0 0
0.0228876 0 0
0.0273606 0 0
0.0326418 0 0
0.0388586 0 0
0.0461502 0 0
0.0546659 0 0
0.0645626 0 0
0.0760017 0 0
0.0891477 0 0
0.104167 0 0
0.121233 0 0
0.140539 0 0
0.16233 0 0
0.186942 0 0
0.214862 0 0
0.246785 0 0
0.283675 0 0
0.326804 0 0
0.377751 0 0
0.438344 0 0
0.510517 0 0
0.596036 0 0
0.696016 0 0
0.810081 0 0
0.935189 0 0
0.00019539 0 0
0.000593334 0 0
0.00101358 0 0
0.00147179 0 0
0.00198468 0 0
0.00257063 0 0
0.00325033 0 0
0.00404744 0 0
0.0049894 0 0
0.00610837 0 0
0.00744225 0 0
0.00903595 0 0
0.0109428 0 0
0.0132262 0 0
0.0159616 0 0
0.0192379 0 0
0.0231606 0 0
0.0278526 0 0
0.033457 0 0
0.0401376 0 0
0.0480796 0 0
0.0574879 0 0
0.0685846 0 0
0.0816036 0 0
0.0967839 0 0
0.114363 0 0
0.134576 0 0
0.157665 0 0
0.183907 0 0
0.213661 0 0
0.247445 0 0
0.286023 0 0
0.330493 0 0