# vtk DataFile Version 2.0
Velocidades
ASCII

DATASET STRUCTURED_GRID
DIMENSIONS   40   40   10

POINTS   16000   double
0.0125   0.0125   0.05
0.0125   0.0375   0.05
0.0125   0.0625   0.05
0.0125   0.0875   0.05
0.0125   0.1125   0.05
0.0125   0.1375   0.05
0.0125   0.1625   0.05
0.0125   0.1875   0.05
0.0125   0.2125   0.05
0.0125   0.2375   0.05
0.0125   0.2625   0.05
0.0125   0.2875   0.05
0.0125   0.3125   0.05
0.0125   0.3375   0.05
0.0125   0.3625   0.05
0.0125   0.3875   0.05
0.0125   0.4125   0.05
0.0125   0.4375   0.05
0.0125   0.4625   0.05
0.0125   0.4875   0.05
0.0125   0.5125   0.05
0.0125   0.5375   0.05
0.0125   0.5625   0.05
0.0125   0.5875   0.05
0.0125   0.6125   0.05
0.0125   0.6375   0.05
0.0125   0.6625   0.05
0.0125   0.6875   0.05
0.0125   0.7125   0.05
0.0125   0.7375   0.05
0.0125   0.7625   0.05
0.0125   0.7875   0.05
0.0125   0.8125   0.05
0.0125   0.8375   0.05
0.0125   0.8625   0.05
0.0125   0.8875   0.05
0.0125   0.9125   0.05
0.0125   0.9375   0.05
0.0125   0.9625   0.05
0.0125   0.9875   0.05
0.0375   0.0125   0.05
0.0375   0.0375   0.05
0.0375   0.0625   0.05
0.0375   0.0875   0.05
0.0375   0.1125   0.05
0.0375   0.1375   0.05
0.0375   0.1625   0.05
0.0375   0.1875   0.05
0.0375   0.2125   0.05
0.0375   0.2375   0.05
0.0375   0.2625   0.05
0.0375   0.2875   0.05
0.0375   0.3125   0.05
0.0375   0.3375   0.05
0.0375   0.3625   0.05
0.0375   0.3875   0.05
0.0375   0.4125   0.05
0.0375   0.4375   0.05
0.0375   0.4625   0.05
0.0375   0.4875   0.05
0.0375   0.5125   0.05
0.0375   0.5375   0.05
0.0375   0.5625   0.05
0.0375   0.5875   0.05
0.0375   0.6125   0.05
0.0375   0.6375   0.05
0.0375   0.6625   0.05
0.0375   0.6875   0.05
0.0375   0.7125   0.05
0.0375   0.7375   0.05
0.0375   0.7625   0.05
0.0375   0.7875   0.05
0.0375   0.8125   0.05
0.0375   0.8375   0.05
0.0375   0.8625   0.05
0.0375   0.8875   0.05
0.0375   0.9125   0.05
0.0375   0.9375   0.05
0.0375   0.9625   0.05
0.0375   0.9875   0.05
0.0625   0.0125   0.05
0.0625   0.0375   0.05
0.0625   0.0625   0.05
0.0625   0.0875   0.05
0.0625   0.1125   0.05
0.0625   0.1375   0.05
0.0625   0.1625   0.05
0.0625   0.1875   0.05
0.0625   0.2125   0.05
0.0625   0.2375   0.05
0.0625   0.2625   0.05
0.0625   0.2875   0.05
0.0625   0.3125   0.05
0.0625   0.3375   0.05
0.0625   0.3625   0.05
0.0625   0.3875   0.05
0.0625   0.4125   0.05
0.0625   0.4375   0.05
0.0625   0.4625   0.05
0.0625   0.4875   0.05
0.0625   0.5125   0.05
0.0625   0.5375   0.05
0.0625   0.5625   0.05
0.0625   0.5875   0.05
0.0625   0.6125   0.05
0.0625   0.6375   0.05
0.0625   0.6625   0.05
0.0625   0.6875   0.05
0.0625   0.7125   0.05
0.0625   0.7375   0.05
0.0625   0.7625   0.05
0.0625   0.7875   0.05
0.0625   0.8125   0.05
0.0625   0.8375   0.05
0.0625   0.8625   0.05
0.0625   0.8875   0.05
0.0625   0.9125   0.05
0.0625   0.9375   0.05
0.0625   0.9625   0.05
0.0625   0.9875   0.05
0.0875   0.0125   0.05
0.0875   0.0375   0.05
0.0875   0.0625   0.05
0.0875   0.0875   0.05
0.0875   0.1125   0.05
0.0875   0.1375   0.05
0.0875   0.1625   0.05
0.0875   0.1875   0.05
0.0875   0.2125   0.05
0.0875   0.2375   0.05
0.0875   0.2625   0.05
0.0875   0.2875   0.05
0.0875   0.3125   0.05
0.0875   0.3375   0.05
0.0875   0.3625   0.05
0.0875   0.3875   0.05
0.0875   0.4125   0.05
0.0875   0.4375   0.05
0.0875   0.4625   0.05
0.0875   0.4875   0.05
0.0875   0.5125   0.05
0.0875   0.5375   0.05
0.0875   0.5625   0.05
0.0875   0.5875   0.05
0.0875   0.6125   0.05
0.0875   0.6375   0.05
0.0875   0.6625   0.05
0.0875   0.6875   0.05
0.0875   0.7125   0.05
0.0875   0.7375   0.05
0.0875   0.7625   0.05
0.0875   0.7875   0.05
0.0875   0.8125   0.05
0.0875   0.8375   0.05
0.0875   0.8625   0.05
0.0875   0.8875   0.05
0.0875   0.9125   0.05
0.0875   0.9375   0.05
0.0875   0.9625   0.05
0.0875   0.9875   0.05
0.1125   0.0125   0.05
0.1125   0.0375   0.05
0.1125   0.0625   0.05
0.1125   0.0875   0.05
0.1125   0.1125   0.05
0.1125   0.1375   0.05
0.1125   0.1625   0.05
0.1125   0.1875   0.05
0.1125   0.2125   0.05
0.1125   0.2375   0.05
0.1125   0.2625   0.05
0.1125   0.2875   0.05
0.1125   0.3125   0.05
0.1125   0.3375   0.05
0.1125   0.3625   0.05
0.1125   0.3875   0.05
0.1125   0.4125   0.05
0.1125   0.4375   0.05
0.1125   0.4625   0.05
0.1125   0.4875   0.05
0.1125   0.5125   0.05
0.1125   0.5375   0.05
0.1125   0.5625   0.05
0.1125   0.5875   0.05
0.1125   0.6125   0.05
0.1125   0.6375   0.05
0.1125   0.6625   0.05
0.1125   0.6875   0.05
0.1125   0.7125   0.05
0.1125   0.7375   0.05
0.1125   0.7625   0.05
0.1125   0.7875   0.05
0.1125   0.8125   0.05
0.1125   0.8375   0.05
0.1125   0.8625   0.05
0.1125   0.8875   0.05
0.1125   0.9125   0.05
0.1125   0.9375   0.05
0.1125   0.9625   0.05
0.1125   0.9875   0.05
0.1375   0.0125   0.05
0.1375   0.0375   0.05
0.1375   0.0625   0.05
0.1375   0.0875   0.05
0.1375   0.1125   0.05
0.1375   0.1375   0.05
0.1375   0.1625   0.05
0.1375   0.1875   0.05
0.1375   0.2125   0.05
0.1375   0.2375   0.05
0.1375   0.2625   0.05
0.1375   0.2875   0.05
0.1375   0.3125   0.05
0.1375   0.3375   0.05
0.1375   0.3625   0.05
0.1375   0.3875   0.05
0.1375   0.4125   0.05
0.1375   0.4375   0.05
0.1375   0.4625   0.05
0.1375   0.4875   0.05
0.1375   0.5125   0.05
0.1375   0.5375   0.05
0.1375   0.5625   0.05
0.1375   0.5875   0.05
0.1375   0.6125   0.05
0.1375   0.6375   0.05
0.1375   0.6625   0.05
0.1375   0.6875   0.05
0.1375   0.7125   0.05
0.1375   0.7375   0.05
0.1375   0.7625   0.05
0.1375   0.7875   0.05
0.1375   0.8125   0.05
0.1375   0.8375   0.05
0.1375   0.8625   0.05
0.1375   0.8875   0.05
0.1375   0.9125   0.05
0.1375   0.9375   0.05
0.1375   0.9625   0.05
0.1375   0.9875   0.05
0.1625   0.0125   0.05
0.1625   0.0375   0.05
0.1625   0.0625   0.05
0.1625   0.0875   0.05
0.1625   0.1125   0.05
0.1625   0.1375   0.05
0.1625   0.1625   0.05
0.1625   0.1875   0.05
0.1625   0.2125   0.05
0.1625   0.2375   0.05
0.1625   0.2625   0.05
0.1625   0.2875   0.05
0.1625   0.3125   0.05
0.1625   0.3375   0.05
0.1625   0.3625   0.05
0.1625   0.3875   0.05
0.1625   0.4125   0.05
0.1625   0.4375   0.05
0.1625   0.4625   0.05
0.1625   0.4875   0.05
0.1625   0.5125   0.05
0.1625   0.5375   0.05
0.1625   0.5625   0.05
0.1625   0.5875   0.05
0.1625   0.6125   0.05
0.1625   0.6375   0.05
0.1625   0.6625   0.05
0.1625   0.6875   0.05
0.1625   0.7125   0.05
0.1625   0.7375   0.05
0.1625   0.7625   0.05
0.1625   0.7875   0.05
0.1625   0.8125   0.05
0.1625   0.8375   0.05
0.1625   0.8625   0.05
0.1625   0.8875   0.05
0.1625   0.9125   0.05
0.1625   0.9375   0.05
0.1625   0.9625   0.05
0.1625   0.9875   0.05
0.1875   0.0125   0.05
0.1875   0.0375   0.05
0.1875   0.0625   0.05
0.1875   0.0875   0.05
0.1875   0.1125   0.05
0.1875   0.1375   0.05
0.1875   0.1625   0.05
0.1875   0.1875   0.05
0.1875   0.2125   0.05
0.1875   0.2375   0.05
0.1875   0.2625   0.05
0.1875   0.2875   0.05
0.1875   0.3125   0.05
0.1875   0.3375   0.05
0.1875   0.3625   0.05
0.1875   0.3875   0.05
0.1875   0.4125   0.05
0.1875   0.4375   0.05
0.1875   0.4625   0.05
0.1875   0.4875   0.05
0.1875   0.5125   0.05
0.1875   0.5375   0.05
0.1875   0.5625   0.05
0.1875   0.5875   0.05
0.1875   0.6125   0.05
0.1875   0.6375   0.05
0.1875   0.6625   0.05
0.1875   0.6875   0.05
0.1875   0.7125   0.05
0.1875   0.7375   0.05
0.1875   0.7625   0.05
0.1875   0.7875   0.05
0.1875   0.8125   0.05
0.1875   0.8375   0.05
0.1875   0.8625   0.05
0.1875   0.8875   0.05
0.1875   0.9125   0.05
0.1875   0.9375   0.05
0.1875   0.9625   0.05
0.1875   0.9875   0.05
0.2125   0.0125   0.05
0.2125   0.0375   0.05
0.2125   0.0625   0.05
0.2125   0.0875   0.05
0.2125   0.1125   0.05
0.2125   0.1375   0.05
0.2125   0.1625   0.05
0.2125   0.1875   0.05
0.2125   0.2125   0.05
0.2125   0.2375   0.05
0.2125   0.2625   0.05
0.2125   0.2875   0.05
0.2125   0.3125   0.05
0.2125   0.3375   0.05
0.2125   0.3625   0.05
0.2125   0.3875   0.05
0.2125   0.4125   0.05
0.2125   0.4375   0.05
0.2125   0.4625   0.05
0.2125   0.4875   0.05
0.2125   0.5125   0.05
0.2125   0.5375   0.05
0.2125   0.5625   0.05
0.2125   0.5875   0.05
0.2125   0.6125   0.05
0.2125   0.6375   0.05
0.2125   0.6625   0.05
0.2125   0.6875   0.05
0.2125   0.7125   0.05
0.2125   0.7375   0.05
0.2125   0.7625   0.05
0.2125   0.7875   0.05
0.2125   0.8125   0.05
0.2125   0.8375   0.05
0.2125   0.8625   0.05
0.2125   0.8875   0.05
0.2125   0.9125   0.05
0.2125   0.9375   0.05
0.2125   0.9625   0.05
0.2125   0.9875   0.05
0.2375   0.0125   0.05
0.2375   0.0375   0.05
0.2375   0.0625   0.05
0.2375   0.0875   0.05
0.2375   0.1125   0.05
0.2375   0.1375   0.05
0.2375   0.1625   0.05
0.2375   0.1875   0.05
0.2375   0.2125   0.05
0.2375   0.2375   0.05
0.2375   0.2625   0.05
0.2375   0.2875   0.05
0.2375   0.3125   0.05
0.2375   0.3375   0.05
0.2375   0.3625   0.05
0.2375   0.3875   0.05
0.2375   0.4125   0.05
0.2375   0.4375   0.05
0.2375   0.4625   0.05
0.2375   0.4875   0.05
0.2375   0.5125   0.05
0.2375   0.5375   0.05
0.2375   0.5625   0.05
0.2375   0.5875   0.05
0.2375   0.6125   0.05
0.2375   0.6375   0.05
0.2375   0.6625   0.05
0.2375   0.6875   0.05
0.2375   0.7125   0.05
0.2375   0.7375   0.05
0.2375   0.7625   0.05
0.2375   0.7875   0.05
0.2375   0.8125   0.05
0.2375   0.8375   0.05
0.2375   0.8625   0.05
0.2375   0.8875   0.05
0.2375   0.9125   0.05
0.2375   0.9375   0.05
0.2375   0.9625   0.05
0.2375   0.9875   0.05
0.2625   0.0125   0.05
0.2625   0.0375   0.05
0.2625   0.0625   0.05
0.2625   0.0875   0.05
0.2625   0.1125   0.05
0.2625   0.1375   0.05
0.2625   0.1625   0.05
0.2625   0.1875   0.05
0.2625   0.2125   0.05
0.2625   0.2375   0.05
0.2625   0.2625   0.05
0.2625   0.2875   0.05
0.2625   0.3125   0.05
0.2625   0.3375   0.05
0.2625   0.3625   0.05
0.2625   0.3875   0.05
0.2625   0.4125   0.05
0.2625   0.4375   0.05
0.2625   0.4625   0.05
0.2625   0.4875   0.05
0.2625   0.5125   0.05
0.2625   0.5375   0.05
0.2625   0.5625   0.05
0.2625   0.5875   0.05
0.2625   0.6125   0.05
0.2625   0.6375   0.05
0.2625   0.6625   0.05
0.2625   0.6875   0.05
0.2625   0.7125   0.05
[...]
POINT_DATA   16000
VECTORS Velocidades double

0 0.321004 0
0 0.733425 0
0 0.857686 0
0 0.905517 0
0 0.928769 0
0 0.942208 0
0 0.950893 0
0 0.956915 0
0 0.961287 0
0 0.964559 0
0 0.967056 0
0 0.968985 0
0 0.970481 0
0 0.971635 0
0 0.972512 0
0 0.973157 0
0 0.973601 0
0 0.973867 0
0 0.973969 0
0 0.973915 0
0 0.973708 0
0 0.973346 0
0 0.972822 0
0 0.972121 0
0 0.971226 0
0 0.970109 0
0 0.96873 0
0 0.967039 0
0 0.964963 0
0 0.962398 0
0 0.959197 0
0 0.955138 0
0 0.949873 0
0 0.942818 0
0 0.932911 0
0 0.917971 0
0 0.892758 0
0 0.842249 0
0 0.715236 0
0 0.311311 0
0 0.187051 0
0 0.480992 0
0 0.646789 0
0 0.739922 0
0 0.795486 0
0 0.831004 0
0 0.855107 0
0 0.872243 0
0 0.884857 0
0 0.894377 0
0 0.901687 0
0 0.907354 0
0 0.91176 0
0 0.915168 0
0 0.91776 0
0 0.919668 0
0 0.920984 0
0 0.921771 0
0 0.922072 0
0 0.921911 0
0 0.921296 0
0 0.920221 0
0 0.918664 0
0 0.916588 0
0 0.913936 0
0 0.910629 0
0 0.906557 0
0 0.901569 0
0 0.895459 0
0 0.887938 0
0 0.878593 0
0 0.866817 0
0 0.851688 0
0 0.83173 0
0 0.804463 0
0 0.765459 0
0 0.706338 0
0 0.610657 0
0 0.447158 0
0 0.171686 0
0 0.126907 0
0 0.347054 0
0 0.503477 0
0 0.609092 0
0 0.680602 0
0 0.730199 0
0 0.765627 0
0 0.79165 0
0 0.811216 0
0 0.826196 0
0 0.837811 0
0 0.846881 0
0 0.853968 0
0 0.85947 0
0 0.863667 0
0 0.866761 0
0 0.868898 0
0 0.870176 0
0 0.870663 0
0 0.870397 0
0 0.869391 0
0 0.867635 0
0 0.865096 0
0 0.861715 0
0 0.857405 0
0 0.85204 0
0 0.845452 0
0 0.837412 0
0 0.827608 0
0 0.815613 0
0 0.80083 0
0 0.78241 0
0 0.759117 0
0 0.729101 0
0 0.689522 0
0 0.63595 0
0 0.561489 0
0 0.455977 0
0 0.307144 0
0 0.110162 0
0 0.094992 0
0 0.267958 0
0 0.405381 0
0 0.508863 0
0 0.585397 0
0 0.642098 0
0 0.684572 0
0 0.71684 0
0 0.741691 0
0 0.761049 0
0 0.776248 0
0 0.788226 0
0 0.797651 0
0 0.805005 0
0 0.810636 0
0 0.814798 0
0 0.817676 0
0 0.819398 0
0 0.82005 0
0 0.819682 0
0 0.818312 0
0 0.815928 0
0 0.812486 0
0 0.807913 0
0 0.802095 0
0 0.794877 0
0 0.786048 0
0 0.775326 0
0 0.762333 0
0 0.746565 0
0 0.72734 0
0 0.703723 0
0 0.674429 0
0 0.637662 0
0 0.590931 0
0 0.530834 0
0 0.452989 0
0 0.352556 0
0 0.226399 0
0 0.0783533 0
0 0.0756182 0
0 0.21677 0
0 0.335903 0
0 0.431946 0
0 0.507542 0
0 0.566517 0
0 0.612535 0
0 0.64861 0
0 0.677065 0
0 0.699635 0
0 0.717601 0
0 0.73191 0
0 0.74326 0
0 0.752168 0
0 0.75902 0
0 0.764101 0
0 0.76762 0
0 0.769726 0
0 0.770517 0
0 0.770052 0
0 0.768354 0
0 0.765407 0
0 0.761165 0
0 0.755542 0
0 0.748411 0
0 0.739597 0
0 0.728867 0
0 0.715913 0
0 0.700333 0
0 0.681604 0
0 0.659044 0
0 0.631761 0
0 0.598596 0
0 0.558054 0
0 0.508261 0
0 0.44699 0
0 0.371918 0
0 0.281337 0
0 0.175652 0
0 0.0596392 0
0 0.0626179 0
0 0.181108 0
0 0.284701 0
0 0.37199 0
0 0.443801 0
0 0.502099 0
0 0.549149 0
0 0.587067 0
0 0.617646 0
0 0.642333 0
0 0.662259 0
0 0.678303 0
0 0.691137 0
0 0.701277 0
0 0.709115 0
0 0.714947 0
0 0.718994 0
0 0.721414 0
0 0.722314 0
0 0.721759 0
0 0.719774 0
0 0.716344 0
0 0.711419 0
0 0.70491 0
0 0.696686 0
0 0.686564 0
0 0.674306 0
0 0.659605 0
0 0.642068 0
0 0.621201 0
0 0.596382 0
0 0.566839 0
0 0.531627 0
0 0.489627 0
0 0.439581 0
0 0.38022 0
0 0.310562 0
0 0.230459 0
0 0.14143 0
0 0.0475036 0
0 0.0532357 0
0 0.154787 0
0 0.245533 0
0 0.324288 0
0 0.39117 0
0 0.447146 0
0 0.493575 0
0 0.531885 0
0 0.5634 0
0 0.58926 0
0 0.610413 0
0 0.627629 0
0 0.641519 0
0 0.652567 0
0 0.661151 0
0 0.66756 0
0 0.672016 0
0 0.674678 0
0 0.675657 0
0 0.67502 0
0 0.672793 0
0 0.668964 0
0 0.663483 0
0 0.656263 0
0 0.647175 0
0 0.636041 0
0 0.622635 0
0 0.606668 0
0 0.587782 0
0 0.565539 0
0 0.539414 0
0 0.508786 0
0 0.472945 0
0 0.431126 0
0 0.382571 0
0 0.326678 0
0 0.263238 0
0 0.192787 0
0 0.117016 0
0 0.0390488 0
0 0.0460942 0
0 0.134471 0
0 0.21458 0
0 0.285534 0
0 0.3472 0
0 0.40003 0
0 0.444824 0
0 0.482523 0
0 0.514073 0
0 0.540346 0
0 0.562104 0
0 0.579993 0
0 0.594545 0
0 0.606197 0
0 0.615295 0
0 0.622112 0
0 0.62686 0
0 0.629693 0
0 0.630722 0
0 0.630011 0
0 0.62759 0
0 0.623447 0
0 0.617539 0
0 0.609783 0
0 0.600058 0
0 0.588202 0
0 0.574009 0
0 0.557222 0
0 0.537533 0
0 0.514577 0
0 0.487935 0
0 0.45714 0
0 0.421697 0
0 0.381129 0
0 0.335046 0
0 0.283266 0
0 0.225987 0
0 0.163984 0
0 0.0988067 0
0 0.0328354 0
0 0.040438 0
0 0.118234 0
0 0.189442 0
0 0.25343 0
0 0.310002 0
0 0.359348 0
0 0.40193 0
0 0.43836 0
0 0.469302 0
0 0.495403 0
0 0.517261 0
0 0.535401 0
0 0.550274 0
0 0.562255 0
0 0.571656 0
0 0.578725 0
0 0.583655 0
0 0.586593 0
0 0.587643 0
0 0.586869 0
0 0.5843 0
0 0.57993 0
0 0.573718 0
0 0.565593 0
0 0.555446 0
0 0.543136 0
0 0.528483 0
0 0.511272 0
0 0.491249 0
0 0.468124 0
0 0.441584 0
0 0.411298 0
0 0.376951 0
0 0.338282 0
0 0.295149 0
0 0.24762 0
0 0.196079 0
0 0.141342 0
0 0.0847328 0
0 0.0280798 0
0 0.0358203 0
0 0.104895 0
0 0.16856 0
0 0.226374 0
0 0.278149 0
0 0.323945 0
0 0.364026 0
0 0.398783 0
0 0.428675 0
0 0.454176 0
0 0.475742 0
0 0.493793 0
0 0.508698 0
0 0.520776 0
0 0.530294 0
0 0.537473 0
0 0.542487 0
0 0.54547 0
0 0.546518 0
0 0.545692 0
0 0.54302 0
0 0.538501 0
0 0.532102 0
0 0.523761 0
0 0.513388 0
0 0.500862 0
0 0.486036 0
0 0.468735 0
0 0.44876 0
0 0.425897 0
0 0.39992 0
0 0.370618 0
0 0.33781 0
0 0.301391 0
0 0.261378 0
0 0.217972 0
0 0.17163 0
0 0.123116 0
0 0.0735394 0
0 0.0243227 0
0 0.0319605 0
0 0.0936978 0
0 0.150887 0
0 0.20323 0
0 0.250566 0
0 0.292897 0
0 0.330367 0
0 0.363224 0
0 0.391781 0
0 0.416379 0
0 0.437363 0
0 0.455059 0
0 0.469765 0
0 0.481745 0
0 0.491225 0
0 0.498395 0
0 0.503407 0
0 0.506383 0
0 0.507408 0
0 0.506541 0
0 0.503809 0
0 0.499214 0
0 0.492731 0
0 0.484312 0
0 0.473881 0
0 0.461345 0
0 0.446585 0
0 0.429467 0
0 0.409844 0
0 0.387565 0
0 0.362483 0
0 0.334475 0
0 0.303464 0
0 0.269449 0
0 0.232542 0
0 0.19301 0
0 0.151316 0
0 0.108148 0
0 0.0644267 0
0 0.0212785 0
0 0.0286736 0
0 0.0841318 0
0 0.135699 0
0 0.183178 0
0 0.226443 0
0 0.265469 0
0 0.30033 0
0 0.331181 0
0 0.358232 0
0 0.381726 0
0 0.401919 0
0 0.419061 0
0 0.433389 0
0 0.445115 0
0 0.454429 0
0 0.46149 0
0 0.46643 0
0 0.469355 0
0 0.470343 0
0 0.469445 0
0 0.46669 0
0 0.462084 0
0 0.455609 0
0 0.447228 0
0 0.436886 0
0 0.424508 0
0 0.410009 0
0 0.393289 0
0 0.374248 0
0 0.352786 0
0 0.328821 0
0 0.302297 0
0 0.27321 0
0 0.241626 0
0 0.207711 0
0 0.171754 0
0 0.134198 0
0 0.0956454 0
0 0.0568641 0
0 0.0187609 0
0 0.0258324 0
0 0.0758436 0
0 0.122481 0
0 0.165618 0
0 0.205161 0
0 0.241076 0
0 0.273397 0
0 0.302216 0
0 0.327673 0
0 0.349939 0
0 0.3692 0
0 0.385646 0
0 0.39946 0
0 0.410814 0
0 0.41986 0
0 0.426733 0
0 0.431545 0
0 0.434385 0
0 0.435322 0
0 0.434405 0
0 0.431661 0
0 0.427098 0
0 0.420708 0
0 0.412465 0
0 0.402329 0
0 0.390247 0
0 0.37616 0
0 0.360001 0
0 0.341707 0
0 0.321223 0
0 0.298514 0
0 0.273575 0
0 0.246449 0
0 0.217246 0
0 0.186155 0
0 0.153468 0
0 0.119591 0
0 0.0850498 0
0 0.0504867 0
0 0.0166434 0
0 0.0233468 0
0 0.0685794 0
0 0.110855 0
0 0.150099 0
0 0.186244 0
0 0.219254 0
0 0.249141 0
0 0.275955 0
0 0.299789 0
0 0.320759 0
0 0.338999 0
0 0.354652 0
0 0.367857 0
0 0.37875 0
0 0.387454 0
0 0.394078 0
0 0.398715 0
0 0.401444 0
0 0.402324 0
0 0.401397 0
0 0.398692 0
0 0.39422 0
0 0.387978 0
0 0.379952 0
0 0.370116 0
0 0.358437 0
0 0.344877 0
0 0.329397 0
0 0.311965 0
0 0.292559 0
0 0.271182 0
0 0.247863 0
0 0.222678 0
0 0.195759 0
0 0.167303 0
0 0.137592 0
0 0.106992 0
0 0.0759595 0
0 0.0450362 0
0 0.0148373 0
0 0.0211506 0
0 0.0621524 0
0 0.100542 0
0 0.13628 0
0 0.16932 0
0 0.199631 0
0 0.227208 0
0 0.252079 0
0 0.274299 0
0 0.293948 0
0 0.31112 0
0 0.325919 0
0 0.338451 0
0 0.348822 0
0 0.357128 0
0 0.363458 0
0 0.36789 0
0 0.370488 0
0 0.371305 0
0 0.370379 0
0 0.367736 0
0 0.363392 0
0 0.357349 0
0 0.349602 0
0 0.340139 0
0 0.328941 0
0 0.31599 0
0 0.30127 0
0 0.284772 0
0 0.266501 0
0 0.246485 0
0 0.224778 0
0 0.201475 0
0 0.176719 0
0 0.150705 0
0 0.123697 0
0 0.0960228 0
0 0.0680785 0
0 0.040325 0
0 0.0132786 0
0 0.0191946 0
0 0.0564218 0
0 0.0913263 0
0 0.123895 0
0 0.154096 0
0 0.181904 0
0 0.207306 0
0 0.230313 0
0 0.250957 0
0 0.26929 0
0 0.285376 0
0 0.29929 0
0 0.311111 0
0 0.320919 0
0 0.328791 0
0 0.334797 0
0 0.339 0
0 0.341455 0
0 0.342207 0
0 0.34129 0
0 0.338729 0
0 0.334543 0
0 0.328738 0
0 0.321317 0
0 0.312279 0
0 0.301618 0
0 0.289332 0
0 0.275421 0
0 0.259896 0
0 0.242782 0
0 0.224123 0
0 0.203991 0
0 0.182489 0
0 0.159763 0
0 0.136002 0
0 0.111449 0
0 0.0863941 0
0 0.0611843 0
0 0.0362135 0
0 0.01192 0
0 0.0174407 0
0 0.0512789 0
0 0.0830419 0
0 0.112734 0
0 0.140337 0
0 0.165827 0
0 0.189189 0
0 0.210424 0
0 0.229548 0
0 0.246591 0
0 0.261596 0
0 0.274615 0
0 0.285707 0
0 0.294931 0
0 0.302346 0
0 0.308008 0
0 0.311969 0
0 0.314273 0
0 0.314959 0
0 0.314059 0
0 0.311596 0
0 0.30759 0
0 0.302051 0
0 0.294991 0
0 0.286413 0
0 0.276326 0
0 0.264738 0
0 0.251663 0
0 0.237126 0
0 0.221164 0
0 0.203835 0
0 0.185219 0
0 0.165425 0
0 0.144594 0
0 0.122907 0
0 0.100583 0
0 0.0778822 0
0 0.0551065 0
0 0.0325959 0
0 0.0107258 0
0 0.0158593 0
0 0.0466386 0
0 0.0755569 0
0 0.102631 0
0 0.12785 0
0 0.151196 0
0 0.172653 0
0 0.192213 0
0 0.209881 0
0 0.225675 0
0 0.23962 0
0 0.251751 0
0 0.262111 0
0 0.270743 0
0 0.277691 0
0 0.283 0
0 0.286711 0
0 0.288862 0
0 0.289484 0
0 0.288607 0
0 0.286253 0
0 0.282442 0
0 0.277191 0
0 0.270511 0
0 0.262418 0
0 0.252925 0
0 0.24205 0
0 0.229818 0
0 0.216263 0
0 0.201433 0
0 0.185391 0
0 0.168223 0
0 0.150036 0
0 0.130968 0
0 0.111187 0
0 0.0908904 0
0 0.070311 0
0 0.0497126 0
0 0.0293904 0
0 0.0096685 0
0 0.0144267 0
0 0.0424326 0
0 0.068765 0
0 0.0934482 0
0 0.116479 0
0 0.137842 0
0 0.157521 0
0 0.175505 0
0 0.19179 0
0 0.206384 0
0 0.219301 0
0 0.230564 0
0 0.240201 0
0 0.248243 0
0 0.254724 0
0 0.259678 0
0 0.263137 0
0 0.265134 0
0 0.265695 0
0 0.264846 0
0 0.26261 0
0 0.259006 0
0 0.254053 0
0 0.247768 0
0 0.24017 0
0 0.231278 0
0 0.221119 0
0 0.209724 0
0 0.197132 0
0 0.183399 0
0 0.168591 0
0 0.152794 0
0 0.136115 0
0 0.118683 0
0 0.100652 0
0 0.0822022 0
0 0.0635402 0
0 0.0448979 0
0 0.0265327 0
0 0.00872654 0
0 0.0131238 0
0 0.0386056 0
0 0.0625795 0
0 0.0850748 0
0 0.106093 0
0 0.125621 0
0 0.143645 0
0 0.160149 0
0 0.175127 0
0 0.188577 0
0 0.200506 0
0 0.210927 0
0 0.219858 0
0 0.227321 0
0 0.233341 0
0 0.237943 0
0 0.241154 0
0 0.242999 0
0 0.243503 0
0 0.242687 0
0 0.240574 0
0 0.237183 0
0 0.232534 0
0 0.226649 0
0 0.219548 0
0 0.211256 0
0 0.201804 0
0 0.191228 0
0 0.179571 0
0 0.166892 0
0 0.153258 0
0 0.138755 0
0 0.123484 0
0 0.107567 0
0 0.091145 0
0 0.0743802 0
0 0.0574564 0
0 0.0405784 0
0 0.0239717 0
0 0.00788282 0
0 0.0119348 0
0 0.0351118 0
0 0.0569284 0
0 0.0774166 0
0 0.096581 0
0 0.114412 0
0 0.130894 0
0 0.146014 0
0 0.159759 0
0 0.172124 0
0 0.18311 0
0 0.192722 0
0 0.20097 0
0 0.207871 0
0 0.213441 0
0 0.2177 0
0 0.220668 0
0 0.222366 0
0 0.222815 0
0 0.222036 0
0 0.220049 0
0 0.216874 0
0 0.212532 0
0 0.207044 0
0 0.200436 0
0 0.192735 0
0 0.183974 0
0 0.174191 0
0 0.163435 0
0 0.151761 0
0 0.13924 0
0 0.125952 0
0 0.111994 0
0 0.0974793 0
0 0.0825359 0
0 0.0673105 0
0 0.0519668 0
0 0.0366857 0
0 0.0216658 0
0 0.00712348 0
0 0.0108465 0
0 0.0319128 0
0 0.051751 0
0 0.0703942 0
0 0.0878492 0
0 0.104108 0
0 0.119158 0
0 0.132982 0
0 0.145569 0
0 0.156909 0
0 0.166998 0
0 0.175837 0
0 0.183431 0
0 0.18979 0
0 0.194925 0
0 0.198851 0
0 0.201584 0
0 0.203142 0
0 0.203541 0
0 0.202802 0
0 0.200942 0
0 0.197982 0
0 0.193943 0
0 0.188848 0
0 0.182722 0
0 0.175596 0
0 0.167504 0
0 0.158486 0
0 0.14859 0
0 0.137872 0
0 0.1264 0
0 0.114251 0
0 0.101515 0
0 0.0882976 0
0 0.0747146 0
0 0.0608983 0
0 0.0469945 0
0 0.0331637 0
0 0.0195809 0
0 0.0064372 0
0 0.00984757 0
0 0.0289761 0
0 0.0469956 0
0 0.0639395 0
0 0.0798159 0
0 0.0946189 0
0 0.108335 0
0 0.120951 0
0 0.13245 0
0 0.142824 0
0 0.152064 0
0 0.160169 0
0 0.167139 0
0 0.172978 0
0 0.177696 0
0 0.181303 0
0 0.18381 0
0 0.185234 0
0 0.185588 0
0 0.184889 0
0 0.183157 0
0 0.180409 0
0 0.176668 0
0 0.171956 0
0 0.1663 0
0 0.15973 0
0 0.152282 0
0 0.143995 0
0 0.134917 0
0 0.125103 0
0 0.114618 0
0 0.103534 0
0 0.0919355 0
0 0.0799179 0
0 0.0675879 0
0 0.0550636 0
0 0.0424753 0
0 0.0299654 0
0 0.0176889 0
0 0.0058146 0
0 0.00892852 0
0 0.0262734 0
0 0.0426176 0
0 0.0579934 0
0 0.07241 0
0 0.0858625 0
0 0.0983392 0
0 0.109825 0
0 0.120307 0
0 0.129772 0
0 0.138211 0
0 0.14562 0
0 0.151996 0
0 0.157342 0
0 0.161662 0
0 0.164963 0
0 0.167256 0
0 0.168552 0
0 0.168865 0
0 0.168209 0
0 0.166602 0
0 0.164062 0
0 0.160611 0
0 0.15627 0
0 0.151067 0
0 0.145032 0
0 0.1382 0
0 0.130609 0
0 0.122307 0
0 0.113346 0
0 0.103787 0
0 0.093698 0
0 0.0831569 0
0 0.0722505 0
0 0.0610755 0
0 0.0497381 0
0 0.0383546 0
0 0.0270514 0
0 0.015966 0
0 0.00524777 0
0 0.00808092 0
0 0.0237805 0
0 0.0385778 0
0 0.052504 0
0 0.0655684 0
0 0.0777674 0
0 0.0890901 0
0 0.0995227 0
0 0.109051 0
0 0.117663 0
0 0.125348 0
0 0.132099 0
0 0.137913 0
0 0.14279 0
0 0.146731 0
0 0.149742 0
0 0.151831 0
0 0.153007 0
0 0.153283 0
0 0.152671 0
0 0.151187 0
0 0.148849 0
0 0.145678 0
0 0.141695 0
0 0.136928 0
0 0.131404 0
0 0.125159 0
0 0.11823 0
0 0.110661 0
0 0.102503 0
0 0.0938121 0
0 0.0846519 0
0 0.0750939 0
0 0.0652169 0
0 0.0551083 0
0 0.0448634 0
0 0.0345857 0
0 0.0243879 0
0 0.0143918 0
0 0.00473002 0
0 0.00729738 0
0 0.0214756 0
0 0.0348417 0
0 0.0474252 0
0 0.0592353 0
0 0.0702692 0
0 0.080517 0
0 0.0899658 0
0 0.0986019 0
0 0.106413 0
0 0.113388 0
0 0.119519 0
0 0.124803 0
0 0.129235 0
0 0.132818 0
0 0.135555 0
0 0.137451 0
0 0.138514 0
0 0.138756 0
0 0.138187 0
0 0.136824 0
0 0.134682 0
0 0.13178 0
0 0.128142 0
0 0.12379 0
0 0.118754 0
0 0.113067 0
0 0.106764 0
0 0.0998876 0
0 0.0924844 0
0 0.0846069 0
0 0.0763139 0
0 0.0676705 0
0 0.0587483 0
0 0.0496258 0
0 0.0403883 0
0 0.0311284 0
0 0.0219459 0
0 0.0129491 0
0 0.00425559 0
0 0.00657132 0
0 0.0193396 0
0 0.0313785 0
0 0.0427156 0
0 0.0533601 0
0 0.0633095 0
0 0.072555 0
0 0.0810846 0
0 0.0888852 0
0 0.0959447 0
0 0.102252 0
0 0.1078 0
0 0.112582 0
0 0.116595 0
0 0.119839 0
0 0.122316 0
0 0.12403 0
0 0.124988 0
0 0.1252 0
0 0.124675 0
0 0.123428 0
0 0.121474 0
0 0.118832 0
0 0.115522 0
0 0.111567 0
0 0.106996 0
0 0.101837 0
0 0.0961267 0
0 0.0899028 0
0 0.0832089 0
0 0.0760936 0
0 0.0686106 0
0 0.060819 0
0 0.0527834 0
0 0.0445744 0
0 0.0362683 0
0 0.0279472 0
0 0.0197001 0
0 0.0116227 0
0 0.00381947 0
0 0.00589683 0
0 0.0173551 0
0 0.0281603 0
0 0.038338 0
0 0.0478969 0
0 0.0568351 0
0 0.0651446 0
0 0.0728144 0
0 0.0798322 0
0 0.0861864 0
0 0.0918666 0
0 0.0968645 0
0 0.101174 0
0 0.104791 0
0 0.107715 0
0 0.109947 0
0 0.111489 0
0 0.112349 0
0 0.112533 0
0 0.112052 0
0 0.110918 0
0 0.109145 0
0 0.106751 0
0 0.103754 0
0 0.100178 0
0 0.0960468 0
0 0.0913897 0
0 0.0862386 0
0 0.0806295 0
0 0.0746023 0
0 0.0682015 0
0 0.0614757 0
0 0.0544784 0
0 0.0472678 0
0 0.0399069 0
0 0.0324636 0
0 0.0250111 0
0 0.017628 0
0 0.0103993 0
0 0.00341726 0
0 0.00526852 0
0 0.0155063 0
0 0.0251617 0
0 0.0342581 0
0 0.0428037 0
0 0.050797 0
0 0.0582308 0
0 0.065095 0
0 0.0713784 0
0 0.0770699 0
0 0.0821597 0
0 0.0866396 0
0 0.0905034 0
0 0.0937471 0
0 0.0963688 0
0 0.0983689 0
0 0.0997502 0
0 0.100517 0
0 0.100677 0
0 0.100239 0
0 0.0992136 0
0 0.0976145 0
0 0.0954572 0
0 0.0927599 0
0 0.0895432 0
0 0.0858305 0
0 0.0816481 0
0 0.0770257 0
0 0.0719962 0
0 0.0665962 0
0 0.0608657 0
0 0.0548488 0
0 0.0485937 0
0 0.0421522 0
0 0.0355805 0
0 0.0289389 0
0 0.0222922 0
0 0.0157099 0
0 0.009267 0
0 0.00304507 0
0 0.00468146 0
0 0.0137787 0
0 0.0223594 0
0 0.0304445 0
0 0.0380417 0
0 0.0451499 0
0 0.0517625 0
0 0.0578705 0
0 0.0634635 0
0 0.0685315 0
0 0.0730651 0
0 0.0770565 0
0 0.0804996 0
0 0.0833904 0
0 0.0857267 0
0 0.0875085 0
0 0.0887378 0
0 0.0894185 0
0 0.0895568 0
0 0.0891605 0
0 0.0882399 0
0 0.0868071 0
0 0.0848763 0
0 0.0824641 0
0 0.0795895 0
0 0.0762738 0
0 0.0725413 0
0 0.0684189 0
0 0.0639364 0
0 0.0591268 0
0 0.0540265 0
0 0.0486747 0
0 0.0431144 0
0 0.0373918 0
0 0.0315566 0
0 0.0256622 0
0 0.0197656 0
0 0.0139279 0
0 0.00821532 0
0 0.00269941 0
0 0.00413108 0
0 0.012159 0
0 0.0197317 0
0 0.026868 0
0 0.0335749 0
0 0.0398514 0
0 0.0456918 0
0 0.051088 0
0 0.0560307 0
0 0.0605106 0
0 0.0645192 0
0 0.0680491 0
0 0.0710947 0
0 0.0736518 0
0 0.0757182 0
0 0.0772936 0
0 0.0783795 0
0 0.0789792 0
0 0.079098 0
0 0.0787431 0
0 0.0779233 0
0 0.0766498 0
0 0.0749354 0
0 0.0727951 0
0 0.0702461 0
0 0.0673078 0
0 0.064002 0
0 0.0603529 0
0 0.0563875 0
0 0.0521353 0
0 0.0476285 0
0 0.0429022 0
0 0.0379944 0
0 0.0329458 0
0 0.0278002 0
0 0.0226044 0
0 0.0174085 0
0 0.012266 0
0 0.00723464 0
0 0.00237711 0
0 0.00361313 0
0 0.0106347 0
0 0.0172585 0
0 0.0235013 0
0 0.0293693 0
0 0.0348618 0
0 0.0399738 0
0 0.044698 0
0 0.0490261 0
0 0.0529499 0
0 0.0564616 0
0 0.0595546 0
0 0.0622234 0
0 0.0644643 0
0 0.066275 0
0 0.0676549 0
0 0.0686053 0
0 0.0691289 0
0 0.0692303 0
0 0.0689157 0
0 0.0681932 0
0 0.0670724 0
0 0.0655649 0
0 0.0636842 0
0 0.0614456 0
0 0.0588665 0
0 0.0559662 0
0 0.0527665 0
0 0.0492911 0
0 0.0455661 0
0 0.0416201 0
0 0.0374838 0
0 0.0331907 0
0 0.0287763 0
0 0.0242788 0
0 0.019739 0
0 0.0152003 0
0 0.0107094 0
0 0.0063162 0
0 0.00207528 0
0 0.00312361 0
0 0.00919398 0
0 0.0149208 0
0 0.0203187 0
0 0.0253931 0
0 0.0301435 0
0 0.0345656 0
0 0.0386529 0
0 0.0423984 0
0 0.0457945 0
0 0.0488345 0
0 0.0515123 0
0 0.0538232 0
0 0.0557635 0
0 0.0573312 0
0 0.0585255 0
0 0.0593474 0
0 0.0597993 0
0 0.059885 0
0 0.0596099 0
0 0.058981 0
0 0.058007 0
0 0.0566979 0
0 0.0550656 0
0 0.0531236 0
0 0.0508872 0
0 0.0483734 0
0 0.0456012 0
0 0.0425915 0
0 0.0393671 0
0 0.0359527 0
0 0.0323752 0
0 0.0286634 0
0 0.0248481 0
0 0.0209623 0
0 0.017041 0
0 0.0131217 0
0 0.00924434 0
0 0.00545194 0
0 0.00179128 0
0 0.00265873 0
0 0.00782574 0
0 0.0127005 0
0 0.0172957 0
0 0.0216159 0
0 0.0256607 0
0 0.0294265 0
0 0.0329078 0
0 0.0360984 0
0 0.0389918 0
0 0.0415822 0
0 0.0438642 0
0 0.0458336 0
0 0.0474871 0
0 0.048823 0
0 0.0498405 0
0 0.0505402 0
0 0.0509242 0
0 0.0509956 0
0 0.0507592 0
0 0.0502209 0
0 0.0493881 0
0 0.0482697 0
0 0.0468757 0
0 0.045218 0
0 0.0433096 0
0 0.0411654 0
0 0.0388017 0
0 0.0362363 0
0 0.0334889 0
0 0.0305807 0
0 0.0275345 0
0 0.024375 0
0 0.0211284 0
0 0.0178226 0
0 0.0144875 0
0 0.0111548 0
0 0.00785826 0
0 0.00463433 0
0 0.00152262 0
0 0.00221489 0
0 0.00651937 0
0 0.0105806 0
0 0.014409 0
0 0.0180087 0
0 0.0213792 0
0 0.0245176 0
0 0.0274193 0
0 0.0300789 0
0 0.0324911 0
0 0.0346509 0
0 0.0365537 0
0 0.038196 0
0 0.0395749 0
0 0.0406887 0
0 0.0415369 0
0 0.0421198 0
0 0.0424392 0
0 0.0424976 0
0 0.042299 0
0 0.0418485 0
0 0.0411522 0
0 0.0402175 0
0 0.0390531 0
0 0.0376689 0
0 0.0360759 0
0 0.0342865 0
0 0.0323145 0
0 0.030175 0
0 0.0278843 0
0 0.0254603 0
0 0.022922 0
0 0.0202899 0
0 0.0175859 0
0 0.0148333 0
0 0.0120569 0
0 0.00928278 0
0 0.0065392 0
0 0.00385632 0
0 0.00126699 0
0 0.00178861 0
0 0.00526469 0
0 0.00854439 0
0 0.0116363 0
0 0.0145436 0
0 0.0172661 0
0 0.0198012 0
0 0.0221454 0
0 0.0242942 0
0 0.0262433 0
0 0.0279886 0
0 0.0295264 0
0 0.0308536 0
0 0.0319679 0
0 0.032868 0
0 0.0335532 0
0 0.034024 0
0 0.0342815 0
0 0.0343279 0
0 0.0341665 0
0 0.0338013 0
0 0.0332373 0
0 0.0324806 0
0 0.0315383 0
0 0.0304183 0
0 0.0291298 0
0 0.0276828 0
0 0.0260886 0
0 0.0243593 0
0 0.0225082 0
0 0.0205499 0
0 0.0184997 0
0 0.0163742 0
0 0.0141912 0
0 0.0119692 0
0 0.00972832 0
0 0.00748969 0
0 0.0052759 0
0 0.00311125 0
0 0.00102218 0
0 0.00137656 0
0 0.00405186 0
0 0.00657606 0
0 0.00895581 0
0 0.0111936 0
0 0.0132892 0
0 0.0152408 0
0 0.0170455 0
0 0.0186999 0
0 0.0202007 0
0 0.0215446 0
0 0.0227288 0
0 0.0237508 0
0 0.0246089 0
0 0.025302 0
0 0.0258295 0
0 0.0261918 0
0 0.0263897 0
0 0.0264251 0
0 0.0263002 0
0 0.0260182 0
0 0.0255832 0
0 0.0249997 0
0 0.0242732 0
0 0.02341 0
0 0.022417 0
0 0.0213022 0
0 0.0200741 0
0 0.0187423 0
0 0.017317 0
0 0.0158093 0
0 0.0142313 0
0 0.0125955 0
0 0.0109156 0
0 0.00920611 0
0 0.00748224 0
0 0.00576027 0
0 0.00405756 0
0 0.00239274 0
0 0.000786116 0
0 0.000975479 0
0 0.0028713 0
0 0.00466008 0
0 0.00634653 0
0 0.00793244 0
0 0.00941767 0
0 0.0108009 0
0 0.01208 0
0 0.0132527 0
0 0.0143166 0
0 0.0152693 0
0 0.0161087 0
0 0.0168333 0
0 0.0174416 0
0 0.0179329 0
0 0.0183068 0