# vtk DataFile Version 2.0
Presion
ASCII

DATASET STRUCTURED_GRID
DIMENSIONS   40   40   20

POINTS   32000   double
0.0125   0.0125   0.025
0.0375   0.0125   0.025
0.0625   0.0125   0.025
0.0875   0.0125   0.025
0.1125   0.0125   0.025
0.1375   0.0125   0.025
0.1625   0.0125   0.025
0.1875   0.0125   0.025
0.2125   0.0125   0.025
0.2375   0.0125   0.025
0.2625   0.0125   0.025
0.2875   0.0125   0.025
0.3125   0.0125   0.025
0.3375   0.0125   0.025
0.3625   0.0125   0.025
0.3875   0.0125   0.025
0.4125   0.0125   0.025
0.4375   0.0125   0.025
0.4625   0.0125   0.025
0.4875   0.0125   0.025
0.5125   0.0125   0.025
0.5375   0.0125   0.025
0.5625   0.0125   0.025
0.5875   0.0125   0.025
0.6125   0.0125   0.025
0.6375   0.0125   0.025
0.6625   0.0125   0.025
0.6875   0.0125   0.025
0.7125   0.0125   0.025
0.7375   0.0125   0.025
0.7625   0.0125   0.025
0.7875   0.0125   0.025
0.8125   0.0125   0.025
0.8375   0.0125   0.025
0.8625   0.0125   0.025
0.8875   0.0125   0.025
0.9125   0.0125   0.025
0.9375   0.0125   0.025
0.9625   0.0125   0.025
0.9875   0.0125   0.025
0.0125   0.0375   0.025
0.0375   0.0375   0.025
0.0625   0.0375   0.025
0.0875   0.0375   0.025
0.1125   0.0375   0.025
0.1375   0.0375   0.025
0.1625   0.0375   0.025
0.1875   0.0375   0.025
0.2125   0.0375   0.025
0.2375   0.0375   0.025
0.2625   0.0375   0.025
0.2875   0.0375   0.025
0.3125   0.0375   0.025
0.3375   0.0375   0.025
0.3625   0.0375   0.025
0.3875   0.0375   0.025
0.4125   0.0375   0.025
0.4375   0.0375   0.025
0.4625   0.0375   0.025
0.4875   0.0375   0.025
0.5125   0.0375   0.025
0.5375   0.0375   0.025
0.5625   0.0375   0.025
0.5875   0.0375   0.025
0.6125   0.0375   0.025
0.6375   0.0375   0.025
0.6625   0.0375   0.025
0.6875   0.0375   0.025
0.7125   0.0375   0.025
0.7375   0.0375   0.025
0.7625   0.0375   0.025
0.7875   0.0375   0.025
0.8125   0.0375   0.025
0.8375   0.0375   0.025
0.8625   0.0375   0.025
0.8875   0.0375   0.025
0.9125   0.0375   0.025
0.9375   0.0375   0.025
0.9625   0.0375   0.025
0.9875   0.0375   0.025
0.0125   0.0625   0.025
0.0375   0.0625   0.025
0.0625   0.0625   0.025
0.0875   0.0625   0.025
0.1125   0.0625   0.025
0.1375   0.0625   0.025
0.1625   0.0625   0.025
0.1875   0.0625   0.025
0.2125   0.0625   0.025
0.2375   0.0625   0.025
0.2625   0.0625   0.025
0.2875   0.0625   0.025
0.3125   0.0625   0.025
0.3375   0.0625   0.025
0.3625   0.0625   0.025
0.3875   0.0625   0.025
0.4125   0.0625   0.025
0.4375   0.0625   0.025
0.4625   0.0625   0.025
0.4875   0.0625   0.025
0.5125   0.0625   0.025
0.5375   0.0625   0.025
0.5625   0.0625   0.025
0.5875   0.0625   0.025
0.6125   0.0625   0.025
0.6375   0.0625   0.025
0.6625   0.0625   0.025
0.6875   0.0625   0.025
0.7125   0.0625   0.025
0.7375   0.0625   0.025
0.7625   0.0625   0.025
0.7875   0.0625   0.025
0.8125   0.0625   0.025
0.8375   0.0625   0.025
0.8625   0.0625   0.025
0.8875   0.0625   0.025
0.9125   0.0625   0.025
0.9375   0.0625   0.025
0.9625   0.0625   0.025
0.9875   0.0625   0.025
0.0125   0.0875   0.025
0.0375   0.0875   0.025
0.0625   0.0875   0.025
0.0875   0.0875   0.025
0.1125   0.0875   0.025
0.1375   0.0875   0.025
0.1625   0.0875   0.025
0.1875   0.0875   0.025
0.2125   0.0875   0.025
0.2375   0.0875   0.025
0.2625   0.0875   0.025
0.2875   0.0875   0.025
0.3125   0.0875   0.025
0.3375   0.0875   0.025
0.3625   0.0875   0.025
0.3875   0.0875   0.025
0.4125   0.0875   0.025
0.4375   0.0875   0.025
0.4625   0.0875   0.025
0.4875   0.0875   0.025
0.5125   0.0875   0.025
0.5375   0.0875   0.025
0.5625   0.0875   0.025
0.5875   0.0875   0.025
0.6125   0.0875   0.025
0.6375   0.0875   0.025
0.6625   0.0875   0.025
0.6875   0.0875   0.025
0.7125   0.0875   0.025
0.7375   0.0875   0.025
0.7625   0.0875   0.025
0.7875   0.0875   0.025
0.8125   0.0875   0.025
0.8375   0.0875   0.025
0.8625   0.0875   0.025
0.8875   0.0875   0.025
0.9125   0.0875   0.025
0.9375   0.0875   0.025
0.9625   0.0875   0.025
0.9875   0.0875   0.025
0.0125   0.1125   0.025
0.0375   0.1125   0.025
0.0625   0.1125   0.025
0.0875   0.1125   0.025
0.1125   0.1125   0.025
0.1375   0.1125   0.025
0.1625   0.1125   0.025
0.1875   0.1125   0.025
0.2125   0.1125   0.025
0.2375   0.1125   0.025
0.2625   0.1125   0.025
0.2875   0.1125   0.025
0.3125   0.1125   0.025
0.3375   0.1125   0.025
0.3625   0.1125   0.025
0.3875   0.1125   0.025
0.4125   0.1125   0.025
0.4375   0.1125   0.025
0.4625   0.1125   0.025
0.4875   0.1125   0.025
0.5125   0.1125   0.025
0.5375   0.1125   0.025
0.5625   0.1125   0.025
0.5875   0.1125   0.025
0.6125   0.1125   0.025
0.6375   0.1125   0.025
0.6625   0.1125   0.025
0.6875   0.1125   0.025
0.7125   0.1125   0.025
0.7375   0.1125   0.025
0.7625   0.1125   0.025
0.7875   0.1125   0.025
0.8125   0.1125   0.025
0.8375   0.1125   0.025
0.8625   0.1125   0.025
0.8875   0.1125   0.025
0.9125   0.1125   0.025
0.9375   0.1125   0.025
0.9625   0.1125   0.025
0.9875   0.1125   0.025
0.0125   0.1375   0.025
0.0375   0.1375   0.025
0.0625   0.1375   0.025
0.0875   0.1375   0.025
0.1125   0.1375   0.025
0.1375   0.1375   0.025
0.1625   0.1375   0.025
0.1875   0.1375   0.025
0.2125   0.1375   0.025
0.2375   0.1375   0.025
0.2625   0.1375   0.025
0.2875   0.1375   0.025
0.3125   0.1375   0.025
0.3375   0.1375   0.025
0.3625   0.1375   0.025
0.3875   0.1375   0.025
0.4125   0.1375   0.025
0.4375   0.1375   0.025
0.4625   0.1375   0.025
0.4875   0.1375   0.025
0.5125   0.1375   0.025
0.5375   0.1375   0.025
0.5625   0.1375   0.025
0.5875   0.1375   0.025
0.6125   0.1375   0.025
0.6375   0.1375   0.025
0.6625   0.1375   0.025
0.6875   0.1375   0.025
0.7125   0.1375   0.025
0.7375   0.1375   0.025
0.7625   0.1375   0.025
0.7875   0.1375   0.025
0.8125   0.1375   0.025
0.8375   0.1375   0.025
0.8625   0.1375   0.025
0.8875   0.1375   0.025
0.9125   0.1375   0.025
0.9375   0.1375   0.025
0.9625   0.1375   0.025
0.9875   0.1375   0.025
0.0125   0.1625   0.025
0.0375   0.1625   0.025
0.0625   0.1625   0.025
0.0875   0.1625   0.025
0.1125   0.1625   0.025
0.1375   0.1625   0.025
0.1625   0.1625   0.025
0.1875   0.1625   0.025
0.2125   0.1625   0.025
0.2375   0.1625   0.025
0.2625   0.1625   0.025
0.2875   0.1625   0.025
0.3125   0.1625   0.025
0.3375   0.1625   0.025
0.3625   0.1625   0.025
0.3875   0.1625   0.025
0.4125   0.1625   0.025
0.4375   0.1625   0.025
0.4625   0.1625   0.025
0.4875   0.1625   0.025
0.5125   0.1625   0.025
0.5375   0.1625   0.025
0.5625   0.1625   0.025
0.5875   0.1625   0.025
0.6125   0.1625   0.025
0.6375   0.1625   0.025
0.6625   0.1625   0.025
0.6875   0.1625   0.025
0.7125   0.1625   0.025
0.7375   0.1625   0.025
0.7625   0.1625   0.025
0.7875   0.1625   0.025
0.8125   0.1625   0.025
0.8375   0.1625   0.025
0.8625   0.1625   0.025
0.8875   0.1625   0.025
0.9125   0.1625   0.025
0.9375   0.1625   0.025
0.9625   0.1625   0.025
0.9875   0.1625   0.025
0.0125   0.1875   0.025
0.0375   0.1875   0.025
0.0625   0.1875   0.025
0.0875   0.1875   0.025
0.1125   0.1875   0.025
0.1375   0.1875   0.025
0.1625   0.1875   0.025
0.1875   0.1875   0.025
0.2125   0.1875   0.025
0.2375   0.1875   0.025
0.2625   0.1875   0.025
0.2875   0.1875   0.025
0.3125   0.1875   0.025
0.3375   0.1875   0.025
0.3625   0.1875   0.025
0.3875   0.1875   0.025
0.4125   0.1875   0.025
0.4375   0.1875   0.025
0.4625   0.1875   0.025
0.4875   0.1875   0.025
0.5125   0.1875   0.025
0.5375   0.1875   0.025
0.5625   0.1875   0.025
0.5875   0.1875   0.025
0.6125   0.1875   0.025
0.6375   0.1875   0.025
0.6625   0.1875   0.025
0.6875   0.1875   0.025
0.7125   0.1875   0.025
0.7375   0.1875   0.025
0.7625   0.1875   0.025
0.7875   0.1875   0.025
0.8125   0.1875   0.025
0.8375   0.1875   0.025
0.8625   0.1875   0.025
0.8875   0.1875   0.025
0.9125   0.1875   0.025
0.9375   0.1875   0.025
0.9625   0.1875   0.025
0.9875   0.1875   0.025
0.0125   0.2125   0.025
0.0375   0.2125   0.025
0.0625   0.2125   0.025
0.0875   0.2125   0.025
0.1125   0.2125   0.025
0.1375   0.2125   0.025
0.1625   0.2125   0.025
0.1875   0.2125   0.025
0.2125   0.2125   0.025
0.2375   0.2125   0.025
0.2625   0.2125   0.025
0.2875   0.2125   0.025
0.3125   0.2125   0.025
0.3375   0.2125   0.025
0.3625   0.2125   0.025
0.3875   0.2125   0.025
0.4125   0.2125   0.025
0.4375   0.2125   0.025
0.4625   0.2125   0.025
0.4875   0.2125   0.025
0.5125   0.2125   0.025
0.5375   0.2125   0.025
0.5625   0.2125   0.025
0.5875   0.2125   0.025
0.6125   0.2125   0.025
0.6375   0.2125   0.025
0.6625   0.2125   0.025
0.6875   0.2125   0.025
0.7125   0.2125   0.025
0.7375   0.2125   0.025
0.7625   0.2125   0.025
0.7875   0.2125   0.025
0.8125   0.2125   0.025
0.8375   0.2125   0.025
0.8625   0.2125   0.025
0.8875   0.2125   0.025
0.9125   0.2125   0.025
0.9375   0.2125   0.025
0.9625   0.2125   0.025
0.9875   0.2125   0.025
0.0125   0.2375   0.025
0.0375   0.2375   0.025
0.0625   0.2375   0.025
0.0875   0.2375   0.025
0.1125   0.2375   0.025
0.1375   0.2375   0.025
0.1625   0.2375   0.025
0.1875   0.2375   0.025
0.2125   0.2375   0.025
0.2375   0.2375   0.025
0.2625   0.2375   0.025
0.2875   0.2375   0.025
0.3125   0.2375   0.025
0.3375   0.2375   0.025
0.3625   0.2375   0.025
0.3875   0.2375   0.025
0.4125   0.2375   0.025
0.4375   0.2375   0.025
0.4625   0.2375   0.025
0.4875   0.2375   0.025
0.5125   0.2375   0.025
0.5375   0.2375   0.025
0.5625   0.2375   0.025
0.5875   0.2375   0.025
0.6125   0.2375   0.025
0.6375   0.2375   0.025
0.6625   0.2375   0.025
0.6875   0.2375   0.025
0.7125   0.2375   0.025
0.7375   0.2375   0.025
0.7625   0.2375   0.025
0.7875   0.2375   0.025
0.8125   0.2375   0.025
0.8375   0.2375   0.025
0.8625   0.2375   0.025
0.8875   0.2375   0.025
0.9125   0.2375   0.025
0.9375   0.2375   0.025
0.9625   0.2375   0.025
0.9875   0.2375   0.025
0.0125   0.2625   0.025
0.0375   0.2625   0.025
0.0625   0.2625   0.025
0.0875   0.2625   0.025
0.1125   0.2625   0.025
0.1375   0.2625   0.025
0.1625   0.2625   0.025
0.1875   0.2625   0.025
0.2125   0.2625   0.025
0.2375   0.2625   0.025
0.2625   0.2625   0.025
[...]
POINT_DATA   32000
SCALARS Presion double
LOOKUP_TABLE   Presion

0 0 0 0 0 0 0 0 0 0 0 0 0 0 0 0 0 0 0 0 0 0 0 0 0 0 0 0 0 0 0 0 0 0 0 0 0 0 0 0 -5.12842e-06 -5.08525e-06 -5.00599e-06 -4.89448e-06 -4.75321e-06 -4.58401e-06 -4.38846e-06 -4.16792e-06 -3.92356e-06 -3.65639e-06 -3.36717e-06 -3.05657e-06 -2.72476e-06 -2.37177e-06 -1.99741e-06 -1.60124e-06 -1.18269e-06 -7.41076e-07 -2.75718e-07 2.13983e-07 7.28419e-07 1.26761e-06 1.83117e-06 2.41806e-06 3.02644e-06 3.65352e-06 4.29546e-06 4.94721e-06 5.60243e-06 6.25352e-06 6.89169e-06 7.50717e-06 8.08923e-06 8.62684e-06 9.10904e-06 9.52552e-06 9.86723e-06 1.0127e-05 1.03002e-05 1.03854e-05 -1.0248e-05 -1.01625e-05 -1.00048e-05 -9.78213e-06 -9.49965e-06 -9.16113e-06 -8.76981e-06 -8.3285e-06 -7.83965e-06 -7.30534e-06 -6.7272e-06 -6.10656e-06 -5.44383e-06 -4.73909e-06 -3.99191e-06 -3.20144e-06 -2.36649e-06 -1.48564e-06 -5.57461e-07 4.19318e-07 1.44557e-06 2.52144e-06 3.64627e-06 4.81809e-06 6.03336e-06 7.28665e-06 8.57037e-06 9.87451e-06 1.11865e-05 1.24912e-05 1.37709e-05 1.50061e-05 1.61751e-05 1.72557e-05 1.82257e-05 1.90641e-05 1.97525e-05 2.02764e-05 2.06261e-05 2.07987e-05 -1.53687e-05 -1.5241e-05 -1.50045e-05 -1.46701e-05 -1.42455e-05 -1.37366e-05 -1.31483e-05 -1.24852e-05 -1.1751e-05 -1.09492e-05 -1.00822e-05 -9.15217e-06 -8.15983e-06 -7.10529e-06 -5.98791e-06 -4.80633e-06 -3.55866e-06 -2.24266e-06 -8.55989e-07 6.03451e-07 2.13721e-06 3.74577e-06 5.42844e-06 7.18257e-06 9.00317e-06 1.08824e-05 1.28092e-05 1.47688e-05 1.67425e-05 1.87077e-05 2.06376e-05 2.25027e-05 2.42701e-05 2.59058e-05 2.73757e-05 2.86476e-05 2.96932e-05 3.04895e-05 3.10217e-05 3.12846e-05 -2.05001e-05 -2.03297e-05 -2.00133e-05 -1.95657e-05 -1.8997e-05 -1.83154e-05 -1.75279e-05 -1.66409e-05 -1.56598e-05 -1.45894e-05 -1.34333e-05 -1.21946e-05 -1.08744e-05 -9.47272e-06 -7.98879e-06 -6.42065e-06 -4.76557e-06 -3.02028e-06 -1.18136e-06 7.54403e-07 2.78951e-06 4.92512e-06 7.16085e-06 9.49377e-06 1.19178e-05 1.44232e-05 1.69956e-05 1.96159e-05 2.22595e-05 2.4896e-05 2.749e-05 3.00012e-05 3.23851e-05 3.45949e-05 3.6584e-05 3.83075e-05 3.97261e-05 4.08077e-05 4.15312e-05 4.18888e-05 -2.56519e-05 -2.54377e-05 -2.50397e-05 -2.44761e-05 -2.37601e-05 -2.29023e-05 -2.1912e-05 -2.07978e-05 -1.95671e-05 -1.82263e-05 -1.67805e-05 -1.52338e-05 -1.35875e-05 -1.18422e-05 -9.99646e-06 -8.04774e-06 -5.99226e-06 -3.82551e-06 -1.54264e-06 8.60969e-07 3.38919e-06 6.04428e-06 8.82665e-06 1.17336e-05 1.47585e-05 1.78902e-05 2.11117e-05 2.43998e-05 2.77242e-05 3.10472e-05 3.43241e-05 3.75038e-05 4.05291e-05 4.33395e-05 4.58742e-05 4.80745e-05 4.98881e-05 5.12727e-05 5.21997e-05 5.26582e-05 -3.08342e-05 -3.05749e-05 -3.00924e-05 -2.94089e-05 -2.85408e-05 -2.75016e-05 -2.63033e-05 -2.49571e-05 -2.34727e-05 -2.18586e-05 -2.01217e-05 -1.82673e-05 -1.62973e-05 -1.42124e-05 -1.20108e-05 -9.68904e-06 -7.24207e-06 -4.66381e-06 -1.94765e-06 9.12928e-07 3.92361e-06 7.0883e-06 1.04088e-05 1.38833e-05 1.75055e-05 2.12631e-05 2.51375e-05 2.91019e-05 3.31207e-05 3.71492e-05 4.1133e-05 4.50098e-05 4.87085e-05 5.21537e-05 5.52686e-05 5.79785e-05 6.02163e-05 6.19272e-05 6.30738e-05 6.36412e-05 -3.60582e-05 -3.57516e-05 -3.51806e-05 -3.43719e-05 -3.33451e-05 -3.21172e-05 -3.07035e-05 -2.91183e-05 -2.73744e-05 -2.54828e-05 -2.34525e-05 -2.12903e-05 -1.89991e-05 -1.65794e-05 -1.40291e-05 -1.13436e-05 -8.51617e-06 -5.53879e-06 -2.40261e-06 9.01262e-07 4.38093e-06 8.04259e-06 1.18902e-05 1.59236e-05 2.01374e-05 2.45197e-05 2.90505e-05 3.37006e-05 3.84296e-05 4.31859e-05 4.79057e-05 5.25145e-05 5.69265e-05 6.10494e-05 6.47879e-05 6.8049e-05 7.07479e-05 7.28149e-05 7.42017e-05 7.48884e-05 -4.13361e-05 -4.09794e-05 -4.03148e-05 -3.93733e-05 -3.81788e-05 -3.67523e-05 -3.51131e-05 -3.32794e-05 -3.12678e-05 -2.90925e-05 -2.67652e-05 -2.42947e-05 -2.16847e-05 -1.8936e-05 -1.60456e-05 -1.30075e-05 -9.81307e-06 -6.45173e-06 -2.91186e-06 8.18406e-07 4.75025e-06 8.89292e-06 1.32533e-05 1.78339e-05 2.26313e-05 2.7635e-05 3.28249e-05 3.81702e-05 4.36268e-05 4.91366e-05 5.46264e-05 6.00088e-05 6.51821e-05 7.00348e-05 7.44507e-05 7.83146e-05 8.15208e-05 8.39812e-05 8.56343e-05 8.64533e-05 -4.66821e-05 -4.62717e-05 -4.55063e-05 -4.44221e-05 -4.3048e-05 -4.14096e-05 -3.95312e-05 -3.7436e-05 -3.51454e-05 -3.26778e-05 -3.00482e-05 -2.72679e-05 -2.43418e-05 -2.12706e-05 -1.80505e-05 -1.46734e-05 -1.11282e-05 -7.40122e-06 -3.4775e-06 6.58532e-07 5.02186e-06 9.62558e-06 1.44805e-05 1.95927e-05 2.49623e-05 3.05811e-05 3.64309e-05 4.24801e-05 4.86825e-05 5.49742e-05 6.12728e-05 6.74777e-05 7.34692e-05 7.91147e-05 8.4273e-05 8.88032e-05 9.25737e-05 9.54741e-05 9.74258e-05 9.83933e-05 -5.2113e-05 -5.16439e-05 -5.07685e-05 -4.95287e-05 -4.7959e-05 -4.60909e-05 -4.39551e-05 -4.1581e-05 -3.8996e-05 -3.62243e-05 -3.3285e-05 -3.01924e-05 -2.69528e-05 -2.35669e-05 -2.00293e-05 -1.63296e-05 -1.24532e-05 -8.38269e-06 -4.09898e-06 4.17876e-07 5.18745e-06 1.02276e-05 1.55539e-05 2.11775e-05 2.71031e-05 3.33269e-05 3.98337e-05 4.65939e-05 5.35601e-05 6.06643e-05 6.78151e-05 7.48984e-05 8.17753e-05 8.82884e-05 9.4268e-05 9.95415e-05 0.000103946 0.000107344 0.000109635 0.000110771 -5.76489e-05 -5.71149e-05 -5.61173e-05 -5.47048e-05 -5.29186e-05 -5.07975e-05 -4.838e-05 -4.57036e-05 -4.28039e-05 -3.97118e-05 -3.64524e-05 -3.30436e-05 -2.94935e-05 -2.58022e-05 -2.19622e-05 -1.79595e-05 -1.37754e-05 -9.38791e-06 -4.77273e-06 9.51075e-08 5.2405e-06 1.06868e-05 1.64557e-05 2.25644e-05 2.90239e-05 3.58368e-05 4.29934e-05 5.04679e-05 5.82145e-05 6.61627e-05 7.42137e-05 8.22394e-05 9.00797e-05 9.75494e-05 0.000104445 0.000110555 0.000115681 0.000119646 0.000122326 0.000123656 -6.33145e-05 -6.27073e-05 -6.1572e-05 -5.99649e-05 -5.79349e-05 -5.55301e-05 -5.27987e-05 -4.97891e-05 -4.6547e-05 -4.31128e-05 -3.95192e-05 -3.5789e-05 -3.19317e-05 -2.79465e-05 -2.38226e-05 -1.95411e-05 -1.50777e-05 -1.04046e-05 -5.49172e-06 -3.08245e-07 5.17669e-06 1.09928e-05 1.71685e-05 2.37287e-05 3.06926e-05 3.80712e-05 4.58631e-05 5.40498e-05 6.259e-05 7.14139e-05 8.04169e-05 8.9457e-05 9.83516e-05 0.000106883 0.000114808 0.00012187 0.00012782 0.000132441 0.000135571 0.000137127 -6.91404e-05 -6.84498e-05 -6.71569e-05 -6.53267e-05 -6.30177e-05 -6.0289e-05 -5.72015e-05 -5.38173e-05 -5.01958e-05 -4.63906e-05 -4.2444e-05 -3.83851e-05 -3.42252e-05 -2.99611e-05 -2.55765e-05 -2.10458e-05 -1.63374e-05 -1.14161e-05 -6.2451e-06 -7.87325e-07 4.99448e-06 1.11368e-05 1.76759e-05 2.46453e-05 3.20745e-05 3.99855e-05 4.83887e-05 5.7277e-05 6.66184e-05 7.63475e-05 8.63574e-05 9.64932e-05 0.000106548 0.000116266 0.000125356 0.000133507 0.000140411 0.000145795 0.000149451 0.000151272 -7.51652e-05 -7.43781e-05 -7.29025e-05 -7.0813e-05 -6.81796e-05 -6.50747e-05 -6.15754e-05 -5.77614e-05 -5.37112e-05 -4.94955e-05 -4.51709e-05 -4.07746e-05 -3.63191e-05 -3.17963e-05 -2.71815e-05 -2.24388e-05 -1.75266e-05 -1.2401e-05 -7.0179e-06 -1.33343e-06 4.69587e-06 1.11134e-05 1.79634e-05 2.52895e-05 3.31332e-05 4.15305e-05 5.05079e-05 6.00749e-05 7.02151e-05 8.08744e-05 9.19481e-05 0.000103271 0.000114608 0.000125662 0.000136083 0.000145491 0.000153506 0.000159785 0.000164062 0.000166195 -8.14375e-05 -8.05378e-05 -7.88479e-05 -7.64535e-05 -7.34376e-05 -6.98889e-05 -6.59043e-05 -6.1587e-05 -5.70409e-05 -5.23616e-05 -4.7626e-05 -4.28823e-05 -3.81429e-05 -3.33904e-05 -2.85858e-05 -2.36781e-05 -1.86123e-05 -1.3334e-05 -7.79091e-06 -1.93342e-06 4.28739e-06 1.09211e-05 1.802e-05 2.56385e-05 3.38317e-05 4.2653e-05 5.21495e-05 6.23543e-05 7.32757e-05 8.48807e-05 9.70755e-05 0.000109688 0.000122453 0.000135021 0.000146972 0.000157843 0.000167161 0.000174497 0.000179513 0.000182018 -8.80185e-05 -8.69863e-05 -8.50434e-05 -8.22873e-05 -7.88157e-05 -7.47361e-05 -7.01698e-05 -6.52501e-05 -6.0116e-05 -5.48997e-05 -4.9709e-05 -4.46081e-05 -3.9606e-05 -3.46671e-05 -2.97284e-05 -2.47162e-05 -1.95576e-05 -1.41857e-05 -8.54081e-06 -2.56909e-06 3.7815e-06 1.05648e-05 1.78404e-05 2.56736e-05 3.41347e-05 4.32971e-05 5.32335e-05 6.40093e-05 7.567e-05 8.82194e-05 0.00010159 0.000115608 0.000129977 0.000144278 0.000158003 0.000170585 0.000181443 0.000190036 0.000195933 0.000198885 -9.4985e-05 -9.37966e-05 -9.15538e-05 -8.83667e-05 -8.43484e-05 -7.96271e-05 -7.43525e-05 -6.86962e-05 -6.28455e-05 -5.6988e-05 -5.12818e-05 -4.58175e-05 -4.05923e-05 -3.55345e-05 -3.05404e-05 -2.55023e-05 -2.0324e-05 -1.49252e-05 -9.2407e-06 -3.21631e-06 3.19852e-06 1.00582e-05 1.7428e-05 2.53842e-05 3.40126e-05 4.3408e-05 5.36734e-05 6.49158e-05 7.72351e-05 9.06975e-05 0.000105288 0.000120851 0.00013704 0.000153346 0.000169146 0.000183746 0.00019643 0.000206524 0.00021348 0.000216968 -0.000102433 -0.00010106 -9.84625e-05 -9.47618e-05 -9.0086e-05 -8.45842e-05 -7.8437e-05 -7.18614e-05 -6.51103e-05 -5.84567e-05 -5.21482e-05 -4.63267e-05 -4.09543e-05 -3.58861e-05 -3.09494e-05 -2.59877e-05 -2.08763e-05 -1.55227e-05 -9.86106e-06 -3.84378e-06 2.5697e-06 9.42749e-06 1.67992e-05 2.47721e-05 3.34468e-05 4.29388e-05 5.33818e-05 6.49327e-05 7.77672e-05 9.20548e-05 0.000107889 0.000125166 0.000143461 0.000162124 0.000180375 0.000197365 0.000212221 0.00022411 0.000232337 0.000236474 -0.000110478 -0.000108891 -0.000105876 -0.000101566 -9.61022e-05 -8.96511e-05 -8.24212e-05 -7.4678e-05 -6.67572e-05 -5.90631e-05 -5.20146e-05 -4.58768e-05 -4.0507e-05 -3.56067e-05 -3.08896e-05 -2.61352e-05 -2.11901e-05 -1.59549e-05 -1.03715e-05 -4.41091e-06 1.94234e-06 8.71649e-06 1.59878e-05 2.38574e-05 3.24389e-05 4.18616e-05 5.22835e-05 6.39104e-05 7.70145e-05 9.19306e-05 0.000108976 0.000128202 0.000149012 0.000170501 0.000191673 0.000211501 0.000228939 0.000242972 0.000252728 0.000257647 -0.000119263 -0.000117426 -0.000113926 -0.000108902 -0.000102504 -9.49065e-05 -8.63359e-05 -7.70943e-05 -6.76026e-05 -5.84516e-05 -5.04022e-05 -4.40952e-05 -3.90322e-05 -3.4592e-05 -3.03217e-05 -2.59351e-05 -2.12626e-05 -1.62115e-05 -1.07436e-05 -4.86404e-06 1.3904e-06 7.99316e-06 1.50488e-05 2.26839e-05 3.10203e-05 4.01861e-05 5.03414e-05 6.17188e-05 7.46837e-05 8.98091e-05 0.000107877 0.000129457 0.000153423 0.000178384 0.000203064 0.000226255 0.000246746 0.000263328 0.000274915 0.000280776 -0.000128955 -0.000126833 -0.000122775 -0.000116928 -0.00010944 -0.000100484 -9.02782e-05 -7.91214e-05 -6.7471e-05 -5.61045e-05 -4.64174e-05 -4.04453e-05 -3.63169e-05 -3.27976e-05 -2.92678e-05 -2.54265e-05 -2.11271e-05 -1.63063e-05 -1.09572e-05 -5.13098e-06 1.04112e-06 7.35697e-06 1.40571e-05 2.13197e-05 2.92624e-05 3.79841e-05 4.76039e-05 5.83159e-05 7.04987e-05 8.49534e-05 0.000103335 0.000128203 0.00015644 0.000185773 0.000214656 0.000241791 0.000265852 0.000285436 0.000299203 0.000306194 -0.000139743 -0.0001373 -0.000132615 -0.000125838 -0.000117112 -0.000106593 -9.44588e-05 -8.09345e-05 -6.63495e-05 -5.13734e-05 -3.80173e-05 -3.42586e-05 -3.23085e-05 -3.03388e-05 -2.786e-05 -2.47192e-05 -2.08654e-05 -1.62905e-05 -1.1018e-05 -5.12346e-06 1.15821e-06 6.93598e-06 1.30903e-05 1.98476e-05 2.72791e-05 3.54133e-05 4.42703e-05 5.38917e-05 6.4426e-05 7.64601e-05 9.24665e-05 0.00012355 0.000158057 0.000192895 0.00022671 0.000258361 0.000286515 0.00030959 0.000325935 0.00033428 -0.000151842 -0.000149044 -0.000143663 -0.000135857 -0.000125764 -0.000113516 -9.92396e-05 -8.30223e-05 -6.48342e-05 -4.42368e-05 -1.92377e-05 -2.54926e-05 -2.75611e-05 -2.76419e-05 -2.63778e-05 -2.39989e-05 -2.0609e-05 -1.62667e-05 -1.10056e-05 -4.81795e-06 2.45313e-06 6.80222e-06 1.21726e-05 1.834e-05 2.52146e-05 3.27192e-05 4.07418e-05 4.90823e-05 5.73194e-05 6.43696e-05 6.67692e-05 0.000115551 0.000159153 0.000200427 0.000239686 0.000276301 0.00030903 0.000336105 0.000355481 0.000365444 -0.000165484 -0.000162295 -0.000156156 -0.000147232 -0.000135664 -0.00012158 -0.000105081 -8.62051e-05 -6.48532e-05 -4.06235e-05 -1.25639e-05 -2.00545e-05 -2.39585e-05 -2.54609e-05 -2.51945e-05 -2.34859e-05 -2.05134e-05 -1.63818e-05 -1.11513e-05 -4.83972e-06 2.59358e-06 6.38057e-06 1.1181e-05 1.68352e-05 2.32147e-05 3.01815e-05 3.75427e-05 4.49855e-05 5.1952e-05 5.73928e-05 5.939e-05 0.000112932 0.000162527 0.000209506 0.00025416 0.000295974 0.000333689 0.000365289 0.000388214 0.00040012 -0.000180915 -0.000177301 -0.000170335 -0.000160205 -0.000147068 -0.000131065 -0.000112313 -9.0885e-05 -6.67719e-05 -3.98583e-05 -9.98257e-06 -1.72451e-05 -2.18185e-05 -2.41267e-05 -2.4547e-05 -2.33449e-05 -2.06992e-05 -1.67318e-05 -1.15278e-05 -5.14691e-06 2.36076e-06 5.75684e-06 1.01362e-05 1.53929e-05 2.14005e-05 2.80037e-05 3.49921e-05 4.20606e-05 4.87546e-05 5.44226e-05 5.83021e-05 0.000114596 0.000168632 0.000220621 0.000270494 0.000317642 0.000360715 0.000397402 0.00042449 0.000438747 -0.000198393 -0.000194311 -0.000186445 -0.000175011 -0.000160197 -0.000142178 -0.000121116 -9.71501e-05 -7.03938e-05 -4.0955e-05 -9.02421e-06 -1.60536e-05 -2.08949e-05 -2.36519e-05 -2.45122e-05 -2.36557e-05 -2.12317e-05 -1.73599e-05 -1.21385e-05 -5.65424e-06 2.00137e-06 5.04818e-06 9.10046e-06 1.40727e-05 1.98487e-05 2.62807e-05 3.31789e-05 4.02972e-05 4.73246e-05 5.39114e-05 5.97907e-05 0.000119004 0.00017708 0.000233783 0.000288799 0.000341427 0.000390237 0.000432629 0.000464619 0.000481754 -0.000218183 -0.000213582 -0.000204724 -0.000191866 -0.000175239 -0.000155068 -0.000131571 -0.000104964 -7.54618e-05 -4.33075e-05 -8.82992e-06 -1.58489e-05 -2.08804e-05 -2.39233e-05 -2.50662e-05 -2.44273e-05 -2.21256e-05 -1.8271e-05 -1.29647e-05 -6.3044e-06 1.60466e-06 4.32943e-06 8.12627e-06 1.29155e-05 1.85914e-05 2.50238e-05 3.20565e-05 3.95075e-05 4.71786e-05 5.48899e-05 6.25542e-05 0.000125188 0.000187391 0.000248807 0.000309027 0.00036733 0.000422277 0.000471056 0.000508844 0.000529548 -0.000240559 -0.000235374 -0.000225406 -0.000210969 -0.00019235 -0.000169836 -0.000143712 -0.000114263 -8.17812e-05 -4.65865e-05 -9.06005e-06 -1.62791e-05 -2.15332e-05 -2.48025e-05 -2.61373e-05 -2.56231e-05 -2.33588e-05 -1.94445e-05 -1.39786e-05 -7.0597e-06 1.20747e-06 3.64247e-06 7.24686e-06 1.19414e-05 1.76293e-05 2.41989e-05 3.15264e-05 3.94819e-05 4.79415e-05 5.68119e-05 6.6065e-05 0.000132591 0.000199172 0.000265459 0.000331046 0.000395266 0.000456764 0.000512658 0.000557313 0.000582498 -0.000265801 -0.000259947 -0.000248717 -0.000232498 -0.000211655 -0.000186551 -0.000157543 -0.000124981 -8.92166e-05 -5.06108e-05 -9.56117e-06 -1.71444e-05 -2.26787e-05 -2.61599e-05 -2.76344e-05 -2.71785e-05 -2.48821e-05 -2.08394e-05 -1.51441e-05 -7.8896e-06 8.27567e-07 3.01118e-06 6.48187e-06 1.11578e-05 1.69481e-05 2.37566e-05 3.14858e-05 4.00433e-05 4.9352e-05 5.9363e-05 7.0068e-05 0.000140873 0.000212112 0.000283494 0.00035467 0.000425075 0.000493535 0.000557288 0.000610047 0.000640914 -0.000294202 -0.000287563 -0.000274867 -0.000256603 -0.00023324 -0.000205236 -0.000173032 -0.000137042 -9.76592e-05 -5.52654e-05 -1.02522e-05 -1.83198e-05 -2.41846e-05 -2.78756e-05 -2.94557e-05 -2.9008e-05 -2.66241e-05 -2.23963e-05 -1.64138e-05 -8.76182e-06 4.76679e-07 2.453e-06 5.8463e-06 1.05688e-05 1.65323e-05 2.36515e-05 3.18484e-05 4.10573e-05 5.1231e-05 6.23473e-05 7.44091e-05 0.000149791 0.000225943 0.000302653 0.00037966 0.000456531 0.00053234 0.000604659 0.000666897 0.000705021 -0.00032606 -0.000318478 -0.000304041 -0.000283387 -0.000257129 -0.000225853 -0.000190094 -0.000150332 -0.00010699 -6.04514e-05 -1.10797e-05 -1.97109e-05 -2.59359e-05 -2.98295e-05 -3.14854e-05 -3.10052e-05 -2.84899e-05 -2.40346e-05 -1.77248e-05 -9.63575e-06 1.672e-07 1.98732e-06 5.35896e-06 1.01846e-05 1.63748e-05 2.38518e-05 3.25514e-05 4.24273e-05 5.34539e-05 6.56292e-05 7.89697e-05 0.000159135 0.000240394 0.000322635 0.000405702 0.000489314 0.000572824 0.000654329 0.000727482 0.000774904 -0.000361685 -0.000352934 -0.000336375 -0.000312871 -0.000283246 -0.000248252 -0.000208542 -0.000164658 -0.000117041 -6.60509e-05 -1.19954e-05 -2.12271e-05 -2.7813e-05 -3.18873e-05 -3.35857e-05 -3.30369e-05 -3.03576e-05 -2.56487e-05 -1.89937e-05 -1.0457e-05 -8.33528e-08 1.6418e-06 5.04895e-06 1.0027e-05 1.64832e-05 2.43438e-05 3.35556e-05 4.4087e-05 5.59304e-05 6.91025e-05 8.36392e-05 0.00016869 0.000255165 0.000343071 0.00043238 0.000522976 0.000614495 0.000705675 0.000791111 0.000850437 -0.000401384 -0.000391129 -0.000371907 -0.000344935 -0.000311347 -0.000272118 -0.000228036 -0.000179701 -0.000127551 -7.1894e-05 -1.2942e-05 -2.27605e-05 -2.96726e-05 -3.38861e-05 -3.55875e-05 -3.49381e-05 -3.20738e-05 -2.71043e-05 -2.01127e-05 -1.11533e-05 -2.49036e-07 1.45648e-06 4.95925e-06 1.01328e-05 1.688e-05 2.51309e-05 3.48412e-05 4.59921e-05 5.85914e-05 7.26747e-05 8.83022e-05 0.000178223 0.000269907 0.000363503 0.000459141 0.000556891 0.000656668 0.000757863 0.000856684 0.000931167 -0.000445453 -0.000433172 -0.000410488 -0.000379207 -0.000340915 -0.000296871 -0.000248005 -0.000194955 -0.000138122 -7.77255e-05 -1.38394e-05 -2.41687e-05 -3.13325e-05 -3.56241e-05 -3.72845e-05 -3.65092e-05 -3.3454e-05 -2.82389e-05 -2.09493e-05 -1.1633e-05 -2.93699e-07 1.48462e-06 5.14545e-06 1.05494e-05 1.75981e-05 2.62265e-05 3.63992e-05 4.8109e-05 6.13774e-05 7.62571e-05 9.28337e-05 0.000187473 0.000284211 0.000383367 0.000485266 0.000590207 0.000698387 0.000809795 0.000922579 0.00101613 -0.000494137 -0.000478964 -0.000451616 -0.000414888 -0.000371003 -0.000321545 -0.000267554 -0.000209655 -0.000148165 -8.31725e-05 -1.45706e-05 -2.52603e-05 -3.25636e-05 -3.686e-05 -3.84398e-05 -3.75272e-05 -3.42952e-05 -2.88748e-05 -2.13573e-05 -1.17914e-05 -1.72541e-07 1.78679e-06 5.66584e-06 1.13227e-05 1.86651e-05 2.76376e-05 3.82148e-05 5.04e-05 6.42251e-05 7.97553e-05 9.70971e-05 0.000196144 0.000297603 0.000401993 0.000509867 0.00062181 0.000738334 0.000860028 0.000986528 0.0011036 -0.000547527 -0.000527931 -0.00049409 -0.000450443 -0.000400011 -0.000344644 -0.000285382 -0.000222739 -0.000156882 -8.77272e-05 -1.49729e-05 -2.57967e-05 -3.31057e-05 -3.73404e-05 -3.88198e-05 -3.77832e-05 -3.44145e-05 -2.88546e-05 -2.12066e-05 -1.15325e-05 1.58609e-07 2.41212e-06 6.55608e-06 1.24679e-05 2.00744e-05 2.93358e-05 4.02392e-05 5.27965e-05 6.70458e-05 8.3056e-05 0.000100941 0.000203907 0.00030955 0.000418608 0.000531886 0.000650319 0.000774749 0.000906652 0.00104554 0.00119062 -0.000605229 -0.000578358 -0.000535359 -0.000483152 -0.000425443 -0.000364054 -0.000299787 -0.000232896 -0.000163321 -9.07942e-05 -1.48528e-05 -2.5541e-05 -3.27403e-05 -3.68847e-05 -3.82831e-05 -3.71705e-05 -3.3733e-05 -2.812e-05 -2.04517e-05 -1.08202e-05 7.17902e-07 3.35606e-06 7.77949e-06 1.39182e-05 2.17341e-05 3.12097e-05 4.23455e-05 5.51601e-05 6.96927e-05 8.60043e-05 0.000104197 0.000210398 0.000319465 0.000432359 0.000550136 0.00067413 0.000805449 0.000947106 0.00109599 0.00127233 -0.000665141 -0.000625688 -0.000570392 -0.000508644 -0.000443881 -0.000377244 -0.000308961 -0.000238882 -0.000166676 -9.19154e-05 -1.40895e-05 -2.44303e-05 -3.14862e-05 -3.5578e-05 -3.69618e-05 -3.58513e-05 -3.24278e-05 -2.68479e-05 -1.92524e-05 -9.77555e-06 1.44266e-06 4.48289e-06 9.14604e-06 1.54485e-05 2.33977e-05 3.30007e-05 4.42705e-05 5.72301e-05 7.19148e-05 8.83696e-05 0.00010666 0.000215208 0.000326717 0.000442354 0.000563383 0.000691516 0.000828034 0.00097792 0.00113417 0.00134063 -0.000717985 -0.000658747 -0.000590763 -0.000521493 -0.000452114 -0.000382472 -0.000312105 -0.000240485 -0.000167082 -9.13901e-05 -1.29741e-05 -2.29908e-05 -2.99866e-05 -3.41072e-05 -3.55477e-05 -3.45008e-05 -3.11434e-05 -2.56377e-05 -1.81406e-05 -8.8227e-06 2.09069e-06 5.41221e-06 1.02108e-05 1.65887e-05 2.45907e-05 3.42409e-05 4.556e-05 5.85728e-05 7.33104e-05 8.98026e-05 0.000108073 0.000217874 0.000330659 0.000447724 0.000570471 0.000700799 0.000840301 0.00099466 0.00115722 0.00138239 0 0 0 0 0 0 0 0 0 0 0 0 0 0 0 0 0 0 0 0 0 0 0 0 0 0 0 0 0 0 0 0 0 0 0 0 0 0 0 0 -5.09191e-06 -5.05401e-06 -4.98057e-06 -4.87415e-06 -4.73705e-06 -4.57127e-06 -4.37855e-06 -4.1604e-06 -3.91812e-06 -3.6528e-06 -3.36529e-06 -3.0563e-06 -2.72604e-06 -2.37459e-06 -2.00176e-06 -1.60715e-06 -1.1902e-06 -7.50233e-07 -2.86572e-07 2.01389e-07 7.1406e-07 1.25149e-06 1.81334e-06 2.39862e-06 3.00558e-06 3.63154e-06 4.27278e-06 4.92436e-06 5.58011e-06 6.23259e-06 6.8731e-06 7.49201e-06 8.07864e-06 8.62196e-06 9.11093e-06 9.5351e-06 9.88514e-06