# vtk DataFile Version 2.0
Velocidades
ASCII

DATASET STRUCTURED_GRID
DIMENSIONS   40   40   20

POINTS   32000   double
0.0125   0.0125   0.025
0.0125   0.0375   0.025
0.0125   0.0625   0.025
0.0125   0.0875   0.025
0.0125   0.1125   0.025
0.0125   0.1375   0.025
0.0125   0.1625   0.025
0.0125   0.1875   0.025
0.0125   0.2125   0.025
0.0125   0.2375   0.025
0.0125   0.2625   0.025
0.0125   0.2875   0.025
0.0125   0.3125   0.025
0.0125   0.3375   0.025
0.0125   0.3625   0.025
0.0125   0.3875   0.025
0.0125   0.4125   0.025
0.0125   0.4375   0.025
0.0125   0.4625   0.025
0.0125   0.4875   0.025
0.0125   0.5125   0.025
0.0125   0.5375   0.025
0.0125   0.5625   0.025
0.0125   0.5875   0.025
0.0125   0.6125   0.025
0.0125   0.6375   0.025
0.0125   0.6625   0.025
0.0125   0.6875   0.025
0.0125   0.7125   0.025
0.0125   0.7375   0.025
0.0125   0.7625   0.025
0.0125   0.7875   0.025
0.0125   0.8125   0.025
0.0125   0.8375   0.025
0.0125   0.8625   0.025
0.0125   0.8875   0.025
0.0125   0.9125   0.025
0.0125   0.9375   0.025
0.0125   0.9625   0.025
0.0125   0.9875   0.025
0.0375   0.0125   0.025
0.0375   0.0375   0.025
0.0375   0.0625   0.025
0.0375   0.0875   0.025
0.0375   0.1125   0.025
0.0375   0.1375   0.025
0.0375   0.1625   0.025
0.0375   0.1875   0.025
0.0375   0.2125   0.025
0.0375   0.2375   0.025
0.0375   0.2625   0.025
0.0375   0.2875   0.025
0.0375   0.3125   0.025
0.0375   0.3375   0.025
0.0375   0.3625   0.025
0.0375   0.3875   0.025
0.0375   0.4125   0.025
0.0375   0.4375   0.025
0.0375   0.4625   0.025
0.0375   0.4875   0.025
0.0375   0.5125   0.025
0.0375   0.5375   0.025
0.0375   0.5625   0.025
0.0375   0.5875   0.025
0.0375   0.6125   0.025
0.0375   0.6375   0.025
0.0375   0.6625   0.025
0.0375   0.6875   0.025
0.0375   0.7125   0.025
0.0375   0.7375   0.025
0.0375   0.7625   0.025
0.0375   0.7875   0.025
0.0375   0.8125   0.025
0.0375   0.8375   0.025
0.0375   0.8625   0.025
0.0375   0.8875   0.025
0.0375   0.9125   0.025
0.0375   0.9375   0.025
0.0375   0.9625   0.025
0.0375   0.9875   0.025
0.0625   0.0125   0.025
0.0625   0.0375   0.025
0.0625   0.0625   0.025
0.0625   0.0875   0.025
0.0625   0.1125   0.025
0.0625   0.1375   0.025
0.0625   0.1625   0.025
0.0625   0.1875   0.025
0.0625   0.2125   0.025
0.0625   0.2375   0.025
0.0625   0.2625   0.025
0.0625   0.2875   0.025
0.0625   0.3125   0.025
0.0625   0.3375   0.025
0.0625   0.3625   0.025
0.0625   0.3875   0.025
0.0625   0.4125   0.025
0.0625   0.4375   0.025
0.0625   0.4625   0.025
0.0625   0.4875   0.025
0.0625   0.5125   0.025
0.0625   0.5375   0.025
0.0625   0.5625   0.025
0.0625   0.5875   0.025
0.0625   0.6125   0.025
0.0625   0.6375   0.025
0.0625   0.6625   0.025
0.0625   0.6875   0.025
0.0625   0.7125   0.025
0.0625   0.7375   0.025
0.0625   0.7625   0.025
0.0625   0.7875   0.025
0.0625   0.8125   0.025
0.0625   0.8375   0.025
0.0625   0.8625   0.025
0.0625   0.8875   0.025
0.0625   0.9125   0.025
0.0625   0.9375   0.025
0.0625   0.9625   0.025
0.0625   0.9875   0.025
0.0875   0.0125   0.025
0.0875   0.0375   0.025
0.0875   0.0625   0.025
0.0875   0.0875   0.025
0.0875   0.1125   0.025
0.0875   0.1375   0.025
0.0875   0.1625   0.025
0.0875   0.1875   0.025
0.0875   0.2125   0.025
0.0875   0.2375   0.025
0.0875   0.2625   0.025
0.0875   0.2875   0.025
0.0875   0.3125   0.025
0.0875   0.3375   0.025
0.0875   0.3625   0.025
0.0875   0.3875   0.025
0.0875   0.4125   0.025
0.0875   0.4375   0.025
0.0875   0.4625   0.025
0.0875   0.4875   0.025
0.0875   0.5125   0.025
0.0875   0.5375   0.025
0.0875   0.5625   0.025
0.0875   0.5875   0.025
0.0875   0.6125   0.025
0.0875   0.6375   0.025
0.0875   0.6625   0.025
0.0875   0.6875   0.025
0.0875   0.7125   0.025
0.0875   0.7375   0.025
0.0875   0.7625   0.025
0.0875   0.7875   0.025
0.0875   0.8125   0.025
0.0875   0.8375   0.025
0.0875   0.8625   0.025
0.0875   0.8875   0.025
0.0875   0.9125   0.025
0.0875   0.9375   0.025
0.0875   0.9625   0.025
0.0875   0.9875   0.025
0.1125   0.0125   0.025
0.1125   0.0375   0.025
0.1125   0.0625   0.025
0.1125   0.0875   0.025
0.1125   0.1125   0.025
0.1125   0.1375   0.025
0.1125   0.1625   0.025
0.1125   0.1875   0.025
0.1125   0.2125   0.025
0.1125   0.2375   0.025
0.1125   0.2625   0.025
0.1125   0.2875   0.025
0.1125   0.3125   0.025
0.1125   0.3375   0.025
0.1125   0.3625   0.025
0.1125   0.3875   0.025
0.1125   0.4125   0.025
0.1125   0.4375   0.025
0.1125   0.4625   0.025
0.1125   0.4875   0.025
0.1125   0.5125   0.025
0.1125   0.5375   0.025
0.1125   0.5625   0.025
0.1125   0.5875   0.025
0.1125   0.6125   0.025
0.1125   0.6375   0.025
0.1125   0.6625   0.025
0.1125   0.6875   0.025
0.1125   0.7125   0.025
0.1125   0.7375   0.025
0.1125   0.7625   0.025
0.1125   0.7875   0.025
0.1125   0.8125   0.025
0.1125   0.8375   0.025
0.1125   0.8625   0.025
0.1125   0.8875   0.025
0.1125   0.9125   0.025
0.1125   0.9375   0.025
0.1125   0.9625   0.025
0.1125   0.9875   0.025
0.1375   0.0125   0.025
0.1375   0.0375   0.025
0.1375   0.0625   0.025
0.1375   0.0875   0.025
0.1375   0.1125   0.025
0.1375   0.1375   0.025
0.1375   0.1625   0.025
0.1375   0.1875   0.025
0.1375   0.2125   0.025
0.1375   0.2375   0.025
0.1375   0.2625   0.025
0.1375   0.2875   0.025
0.1375   0.3125   0.025
0.1375   0.3375   0.025
0.1375   0.3625   0.025
0.1375   0.3875   0.025
0.1375   0.4125   0.025
0.1375   0.4375   0.025
0.1375   0.4625   0.025
0.1375   0.4875   0.025
0.1375   0.5125   0.025
0.1375   0.5375   0.025
0.1375   0.5625   0.025
0.1375   0.5875   0.025
0.1375   0.6125   0.025
0.1375   0.6375   0.025
0.1375   0.6625   0.025
0.1375   0.6875   0.025
0.1375   0.7125   0.025
0.1375   0.7375   0.025
0.1375   0.7625   0.025
0.1375   0.7875   0.025
0.1375   0.8125   0.025
0.1375   0.8375   0.025
0.1375   0.8625   0.025
0.1375   0.8875   0.025
0.1375   0.9125   0.025
0.1375   0.9375   0.025
0.1375   0.9625   0.025
0.1375   0.9875   0.025
0.1625   0.0125   0.025
0.1625   0.0375   0.025
0.1625   0.0625   0.025
0.1625   0.0875   0.025
0.1625   0.1125   0.025
0.1625   0.1375   0.025
0.1625   0.1625   0.025
0.1625   0.1875   0.025
0.1625   0.2125   0.025
0.1625   0.2375   0.025
0.1625   0.2625   0.025
0.1625   0.2875   0.025
0.1625   0.3125   0.025
0.1625   0.3375   0.025
0.1625   0.3625   0.025
0.1625   0.3875   0.025
0.1625   0.4125   0.025
0.1625   0.4375   0.025
0.1625   0.4625   0.025
0.1625   0.4875   0.025
0.1625   0.5125   0.025
0.1625   0.5375   0.025
0.1625   0.5625   0.025
0.1625   0.5875   0.025
0.1625   0.6125   0.025
0.1625   0.6375   0.025
0.1625   0.6625   0.025
0.1625   0.6875   0.025
0.1625   0.7125   0.025
0.1625   0.7375   0.025
0.1625   0.7625   0.025
0.1625   0.7875   0.025
0.1625   0.8125   0.025
0.1625   0.8375   0.025
0.1625   0.8625   0.025
0.1625   0.8875   0.025
0.1625   0.9125   0.025
0.1625   0.9375   0.025
0.1625   0.9625   0.025
0.1625   0.9875   0.025
0.1875   0.0125   0.025
0.1875   0.0375   0.025
0.1875   0.0625   0.025
0.1875   0.0875   0.025
0.1875   0.1125   0.025
0.1875   0.1375   0.025
0.1875   0.1625   0.025
0.1875   0.1875   0.025
0.1875   0.2125   0.025
0.1875   0.2375   0.025
0.1875   0.2625   0.025
0.1875   0.2875   0.025
0.1875   0.3125   0.025
0.1875   0.3375   0.025
0.1875   0.3625   0.025
0.1875   0.3875   0.025
0.1875   0.4125   0.025
0.1875   0.4375   0.025
0.1875   0.4625   0.025
0.1875   0.4875   0.025
0.1875   0.5125   0.025
0.1875   0.5375   0.025
0.1875   0.5625   0.025
0.1875   0.5875   0.025
0.1875   0.6125   0.025
0.1875   0.6375   0.025
0.1875   0.6625   0.025
0.1875   0.6875   0.025
0.1875   0.7125   0.025
0.1875   0.7375   0.025
0.1875   0.7625   0.025
0.1875   0.7875   0.025
0.1875   0.8125   0.025
0.1875   0.8375   0.025
0.1875   0.8625   0.025
0.1875   0.8875   0.025
0.1875   0.9125   0.025
0.1875   0.9375   0.025
0.1875   0.9625   0.025
0.1875   0.9875   0.025
0.2125   0.0125   0.025
0.2125   0.0375   0.025
0.2125   0.0625   0.025
0.2125   0.0875   0.025
0.2125   0.1125   0.025
0.2125   0.1375   0.025
0.2125   0.1625   0.025
0.2125   0.1875   0.025
0.2125   0.2125   0.025
0.2125   0.2375   0.025
0.2125   0.2625   0.025
0.2125   0.2875   0.025
0.2125   0.3125   0.025
0.2125   0.3375   0.025
0.2125   0.3625   0.025
0.2125   0.3875   0.025
0.2125   0.4125   0.025
0.2125   0.4375   0.025
0.2125   0.4625   0.025
0.2125   0.4875   0.025
0.2125   0.5125   0.025
0.2125   0.5375   0.025
0.2125   0.5625   0.025
0.2125   0.5875   0.025
0.2125   0.6125   0.025
0.2125   0.6375   0.025
0.2125   0.6625   0.025
0.2125   0.6875   0.025
0.2125   0.7125   0.025
0.2125   0.7375   0.025
0.2125   0.7625   0.025
0.2125   0.7875   0.025
0.2125   0.8125   0.025
0.2125   0.8375   0.025
0.2125   0.8625   0.025
0.2125   0.8875   0.025
0.2125   0.9125   0.025
0.2125   0.9375   0.025
0.2125   0.9625   0.025
0.2125   0.9875   0.025
0.2375   0.0125   0.025
0.2375   0.0375   0.025
0.2375   0.0625   0.025
0.2375   0.0875   0.025
0.2375   0.1125   0.025
0.2375   0.1375   0.025
0.2375   0.1625   0.025
0.2375   0.1875   0.025
0.2375   0.2125   0.025
0.2375   0.2375   0.025
0.2375   0.2625   0.025
0.2375   0.2875   0.025
0.2375   0.3125   0.025
0.2375   0.3375   0.025
0.2375   0.3625   0.025
0.2375   0.3875   0.025
0.2375   0.4125   0.025
0.2375   0.4375   0.025
0.2375   0.4625   0.025
0.2375   0.4875   0.025
0.2375   0.5125   0.025
0.2375   0.5375   0.025
0.2375   0.5625   0.025
0.2375   0.5875   0.025
0.2375   0.6125   0.025
0.2375   0.6375   0.025
0.2375   0.6625   0.025
0.2375   0.6875   0.025
0.2375   0.7125   0.025
0.2375   0.7375   0.025
0.2375   0.7625   0.025
0.2375   0.7875   0.025
0.2375   0.8125   0.025
0.2375   0.8375   0.025
0.2375   0.8625   0.025
0.2375   0.8875   0.025
0.2375   0.9125   0.025
0.2375   0.9375   0.025
0.2375   0.9625   0.025
0.2375   0.9875   0.025
0.2625   0.0125   0.025
0.2625   0.0375   0.025
0.2625   0.0625   0.025
0.2625   0.0875   0.025
0.2625   0.1125   0.025
0.2625   0.1375   0.025
0.2625   0.1625   0.025
0.2625   0.1875   0.025
0.2625   0.2125   0.025
0.2625   0.2375   0.025
0.2625   0.2625   0.025
[...]
POINT_DATA   32000
VECTORS Velocidades double

0 0.32755 0
0 0.745361 0
0 0.866825 0
0 0.91167 0
0 0.932522 0
0 0.944061 0
0 0.951216 0
0 0.955983 0
0 0.959309 0
0 0.9617 0
0 0.963449 0
0 0.964739 0
0 0.965688 0
0 0.966374 0
0 0.966852 0
0 0.967159 0
0 0.967318 0
0 0.967345 0
0 0.96725 0
0 0.967034 0
0 0.966694 0
0 0.966224 0
0 0.965609 0
0 0.964831 0
0 0.963861 0
0 0.962665 0
0 0.961194 0
0 0.959384 0
0 0.957147 0
0 0.954362 0
0 0.950853 0
0 0.946363 0
0 0.940488 0
0 0.932559 0
0 0.921359 0
0 0.904415 0
0 0.875913 0
0 0.819892 0
0 0.685806 0
0 0.294784 0
0 0.199387 0
0 0.505713 0
0 0.668686 0
0 0.75581 0
0 0.805466 0
0 0.835873 0
0 0.855681 0
0 0.869214 0
0 0.87879 0
0 0.88573 0
0 0.890836 0
0 0.894616 0
0 0.897403 0
0 0.899424 0
0 0.900833 0
0 0.901736 0
0 0.902205 0
0 0.902285 0
0 0.902001 0
0 0.901361 0
0 0.900356 0
0 0.898965 0
0 0.897147 0
0 0.894847 0
0 0.891987 0
0 0.888464 0
0 0.884139 0
0 0.878829 0
0 0.872288 0
0 0.864175 0
0 0.854014 0
0 0.841112 0
0 0.824433 0
0 0.802349 0
0 0.772189 0
0 0.729339 0
0 0.665489 0
0 0.565467 0
0 0.403525 0
0 0.151544 0
0 0.140664 0
0 0.376144 0
0 0.531366 0
0 0.630321 0
0 0.694115 0
0 0.736442 0
0 0.765449 0
0 0.785916 0
0 0.800703 0
0 0.811571 0
0 0.819644 0
0 0.825661 0
0 0.83012 0
0 0.833364 0
0 0.83563 0
0 0.837084 0
0 0.837838 0
0 0.837963 0
0 0.837499 0
0 0.836458 0
0 0.834827 0
0 0.832571 0
0 0.829629 0
0 0.825912 0
0 0.821301 0
0 0.815636 0
0 0.808707 0
0 0.800239 0
0 0.789866 0
0 0.777097 0
0 0.761262 0
0 0.741428 0
0 0.71627 0
0 0.683865 0
0 0.641381 0
0 0.58464 0
0 0.507642 0
0 0.402628 0
0 0.262642 0
0 0.0916146 0
0 0.108224 0
0 0.296842 0
0 0.434348 0
0 0.531456 0
0 0.599587 0
0 0.647779 0
0 0.682371 0
0 0.707595 0
0 0.726251 0
0 0.740195 0
0 0.750679 0
0 0.758563 0
0 0.764444 0
0 0.768742 0
0 0.771754 0
0 0.773689 0
0 0.77469 0
0 0.774849 0
0 0.774217 0
0 0.772811 0
0 0.770615 0
0 0.767583 0
0 0.763638 0
0 0.758667 0
0 0.752519 0
0 0.744996 0
0 0.73584 0
0 0.724719 0
0 0.711202 0
0 0.694727 0
0 0.674556 0
0 0.649713 0
0 0.618897 0
0 0.580382 0
0 0.531911 0
0 0.470669 0
0 0.393519 0
0 0.297969 0
0 0.184652 0
0 0.061968 0
0 0.0875356 0
0 0.243206 0
0 0.362938 0
0 0.453008 0
0 0.520042 0
0 0.569869 0
0 0.607072 0
0 0.63504 0
0 0.656208 0
0 0.67231 0
0 0.684579 0
0 0.693897 0
0 0.7009 0
0 0.706046 0
0 0.709665 0
0 0.711994 0
0 0.713195 0
0 0.713375 0
0 0.712593 0
0 0.71087 0
0 0.708187 0
0 0.704492 0
0 0.699697 0
0 0.693676 0
0 0.686259 0
0 0.677227 0
0 0.6663 0
0 0.653124 0
0 0.637256 0
0 0.618134 0
0 0.595054 0
0 0.567137 0
0 0.533293 0
0 0.492215 0
0 0.44241 0
0 0.382362 0
0 0.310956 0
0 0.22833 0
0 0.13732 0
0 0.0451473 0
0 0.0729366 0
0 0.204081 0
0 0.308132 0
0 0.389651 0
0 0.452903 0
0 0.501739 0
0 0.539404 0
0 0.568483 0
0 0.590968 0
0 0.608365 0
0 0.621799 0
0 0.632109 0
0 0.639919 0
0 0.645691 0
0 0.649766 0
0 0.652391 0
0 0.65374 0
0 0.653927 0
0 0.653016 0
0 0.65103 0
0 0.64795 0
0 0.643722 0
0 0.638252 0
0 0.631409 0
0 0.623018 0
0 0.612856 0
0 0.600643 0
0 0.586037 0
0 0.568616 0
0 0.547874 0
0 0.523203 0
0 0.493891 0
0 0.459129 0
0 0.418049 0
0 0.369824 0
0 0.31387 0
0 0.250203 0
0 0.180004 0
0 0.106311 0
0 0.0345544 0
0 0.0618943 0
0 0.173914 0
0 0.264522 0
0 0.337464 0
0 0.395778 0
0 0.442126 0
0 0.478821 0
0 0.507802 0
0 0.530643 0
0 0.548595 0
0 0.562636 0
0 0.573521 0
0 0.581832 0
0 0.58801 0
0 0.592389 0
0 0.595214 0
0 0.596659 0
0 0.596839 0
0 0.595823 0
0 0.593633 0
0 0.590253 0
0 0.585627 0
0 0.579664 0
0 0.572235 0
0 0.56317 0
0 0.552256 0
0 0.539231 0
0 0.523783 0
0 0.505544 0
0 0.484085 0
0 0.458924 0
0 0.429533 0
0 0.395371 0
0 0.355941 0
0 0.310897 0
0 0.26022 0
0 0.204464 0
0 0.145078 0
0 0.0847094 0
0 0.027347 0
0 0.0531328 0
0 0.149696 0
0 0.2288 0
0 0.293691 0
0 0.346709 0
0 0.389798 0
0 0.424639 0
0 0.452684 0
0 0.475156 0
0 0.493069 0
0 0.507245 0
0 0.518342 0
0 0.526879 0
0 0.533262 0
0 0.537802 0
0 0.540734 0
0 0.542224 0
0 0.542388 0
0 0.541291 0
0 0.538958 0
0 0.535372 0
0 0.530484 0
0 0.524207 0
0 0.51642 0
0 0.506966 0
0 0.495652 0
0 0.482246 0
0 0.46648 0
0 0.448047 0
0 0.426609 0
0 0.401809 0
0 0.373288 0
0 0.340724 0
0 0.303896 0
0 0.262768 0
0 0.21762 0
0 0.169204 0
0 0.118915 0
0 0.0689134 0
0 0.0221527 0
0 0.0459445 0
0 0.129679 0
0 0.198876 0
0 0.256407 0
0 0.304181 0
0 0.343681 0
0 0.376165 0
0 0.402728 0
0 0.424319 0
0 0.441744 0
0 0.455682 0
0 0.466688 0
0 0.475216 0
0 0.481627 0
0 0.486203 0
0 0.489158 0
0 0.490651 0
0 0.49079 0
0 0.489637 0
0 0.487217 0
0 0.483519 0
0 0.478496 0
0 0.47207 0
0 0.464134 0
0 0.454549 0
0 0.443147 0
0 0.429731 0
0 0.41408 0
0 0.395955 0
0 0.375102 0
0 0.351275 0
0 0.324255 0
0 0.293885 0
0 0.260127 0
0 0.223126 0
0 0.183296 0
0 0.141416 0
0 0.0987127 0
0 0.0569126 0
0 0.0182432 0
0 0.0399056 0
0 0.112778 0
0 0.173378 0
0 0.22426 0
0 0.267035 0
0 0.30288 0
0 0.332762 0
0 0.35752 0
0 0.377887 0
0 0.394504 0
0 0.40792 0
0 0.418601 0
0 0.42693 0
0 0.433221 0
0 0.437725 0
0 0.440635 0
0 0.442094 0
0 0.442202 0
0 0.441018 0
0 0.438566 0
0 0.434838 0
0 0.429794 0
0 0.423368 0
0 0.415466 0
0 0.40597 0
0 0.39474 0
0 0.381616 0
0 0.366424 0
0 0.348985 0
0 0.329121 0
0 0.306677 0
0 0.281539 0
0 0.253666 0
0 0.223134 0
0 0.190178 0
0 0.155253 0
0 0.119086 0
0 0.0827161 0
0 0.0475168 0
0 0.0152015 0
0 0.0347462 0
0 0.098289 0
0 0.151376 0
0 0.196282 0
0 0.234391 0
0 0.266666 0
0 0.293871 0
0 0.316655 0
0 0.335592 0
0 0.351186 0
0 0.363882 0
0 0.37406 0
0 0.382044 0
0 0.388101 0
0 0.392449 0
0 0.395257 0
0 0.396653 0
0 0.396727 0
0 0.395534 0
0 0.393098 0
0 0.389414 0
0 0.384449 0
0 0.378147 0
0 0.370432 0
0 0.361205 0
0 0.350355 0
0 0.337756 0
0 0.323278 0
0 0.306793 0
0 0.288187 0
0 0.267372 0
0 0.244312 0
0 0.219041 0
0 0.191697 0
0 0.162554 0
0 0.132055 0
0 0.100845 0
0 0.0697883 0
0 0.0399843 0
0 0.0127737 0
0 0.0302856 0
0 0.0857313 0
0 0.132216 0
0 0.171763 0
0 0.205573 0
0 0.23445 0
0 0.259009 0
0 0.279763 0
0 0.297162 0
0 0.311605 0
0 0.323448 0
0 0.333003 0
0 0.340536 0
0 0.346273 0
0 0.3504 0
0 0.353063 0
0 0.354375 0
0 0.354416 0
0 0.353235 0
0 0.350856 0
0 0.347276 0
0 0.342471 0
0 0.336396 0
0 0.328989 0
0 0.320172 0
0 0.309858 0
0 0.297954 0
0 0.284366 0
0 0.26901 0
0 0.251819 0
0 0.232759 0
0 0.211842 0
0 0.189148 0
0 0.164845 0
0 0.139212 0
0 0.112657 0
0 0.0857367 0
0 0.0591674 0
0 0.033832 0
0 0.0107969 0
0 0.0263971 0
0 0.0747645 0
0 0.115425 0
0 0.150173 0
0 0.180053 0
0 0.205749 0
0 0.227763 0
0 0.246505 0
0 0.262332 0
0 0.275561 0
0 0.286477 0
0 0.29533 0
0 0.302343 0
0 0.307701 0
0 0.311561 0
0 0.31405 0
0 0.315263 0
0 0.315272 0
0 0.314122 0
0 0.311833 0
0 0.308408 0
0 0.303827 0
0 0.298056 0
0 0.291048 0
0 0.282743 0
0 0.273076 0
0 0.261981 0
0 0.249395 0
0 0.235266 0
0 0.219565 0
0 0.202291 0
0 0.183492 0
0 0.163271 0
0 0.141803 0
0 0.119355 0
0 0.0962911 0
0 0.0730847 0
0 0.050327 0
0 0.0287334 0
0 0.00916256 0
0 0.0229887 0
0 0.0651386 0
0 0.100649 0
0 0.131102 0
0 0.157414 0
0 0.180166 0
0 0.199776 0
0 0.216576 0
0 0.230849 0
0 0.24285 0
0 0.252805 0
0 0.260919 0
0 0.267369 0
0 0.272312 0
0 0.275878 0
0 0.278173 0
0 0.279281 0
0 0.279262 0
0 0.278156 0
0 0.275984 0
0 0.272749 0
0 0.26844 0
0 0.26303 0
0 0.256484 0
0 0.24876 0
0 0.239811 0
0 0.229592 0
0 0.218064 0
0 0.205202 0
0 0.191001 0
0 0.175486 0
0 0.158722 0
0 0.140821 0
0 0.121957 0
0 0.102372 0
0 0.0823845 0
0 0.0623957 0
0 0.0428932 0
0 0.0244602 0
0 0.00779513 0
0 0.0199909 0
0 0.0566636 0
0 0.0876124 0
0 0.11423 0
0 0.137315 0
0 0.157369 0
0 0.174739 0
0 0.189697 0
0 0.202472 0
0 0.213267 0
0 0.222263 0
0 0.229624 0
0 0.235497 0
0 0.240007 0
0 0.243264 0
0 0.245356 0
0 0.246355 0
0 0.246312 0
0 0.245263 0
0 0.243226 0
0 0.240209 0
0 0.236203 0
0 0.231191 0
0 0.225148 0
0 0.218045 0
0 0.20985 0
0 0.200535 0
0 0.190081 0
0 0.17848 0
0 0.165746 0
0 0.151918 0
0 0.137069 0
0 0.121313 0
0 0.104812 0
0 0.0877835 0
0 0.0705016 0
0 0.0533036 0
0 0.0365931 0
0 0.0208479 0
0 0.00664071 0
0 0.0173495 0
0 0.0491902 0
0 0.0760986 0
0 0.0992953 0
0 0.119477 0
0 0.137073 0
0 0.152378 0
0 0.165616 0
0 0.176972 0
0 0.186608 0
0 0.19467 0
0 0.20129 0
0 0.206587 0
0 0.210662 0
0 0.213607 0
0 0.215495 0
0 0.216386 0
0 0.216323 0
0 0.215339 0
0 0.213452 0
0 0.210668 0
0 0.206984 0
0 0.20239 0
0 0.196869 0
0 0.190402 0
0 0.18297 0
0 0.174559 0
0 0.165163 0
0 0.154786 0
0 0.143454 0
0 0.131214 0
0 0.11814 0
0 0.104343 0
0 0.0899712 0
0 0.0752136 0
0 0.0603057 0
0 0.0455306 0
0 0.0312224 0
0 0.0177747 0
0 0.00565958 0
0 0.015021 0
0 0.042598 0
0 0.0659297 0
0 0.0860816 0
0 0.103659 0
0 0.119033 0
0 0.132452 0
0 0.144101 0
0 0.154132 0
0 0.162674 0
0 0.169845 0
0 0.175751 0
0 0.180487 0
0 0.184137 0
0 0.186776 0
0 0.188463 0
0 0.18925 0
0 0.189173 0
0 0.18826 0
0 0.186529 0
0 0.183985 0
0 0.180631 0
0 0.176461 0
0 0.171464 0
0 0.165631 0
0 0.158951 0
0 0.15142 0
0 0.143041 0
0 0.133829 0
0 0.123814 0
0 0.113046 0
0 0.1016 0
0 0.0895768 0
0 0.0771085 0
0 0.0643603 0
0 0.0515323 0
0 0.0388615 0
0 0.026625 0
0 0.015148 0
0 0.00482172 0
0 0.0129694 0
0 0.0367868 0
0 0.0569566 0
0 0.0744052 0
0 0.0896578 0
0 0.103033 0
0 0.114741 0
0 0.124937 0
0 0.133744 0
0 0.141268 0
0 0.147602 0
0 0.152831 0
0 0.157034 0
0 0.160277 0
0 0.162622 0
0 0.164117 0
0 0.164806 0
0 0.164719 0
0 0.163881 0
0 0.162307 0
0 0.160006 0
0 0.15698 0
0 0.153228 0
0 0.148745 0
0 0.143527 0
0 0.137572 0
0 0.130881 0
0 0.123465 0
0 0.115342 0
0 0.106547 0
0 0.0971296 0
0 0.0871598 0
0 0.0767296 0
0 0.0659551 0
0 0.0549787 0
0 0.0439696 0
0 0.0331262 0
0 0.0226786 0
0 0.0128962 0
0 0.00410389 0
0 0.0111642 0
0 0.0316712 0
0 0.0490514 0
0 0.0641067 0
0 0.077291 0
0 0.0888777 0
0 0.0990458 0
0 0.107924 0
0 0.115613 0
0 0.122199 0
0 0.127757 0
0 0.132356 0
0 0.136058 0
0 0.138919 0
0 0.140985 0
0 0.142301 0
0 0.142898 0
0 0.142806 0
0 0.142044 0
0 0.140626 0
0 0.138561 0
0 0.135855 0
0 0.132507 0
0 0.128517 0
0 0.123887 0
0 0.118618 0
0 0.112716 0
0 0.106196 0
0 0.0990801 0
0 0.0914022 0
0 0.0832106 0
0 0.0745696 0
0 0.065561 0
0 0.0562861 0
0 0.0468665 0
0 0.0374453 0
0 0.0281879 0
0 0.0192857 0
0 0.0109622 0
0 0.00348768 0
0 0.00957885 0
0 0.0271774 0
0 0.0421024 0
0 0.0550454 0
0 0.0663971 0
0 0.0763919 0
0 0.0851814 0
0 0.092873 0
0 0.0995498 0
0 0.105282 0
0 0.110129 0
0 0.114148 0
0 0.117387 0
0 0.119892 0
0 0.121701 0
0 0.122849 0
0 0.123364 0
0 0.123269 0
0 0.122582 0
0 0.121316 0
0 0.119479 0
0 0.117076 0
0 0.114112 0
0 0.110589 0
0 0.10651 0
0 0.101881 0
0 0.0967104 0
0 0.0910151 0
0 0.0848184 0
0 0.0781535 0
0 0.0710652 0
0 0.0636114 0
0 0.0558642 0
0 0.0479109 0
0 0.039855 0
0 0.0318168 0
0 0.0239344 0
0 0.0163669 0
0 0.00929981 0
0 0.00295824 0
0 0.0081901 0
0 0.0232397 0
0 0.0360102 0
0 0.0470952 0
0 0.05683 0
0 0.0654146 0
0 0.0729775 0
0 0.0796084 0
0 0.0853759 0
0 0.0903365 0
0 0.0945396 0
0 0.0980291 0
0 0.100845 0
0 0.103024 0
0 0.104597 0
0 0.105592 0
0 0.106033 0
0 0.105939 0
0 0.105325 0
0 0.104202 0
0 0.10258 0
0 0.100464 0
0 0.0978596 0
0 0.0947702 0
0 0.0912016 0
0 0.0871612 0
0 0.0826605 0
0 0.077716 0
0 0.072351 0
0 0.0665967 0
0 0.0604939 0
0 0.0540941 0
0 0.04746 0
0 0.0406664 0
0 0.033801 0
0 0.0269646 0
0 0.0202725 0
0 0.0138566 0
0 0.00787103 0
0 0.00250337 0
0 0.00697711 0
0 0.0197997 0
0 0.0306855 0
0 0.0401422 0
0 0.0484562 0
0 0.0557978 0
0 0.0622755 0
0 0.0679643 0
0 0.0729206 0
0 0.0771907 0
0 0.0808141 0
0 0.0838264 0
0 0.0862596 0
0 0.0881427 0
0 0.0895015 0
0 0.0903587 0
0 0.0907336 0
0 0.0906424 0
0 0.090098 0
0 0.0891109 0
0 0.087689 0
0 0.0858387 0
0 0.0835655 0
0 0.0808749 0
0 0.0777734 0
0 0.0742697 0
0 0.0703758 0
0 0.0661081 0
0 0.0614888 0
0 0.0565467 0
0 0.0513183 0
0 0.0458486 0
0 0.0401918 0
0 0.0344116 0
0 0.028582 0
0 0.0227873 0
0 0.0171233 0
0 0.0116995 0
0 0.00664404 0
0 0.00211285 0
0 0.00592111 0
0 0.0168043 0
0 0.0260474 0
0 0.0340826 0
0 0.0411534 0
0 0.0474045 0
0 0.0529273 0
0 0.0577843 0
0 0.0620221 0
0 0.0656782 0
0 0.0687848 0
0 0.0713702 0
0 0.0734602 0
0 0.0750781 0
0 0.0762448 0
0 0.0769786 0
0 0.0772955 0
0 0.0772089 0
0 0.07673 0
0 0.075868 0
0 0.0746303 0
0 0.0730233 0
0 0.0710526 0
0 0.0687245 0
0 0.0660461 0
0 0.0630263 0
0 0.0596772 0
0 0.0560146 0
0 0.0520588 0
0 0.047836 0
0 0.0433782 0
0 0.0387247 0
0 0.0339219 0
0 0.0290236 0
0 0.024092 0
0 0.0191974 0
0 0.0144194 0
0 0.00984888 0
0 0.00559184 0
0 0.00177804 0
0 0.00500502 0
0 0.0142054 0
0 0.0220219 0
0 0.0288211 0
0 0.0348091 0
0 0.0401081 0
0 0.044795 0
0 0.0489219 0
0 0.0525272 0
0 0.0556414 0
0 0.0582904 0
0 0.0604971 0
0 0.0622821 0
0 0.063664 0
0 0.0646598 0
0 0.0652842 0
0 0.0655505 0
0 0.0654699 0
0 0.0650517 0
0 0.0643042 0
0 0.0632341 0
0 0.0618474 0
0 0.0601501 0
0 0.0581483 0
0 0.0558493 0
0 0.0532621 0
0 0.0503981 0
0 0.047272 0
0 0.0439023 0
0 0.0403122 0
0 0.0365298 0
0 0.0325887 0
0 0.0285284 0
0 0.0243944 0
0 0.0202386 0
0 0.0161194 0
0 0.012103 0
0 0.0082643 0
0 0.00469127 0
0 0.00149154 0
0 0.0042133 0
0 0.011959 0
0 0.0185417 0
0 0.0242704 0
0 0.0293193 0
0 0.033791 0
0 0.0377501 0
0 0.0412398 0
0 0.0442917 0
0 0.0469306 0
0 0.0491775 0
0 0.0510506 0
0 0.0525665 0
0 0.0537402 0
0 0.0545852 0
0 0.0551136 0
0 0.0553361 0
0 0.0552621 0
0 0.0548996 0
0 0.0542557 0
0 0.0533365 0
0 0.0521477 0
0 0.0506949 0
0 0.0489842 0
0 0.0470226 0
0 0.0448188 0
0 0.0423833 0
0 0.0397296 0
0 0.0368742 0
0 0.0338373 0
0 0.0306432 0
0 0.0273207 0
0 0.0239031 0
0 0.0204287 0
0 0.0169405 0
0 0.0134872 0
0 0.0101233 0
0 0.00691079 0
0 0.00392229 0
0 0.00124695 0
0 0.00353173 0
0 0.0100249 0
0 0.0155446 0
0 0.0203504 0
0 0.0245884 0
0 0.0283447 0
0 0.0316732 0
0 0.0346098 0
0 0.0371803 0
0 0.0394049 0
0 0.0413006 0
0 0.042882 0
0 0.0441623 0
0 0.0451535 0
0 0.0458665 0
0 0.0463111 0
0 0.0464961 0
0 0.0464292 0
0 0.0461172 0
0 0.0455661 0
0 0.0447816 0
0 0.0437687 0
0 0.0425328 0
0 0.0410796 0
0 0.0394158 0
0 0.0375492 0
0 0.0354897 0
0 0.033249 0
0 0.0308419 0
0 0.0282857 0
0 0.0256015 0
0 0.0228134 0
0 0.0199496 0
0 0.017042 0
0 0.0141263 0
0 0.0112427 0
0 0.00843617 0
0 0.0057578 0
0 0.00326742 0
0 0.00103868 0
0 0.00294733 0
0 0.00836645 0
0 0.0129741 0
0 0.0169874 0
0 0.0205284 0
0 0.023669 0
0 0.0264538 0
0 0.0289127 0
0 0.0310668 0
0 0.0329325 0
0 0.0345235 0
0 0.0358513 0
0 0.0369267 0
0 0.0377592 0
0 0.0383575 0
0 0.0387295 0
0 0.0388824 0
0 0.0388227 0
0 0.0385559 0
0 0.0380874 0
0 0.037422 0
0 0.0365644 0
0 0.0355194 0
0 0.0342923 0
0 0.0328891 0
0 0.0313172 0
0 0.0295851 0
0 0.0277034 0
0 0.0256847 0
0 0.0235441 0
0 0.0212992 0
0 0.0189707 0
0 0.0165819 0
0 0.0141593 0
0 0.0117326 0
0 0.00933473 0
0 0.00700271 0
0 0.00477853 0
0 0.00271136 0
0 0.000861858 0
0 0.00244825 0
0 0.00695001 0
0 0.0107784 0
0 0.0141141 0
0 0.0170585 0
0 0.0196715 0
0 0.02199 0
0 0.0240385 0
0 0.0258343 0
0 0.0273908 0
0 0.0287187 0
0 0.0298276 0
0 0.0307259 0
0 0.0314211 0
0 0.0319203 0
0 0.0322299 0
0 0.0323557 0
0 0.0323029 0
0 0.0320764 0
0 0.0316807 0
0 0.0311199 0
0 0.0303981 0
0 0.0295199 0
0 0.0284898 0
0 0.0273135 0
0 0.0259972 0
0 0.0245486 0
0 0.0229769 0
0 0.021293 0
0 0.0195096 0
0 0.0176416 0
0 0.0157063 0
0 0.0137232 0
0 0.011714 0
0 0.00970325 0
0 0.00771802 0
0 0.0057886 0
0 0.00394937 0
0 0.00224064 0
0 0.00071219 0
0 0.00202371 0
0 0.00574502 0
0 0.00891029 0
0 0.0116689 0
0 0.014105 0
0 0.0162679 0
0 0.0181881 0
0 0.0198857 0
0 0.0213748 0
0 0.0226661 0
0 0.0237684 0
0 0.0246892 0
0 0.0254352 0
0 0.0260125 0
0 0.0264267 0
0 0.0266829 0
0 0.0267858 0
0 0.0267397 0
0 0.0265488 0
0 0.0262166 0
0 0.025747 0
0 0.0251435 0
0 0.0244099 0
0 0.0235505 0
0 0.0225701 0
0 0.0214744 0
0 0.0202698 0
0 0.0189644 0
0 0.0175674 0
0 0.0160895 0
0 0.0145433 0
0 0.0129431 0
0 0.0113048 0
0 0.00964662 0
0 0.00798847 0
0 0.00635252 0
0 0.00476352 0
0 0.00324951 0
0 0.0018434 0
0 0.000585897 0
0 0.0016639 0
0 0.00472373 0
0 0.00732674 0
0 0.00959592 0
0 0.0116005 0
0 0.013381 0
0 0.0149625 0
0 0.0163613 0
0 0.017589 0
0 0.0186542 0
0 0.0195638 0
0 0.0203239 0
0 0.0209398 0
0 0.0214163 0
0 0.0217578 0
0 0.0219685 0
0 0.0220523 0
0 0.0220125 0
0 0.0218527 0
0 0.0215758 0
0 0.0211851 0
0 0.0206837 0
0 0.0200749 0
0 0.0193625 0
0 0.0185505 0
0 0.0176439 0
0 0.0166484 0
0 0.0155706 0
0 0.0144183 0
0 0.0132006 0
0 0.0119278 0
0 0.0106118 0
0 0.00926571 0
0 0.00790436 0
0 0.00654402 0
0 0.00520277 0
0 0.00390068 0
0 0.00266056 0
0 0.00150916 0
0 0.000479643 0
0 0.00135997 0
0 0.00386097 0
0 0.00598885 0
0 0.00784426 0
0 0.00948378 0
0 0.0109406 0
0 0.0122351 0
0 0.0133807 0
0 0.0143865 0
0 0.0152595 0
0 0.0160054 0
0 0.0166287 0
0 0.0171339 0
0 0.0175246 0
0 0.0178044 0
0 0.0179766 0
0 0.0180443 0
0 0.0180104 0
0 0.0178776 0
0 0.0176485 0
0 0.0173258 0
0 0.0169122 0
0 0.0164105 0
0 0.0158238 0
0 0.0151559 0
0 0.0144108 0
0 0.0135934 0
0 0.0127093 0
0 0.0117649 0
0 0.0107678 0
0 0.00972652 0
0 0.00865078 0
0 0.00755136 0
0 0.00644025 0
0 0.00533069 0
0 0.00423731 0
0 0.00317635 0
0 0.00216626 0
0 0.00122868 0
0 0.000390486 0
0 0.00110388 0
0 0.00313399 0
0 0.00486143 0
0 0.00636796 0
0 0.00769955 0
0 0.00888313 0
0 0.00993525 0
0 0.0108666 0
0 0.0116847 0
0 0.0123951 0
0 0.0130021 0
0 0.0135096 0
0 0.0139208 0
0 0.0142388 0
0 0.0144664 0
0 0.0146061 0
0 0.0146605 0
0 0.0146319 0
0 0.0145225 0
0 0.0143345 0
0 0.0140701 0
0 0.0137315 0
0 0.0133213 0
0 0.0128421 0
0 0.0122968 0
0 0.0116891 0
0 0.0110229 0
0 0.010303 0
0 0.00953461 0
0 0.00872402 0
0 0.0078782 0
0 0.00700502 0
0 0.00611325 0
0 0.00521257 0
0 0.00431366 0
0 0.0034283 0
0 0.00256956 0
0 0.00175225 0
0 0.000993789 0
0 0.000315824 0
0 0.000888401 0
0 0.00252229 0
0 0.00391271 0
0 0.00512553 0
0 0.00619775 0
0 0.00715107 0
0 0.00799875 0
0 0.00874942 0
0 0.009409 0
0 0.0099819 0
0 0.0104716 0
0 0.010881 0
0 0.0112128 0
0 0.0114693 0
0 0.0116527 0
0 0.0117651 0
0 0.0118085 0
0 0.0117846 0
0 0.0116954 0
0 0.0115426 0
0 0.011328 0
0 0.0110536 0
0 0.0107212 0
0 0.0103333 0
0 0.00989233 0
0 0.00940116 0
0 0.00886314 0
0 0.00828211 0
0 0.00766248 0
0 0.00700926 0
0 0.00632813 0
0 0.00562543 0
0 0.00490821 0
0 0.00418424 0
0 0.00346207 0
0 0.00275108 0
0 0.00206172 0
0 0.00140581 0
0 0.000797261 0
0 0.00025336 0
0 0.000707028 0
0 0.00200738 0
0 0.00311406 0
0 0.00407952 0
0 0.00493323 0
0 0.00569243 0
0 0.00636771 0
0 0.00696586 0
0 0.00749159 0
0 0.00794834 0
0 0.00833884 0
0 0.00866539 0
0 0.00892999 0
0 0.00913451 0
0 0.00928064 0
0 0.00937002 0
0 0.00940418 0
0 0.00938461 0
0 0.00931278 0
0 0.00919011 0
0 0.00901808 0
0 0.00879825 0
0 0.00853228 0
0 0.00822201 0
0 0.00786952 0
0 0.00747717 0
0 0.00704769 0
0 0.00658418 0
0 0.0060902 0
0 0.00556977 0
0 0.00502744 0
0 0.00446825 0
0 0.00389782 0
0 0.00332231 0
0 0.00274848 0
0 0.00218376 0
0 0.00163638 0
0 0.0011157 0
0 0.0006327 0
0 0.000201059 0
0 0.000553884 0
0 0.0015726 0
0 0.00243965 0
0 0.00319615 0
0 0.0038652 0
0 0.00446031 0
0 0.00498974 0
0 0.00545883 0
0 0.00587122 0
0 0.00622957 0
0 0.00653601 0
0 0.00679227 0
0 0.00699993 0
0 0.00716039 0
0 0.00727497 0
0 0.00734492 0
0 0.00737145 0
0 0.00735572 0
0 0.00729886 0
0 0.00720204 0
0 0.00706642 0
0 0.00689324 0
0 0.00668386 0
0 0.00643975 0
0 0.00616258 0
0 0.00585424 0
0 0.00551692 0
0 0.00515307 0
0 0.00476552 0
0 0.00435745 0
0 0.00393243 0
0 0.00349442 0
0 0.00304781 0
0 0.00259741 0
0 0.0021485 0
0 0.00170686 0
0 0.00127891 0
0 0.000871914 0
0 0.000494429 0
0 0.000157116 0
0 0.000423658 0
0 0.00120287 0
0 0.00186612 0
0 0.00244486 0
0 0.00295676 0
0 0.00341217 0
0 0.0038174 0
0 0.00417651 0
0 0.00449227 0
0 0.00476672 0
0 0.00500142 0
0 0.00519773 0
0 0.00535679 0
0 0.00547967 0
0 0.00556736 0
0 0.00562082 0
0 0.00564095 0
0 0.00562865 0
0 0.00558479 0
0 0.00551025 0
0 0.00540596 0
0 0.00527288 0
0 0.00511207 0
0 0.00492468 0
0 0.00471201 0
0 0.00447555 0
0 0.00421698 0
0 0.00393821 0
0 0.00364143 0
0 0.00332907 0
0 0.00300388 0
0 0.00266889 0
0 0.00232747 0
0 0.00198327 0
0 0.00164032 0
0 0.00130302 0
0 0.000976249 0
0 0.000665533 0
0 0.000377384 0
0 0.00011992 0
0 0.000311517 0
0 0.000884485 0
0 0.0013722 0
0 0.00179781 0
0 0.00217431 0
0 0.00250931 0
0 0.00280743 0
0 0.00307167 0
0 0.00330405 0
0 0.00350605 0
0 0.00367882 0
0 0.00382333 0
0 0.00394042 0
0 0.00403085 0
0 0.00409537 0
0 0.00413464 0
0 0.00414935 0
0 0.00414014 0
0 0.00410766 0
0 0.00405257 0
0 0.00397555 0
0 0.00387732 0