# vtk DataFile Version 2.0
Presion
ASCII

DATASET STRUCTURED_GRID
DIMENSIONS   40   40   20

POINTS   32000   double
0.0125   0.0125   0.025
0.0375   0.0125   0.025
0.0625   0.0125   0.025
0.0875   0.0125   0.025
0.1125   0.0125   0.025
0.1375   0.0125   0.025
0.1625   0.0125   0.025
0.1875   0.0125   0.025
0.2125   0.0125   0.025
0.2375   0.0125   0.025
0.2625   0.0125   0.025
0.2875   0.0125   0.025
0.3125   0.0125   0.025
0.3375   0.0125   0.025
0.3625   0.0125   0.025
0.3875   0.0125   0.025
0.4125   0.0125   0.025
0.4375   0.0125   0.025
0.4625   0.0125   0.025
0.4875   0.0125   0.025
0.5125   0.0125   0.025
0.5375   0.0125   0.025
0.5625   0.0125   0.025
0.5875   0.0125   0.025
0.6125   0.0125   0.025
0.6375   0.0125   0.025
0.6625   0.0125   0.025
0.6875   0.0125   0.025
0.7125   0.0125   0.025
0.7375   0.0125   0.025
0.7625   0.0125   0.025
0.7875   0.0125   0.025
0.8125   0.0125   0.025
0.8375   0.0125   0.025
0.8625   0.0125   0.025
0.8875   0.0125   0.025
0.9125   0.0125   0.025
0.9375   0.0125   0.025
0.9625   0.0125   0.025
0.9875   0.0125   0.025
0.0125   0.0375   0.025
0.0375   0.0375   0.025
0.0625   0.0375   0.025
0.0875   0.0375   0.025
0.1125   0.0375   0.025
0.1375   0.0375   0.025
0.1625   0.0375   0.025
0.1875   0.0375   0.025
0.2125   0.0375   0.025
0.2375   0.0375   0.025
0.2625   0.0375   0.025
0.2875   0.0375   0.025
0.3125   0.0375   0.025
0.3375   0.0375   0.025
0.3625   0.0375   0.025
0.3875   0.0375   0.025
0.4125   0.0375   0.025
0.4375   0.0375   0.025
0.4625   0.0375   0.025
0.4875   0.0375   0.025
0.5125   0.0375   0.025
0.5375   0.0375   0.025
0.5625   0.0375   0.025
0.5875   0.0375   0.025
0.6125   0.0375   0.025
0.6375   0.0375   0.025
0.6625   0.0375   0.025
0.6875   0.0375   0.025
0.7125   0.0375   0.025
0.7375   0.0375   0.025
0.7625   0.0375   0.025
0.7875   0.0375   0.025
0.8125   0.0375   0.025
0.8375   0.0375   0.025
0.8625   0.0375   0.025
0.8875   0.0375   0.025
0.9125   0.0375   0.025
0.9375   0.0375   0.025
0.9625   0.0375   0.025
0.9875   0.0375   0.025
0.0125   0.0625   0.025
0.0375   0.0625   0.025
0.0625   0.0625   0.025
0.0875   0.0625   0.025
0.1125   0.0625   0.025
0.1375   0.0625   0.025
0.1625   0.0625   0.025
0.1875   0.0625   0.025
0.2125   0.0625   0.025
0.2375   0.0625   0.025
0.2625   0.0625   0.025
0.2875   0.0625   0.025
0.3125   0.0625   0.025
0.3375   0.0625   0.025
0.3625   0.0625   0.025
0.3875   0.0625   0.025
0.4125   0.0625   0.025
0.4375   0.0625   0.025
0.4625   0.0625   0.025
0.4875   0.0625   0.025
0.5125   0.0625   0.025
0.5375   0.0625   0.025
0.5625   0.0625   0.025
0.5875   0.0625   0.025
0.6125   0.0625   0.025
0.6375   0.0625   0.025
0.6625   0.0625   0.025
0.6875   0.0625   0.025
0.7125   0.0625   0.025
0.7375   0.0625   0.025
0.7625   0.0625   0.025
0.7875   0.0625   0.025
0.8125   0.0625   0.025
0.8375   0.0625   0.025
0.8625   0.0625   0.025
0.8875   0.0625   0.025
0.9125   0.0625   0.025
0.9375   0.0625   0.025
0.9625   0.0625   0.025
0.9875   0.0625   0.025
0.0125   0.0875   0.025
0.0375   0.0875   0.025
0.0625   0.0875   0.025
0.0875   0.0875   0.025
0.1125   0.0875   0.025
0.1375   0.0875   0.025
0.1625   0.0875   0.025
0.1875   0.0875   0.025
0.2125   0.0875   0.025
0.2375   0.0875   0.025
0.2625   0.0875   0.025
0.2875   0.0875   0.025
0.3125   0.0875   0.025
0.3375   0.0875   0.025
0.3625   0.0875   0.025
0.3875   0.0875   0.025
0.4125   0.0875   0.025
0.4375   0.0875   0.025
0.4625   0.0875   0.025
0.4875   0.0875   0.025
0.5125   0.0875   0.025
0.5375   0.0875   0.025
0.5625   0.0875   0.025
0.5875   0.0875   0.025
0.6125   0.0875   0.025
0.6375   0.0875   0.025
0.6625   0.0875   0.025
0.6875   0.0875   0.025
0.7125   0.0875   0.025
0.7375   0.0875   0.025
0.7625   0.0875   0.025
0.7875   0.0875   0.025
0.8125   0.0875   0.025
0.8375   0.0875   0.025
0.8625   0.0875   0.025
0.8875   0.0875   0.025
0.9125   0.0875   0.025
0.9375   0.0875   0.025
0.9625   0.0875   0.025
0.9875   0.0875   0.025
0.0125   0.1125   0.025
0.0375   0.1125   0.025
0.0625   0.1125   0.025
0.0875   0.1125   0.025
0.1125   0.1125   0.025
0.1375   0.1125   0.025
0.1625   0.1125   0.025
0.1875   0.1125   0.025
0.2125   0.1125   0.025
0.2375   0.1125   0.025
0.2625   0.1125   0.025
0.2875   0.1125   0.025
0.3125   0.1125   0.025
0.3375   0.1125   0.025
0.3625   0.1125   0.025
0.3875   0.1125   0.025
0.4125   0.1125   0.025
0.4375   0.1125   0.025
0.4625   0.1125   0.025
0.4875   0.1125   0.025
0.5125   0.1125   0.025
0.5375   0.1125   0.025
0.5625   0.1125   0.025
0.5875   0.1125   0.025
0.6125   0.1125   0.025
0.6375   0.1125   0.025
0.6625   0.1125   0.025
0.6875   0.1125   0.025
0.7125   0.1125   0.025
0.7375   0.1125   0.025
0.7625   0.1125   0.025
0.7875   0.1125   0.025
0.8125   0.1125   0.025
0.8375   0.1125   0.025
0.8625   0.1125   0.025
0.8875   0.1125   0.025
0.9125   0.1125   0.025
0.9375   0.1125   0.025
0.9625   0.1125   0.025
0.9875   0.1125   0.025
0.0125   0.1375   0.025
0.0375   0.1375   0.025
0.0625   0.1375   0.025
0.0875   0.1375   0.025
0.1125   0.1375   0.025
0.1375   0.1375   0.025
0.1625   0.1375   0.025
0.1875   0.1375   0.025
0.2125   0.1375   0.025
0.2375   0.1375   0.025
0.2625   0.1375   0.025
0.2875   0.1375   0.025
0.3125   0.1375   0.025
0.3375   0.1375   0.025
0.3625   0.1375   0.025
0.3875   0.1375   0.025
0.4125   0.1375   0.025
0.4375   0.1375   0.025
0.4625   0.1375   0.025
0.4875   0.1375   0.025
0.5125   0.1375   0.025
0.5375   0.1375   0.025
0.5625   0.1375   0.025
0.5875   0.1375   0.025
0.6125   0.1375   0.025
0.6375   0.1375   0.025
0.6625   0.1375   0.025
0.6875   0.1375   0.025
0.7125   0.1375   0.025
0.7375   0.1375   0.025
0.7625   0.1375   0.025
0.7875   0.1375   0.025
0.8125   0.1375   0.025
0.8375   0.1375   0.025
0.8625   0.1375   0.025
0.8875   0.1375   0.025
0.9125   0.1375   0.025
0.9375   0.1375   0.025
0.9625   0.1375   0.025
0.9875   0.1375   0.025
0.0125   0.1625   0.025
0.0375   0.1625   0.025
0.0625   0.1625   0.025
0.0875   0.1625   0.025
0.1125   0.1625   0.025
0.1375   0.1625   0.025
0.1625   0.1625   0.025
0.1875   0.1625   0.025
0.2125   0.1625   0.025
0.2375   0.1625   0.025
0.2625   0.1625   0.025
0.2875   0.1625   0.025
0.3125   0.1625   0.025
0.3375   0.1625   0.025
0.3625   0.1625   0.025
0.3875   0.1625   0.025
0.4125   0.1625   0.025
0.4375   0.1625   0.025
0.4625   0.1625   0.025
0.4875   0.1625   0.025
0.5125   0.1625   0.025
0.5375   0.1625   0.025
0.5625   0.1625   0.025
0.5875   0.1625   0.025
0.6125   0.1625   0.025
0.6375   0.1625   0.025
0.6625   0.1625   0.025
0.6875   0.1625   0.025
0.7125   0.1625   0.025
0.7375   0.1625   0.025
0.7625   0.1625   0.025
0.7875   0.1625   0.025
0.8125   0.1625   0.025
0.8375   0.1625   0.025
0.8625   0.1625   0.025
0.8875   0.1625   0.025
0.9125   0.1625   0.025
0.9375   0.1625   0.025
0.9625   0.1625   0.025
0.9875   0.1625   0.025
0.0125   0.1875   0.025
0.0375   0.1875   0.025
0.0625   0.1875   0.025
0.0875   0.1875   0.025
0.1125   0.1875   0.025
0.1375   0.1875   0.025
0.1625   0.1875   0.025
0.1875   0.1875   0.025
0.2125   0.1875   0.025
0.2375   0.1875   0.025
0.2625   0.1875   0.025
0.2875   0.1875   0.025
0.3125   0.1875   0.025
0.3375   0.1875   0.025
0.3625   0.1875   0.025
0.3875   0.1875   0.025
0.4125   0.1875   0.025
0.4375   0.1875   0.025
0.4625   0.1875   0.025
0.4875   0.1875   0.025
0.5125   0.1875   0.025
0.5375   0.1875   0.025
0.5625   0.1875   0.025
0.5875   0.1875   0.025
0.6125   0.1875   0.025
0.6375   0.1875   0.025
0.6625   0.1875   0.025
0.6875   0.1875   0.025
0.7125   0.1875   0.025
0.7375   0.1875   0.025
0.7625   0.1875   0.025
0.7875   0.1875   0.025
0.8125   0.1875   0.025
0.8375   0.1875   0.025
0.8625   0.1875   0.025
0.8875   0.1875   0.025
0.9125   0.1875   0.025
0.9375   0.1875   0.025
0.9625   0.1875   0.025
0.9875   0.1875   0.025
0.0125   0.2125   0.025
0.0375   0.2125   0.025
0.0625   0.2125   0.025
0.0875   0.2125   0.025
0.1125   0.2125   0.025
0.1375   0.2125   0.025
0.1625   0.2125   0.025
0.1875   0.2125   0.025
0.2125   0.2125   0.025
0.2375   0.2125   0.025
0.2625   0.2125   0.025
0.2875   0.2125   0.025
0.3125   0.2125   0.025
0.3375   0.2125   0.025
0.3625   0.2125   0.025
0.3875   0.2125   0.025
0.4125   0.2125   0.025
0.4375   0.2125   0.025
0.4625   0.2125   0.025
0.4875   0.2125   0.025
0.5125   0.2125   0.025
0.5375   0.2125   0.025
0.5625   0.2125   0.025
0.5875   0.2125   0.025
0.6125   0.2125   0.025
0.6375   0.2125   0.025
0.6625   0.2125   0.025
0.6875   0.2125   0.025
0.7125   0.2125   0.025
0.7375   0.2125   0.025
0.7625   0.2125   0.025
0.7875   0.2125   0.025
0.8125   0.2125   0.025
0.8375   0.2125   0.025
0.8625   0.2125   0.025
0.8875   0.2125   0.025
0.9125   0.2125   0.025
0.9375   0.2125   0.025
0.9625   0.2125   0.025
0.9875   0.2125   0.025
0.0125   0.2375   0.025
0.0375   0.2375   0.025
0.0625   0.2375   0.025
0.0875   0.2375   0.025
0.1125   0.2375   0.025
0.1375   0.2375   0.025
0.1625   0.2375   0.025
0.1875   0.2375   0.025
0.2125   0.2375   0.025
0.2375   0.2375   0.025
0.2625   0.2375   0.025
0.2875   0.2375   0.025
0.3125   0.2375   0.025
0.3375   0.2375   0.025
0.3625   0.2375   0.025
0.3875   0.2375   0.025
0.4125   0.2375   0.025
0.4375   0.2375   0.025
0.4625   0.2375   0.025
0.4875   0.2375   0.025
0.5125   0.2375   0.025
0.5375   0.2375   0.025
0.5625   0.2375   0.025
0.5875   0.2375   0.025
0.6125   0.2375   0.025
0.6375   0.2375   0.025
0.6625   0.2375   0.025
0.6875   0.2375   0.025
0.7125   0.2375   0.025
0.7375   0.2375   0.025
0.7625   0.2375   0.025
0.7875   0.2375   0.025
0.8125   0.2375   0.025
0.8375   0.2375   0.025
0.8625   0.2375   0.025
0.8875   0.2375   0.025
0.9125   0.2375   0.025
0.9375   0.2375   0.025
0.9625   0.2375   0.025
0.9875   0.2375   0.025
0.0125   0.2625   0.025
0.0375   0.2625   0.025
0.0625   0.2625   0.025
0.0875   0.2625   0.025
0.1125   0.2625   0.025
0.1375   0.2625   0.025
0.1625   0.2625   0.025
0.1875   0.2625   0.025
0.2125   0.2625   0.025
0.2375   0.2625   0.025
0.2625   0.2625   0.025
[...]
POINT_DATA   32000
SCALARS Presion double
LOOKUP_TABLE   Presion

0 0 0 0 0 0 0 0 0 0 0 0 0 0 0 0 0 0 0 0 0 0 0 0 0 0 0 0 0 0 0 0 0 0 0 0 0 0 0 0 -0.00201246 -0.00239027 -0.00303158 -0.00376526 -0.00451248 -0.00522218 -0.00585693 -0.00638895 -0.0067982 -0.00707084 -0.00719797 -0.00717468 -0.00699933 -0.00667331 -0.00620082 -0.00558902 -0.00484816 -0.00399168 -0.00303629 -0.0020019 -0.000911282 0.000210297 0.00133577 0.00243702 0.00348581 0.00445474 0.00531822 0.00605349 0.00664151 0.00706785 0.00732341 0.00740508 0.00731614 0.00706641 0.00667198 0.0061545 0.0055402 0.00486143 0.00417396 0.00366335 -0.00218137 -0.00240107 -0.00290369 -0.00354431 -0.00423164 -0.00490495 -0.0055217 -0.00605152 -0.00647274 -0.00677025 -0.00693398 -0.0069578 -0.00683885 -0.00657713 -0.00617541 -0.00563918 -0.00497683 -0.00419971 -0.00332221 -0.0023617 -0.00133836 -0.000274862 0.000804188 0.00187283 0.0029045 0.00387294 0.00475304 0.00552181 0.00615934 0.00664973 0.00698198 0.00715077 0.00715723 0.00700946 0.00672312 0.0063222 0.00584107 0.00533106 0.0048806 0.00467243 -0.00186245 -0.0021485 -0.002646 -0.00326475 -0.00393178 -0.00459247 -0.0052068 -0.00574566 -0.00618802 -0.00651887 -0.00672772 -0.00680761 -0.00675444 -0.00656664 -0.00624505 -0.00579297 -0.00521627 -0.00452362 -0.00372653 -0.00283948 -0.00187981 -0.000867589 0.000174775 0.00122299 0.00225152 0.00323435 0.00414589 0.00496193 0.00566073 0.00622407 0.00663836 0.00689565 0.00699458 0.0069413 0.00675028 0.00644557 0.00606304 0.00565537 0.00530302 0.00513322 -0.00127273 -0.00170499 -0.00227598 -0.00293048 -0.00361657 -0.00429162 -0.00492269 -0.00548499 -0.00596009 -0.00633432 -0.00659756 -0.0067424 -0.00676361 -0.00665792 -0.00642397 -0.0060625 -0.00557649 -0.00497148 -0.00425581 -0.00344081 -0.00254089 -0.00157359 -0.000559294 0.000478996 0.00151625 0.00252611 0.00348177 0.00435706 0.00512761 0.00577213 0.00627372 0.00662112 0.00680984 0.00684325 0.00673353 0.00650265 0.00618401 0.00582501 0.00549152 0.00527151 -0.000553201 -0.00115463 -0.00183787 -0.00256562 -0.00330183 -0.00401571 -0.00468271 -0.00528383 -0.00580439 -0.00623296 -0.00656033 -0.00677897 -0.00688267 -0.00686644 -0.00672661 -0.00646112 -0.00606984 -0.00555498 -0.00492149 -0.00417741 -0.00333416 -0.00240672 -0.00141363 -0.000376757 0.000679065 0.00172673 0.00273775 0.00368339 0.00453601 0.00527051 0.0058659 0.00630677 0.00658466 0.00669927 0.00665943 0.0064839 0.00620223 0.00585593 0.0054995 0.00519962 0.000198721 -0.000572471 -0.00138329 -0.00220511 -0.00301248 -0.00378434 -0.00450403 -0.00515843 -0.00573703 -0.00623095 -0.00663222 -0.00693342 -0.00712745 -0.00720764 -0.007168 -0.00700359 -0.00671106 -0.00628916 -0.00573931 -0.00506616 -0.00427803 -0.00338732 -0.00241061 -0.00136873 -0.000286375 0.00080841 0.00188515 0.00291211 0.0038578 0.00469258 0.00539053 0.00593113 0.00630098 0.00649518 0.00651839 0.00638556 0.00612248 0.00576601 0.00536399 0.00497337 0.000910347 -2.2316e-05 -0.000963186 -0.00188812 -0.0027789 -0.00362201 -0.00440745 -0.00512747 -0.00577547 -0.0063451 -0.00682968 -0.00722194 -0.00751399 -0.00769753 -0.00776426 -0.00770639 -0.00751729 -0.00719218 -0.00672886 -0.00612843 -0.00539596 -0.00454106 -0.00357822 -0.002527 -0.00141188 -0.000261845 0.000890513 0.00201016 0.00306121 0.00400877 0.00482101 0.0054713 0.00594017 0.00621709 0.00630175 0.006205 0.00594919 0.00556822 0.00510698 0.00461962 0.00152365 0.000441387 -0.000624999 -0.00165441 -0.00263403 -0.00355627 -0.00441663 -0.00521189 -0.00593884 -0.00659338 -0.00716994 -0.0076614 -0.00805907 -0.00835309 -0.00853288 -0.00858785 -0.00850806 -0.00828516 -0.0079132 -0.00738955 -0.00671575 -0.0058983 -0.00494924 -0.00388653 -0.00273413 -0.00152175 -0.000284083 0.000940321 0.00211072 0.00318619 0.00412804 0.00490224 0.00548202 0.00584999 0.00599999 0.00593829 0.00568412 0.00526972 0.0047397 0.00414961 0.0019899 0.000771438 -0.000412077 -0.00154241 -0.00261133 -0.00361619 -0.00455702 -0.00543435 -0.00624775 -0.00699495 -0.00767128 -0.00826961 -0.00878047 -0.00919245 -0.00949278 -0.00966805 -0.00970507 -0.00959179 -0.00931837 -0.00887817 -0.00826884 -0.00749331 -0.00656063 -0.00548662 -0.00429422 -0.00301349 -0.00168102 -0.000338957 0.000966688 0.00218821 0.0032789 0.00419602 0.0049039 0.00537687 0.0056017 0.00557935 0.00532593 0.00487287 0.00426626 0.00356567 0.00226676 0.000926292 -0.000363739 -0.0015883 -0.00274348 -0.00383104 -0.00485484 -0.00581849 -0.00672381 -0.00756993 -0.00835282 -0.00906523 -0.00969685 -0.0102347 -0.010664 -0.0109685 -0.0111316 -0.0111376 -0.0109726 -0.0106254 -0.0100894 -0.00936339 -0.00845266 -0.00737018 -0.00613715 -0.00478338 -0.00334699 -0.00187363 -0.000414893 0.000973958 0.00223701 0.0033212 0.00418021 0.00477822 0.0050933 0.00511999 0.00487083 0.00437674 0.00368647 0.00286522 0.00231677 0.000869052 -0.000515503 -0.00182555 -0.00306155 -0.00422933 -0.00533612 -0.00638813 -0.00738897 -0.00833883 -0.0092341 -0.0100673 -0.0108272 -0.0114995 -0.0120671 -0.0125111 -0.0128117 -0.0129491 -0.012905 -0.0126635 -0.0122131 -0.0115476 -0.0106677 -0.00958256 -0.00831081 -0.0068811 -0.00533247 -0.00371378 -0.0020824 -0.000501815 0.000961566 0.00224259 0.00328211 0.00403186 0.0044591 0.00455028 0.00431336 0.00377862 0.00299798 0.00204343 0.0021066 0.000566928 -0.000899231 -0.0022847 -0.00359438 -0.00483799 -0.00602584 -0.00716637 -0.00826465 -0.00932173 -0.0103342 -0.0112943 -0.01219 -0.0130055 -0.0137218 -0.0143171 -0.0147683 -0.0150516 -0.0151439 -0.0150241 -0.0146749 -0.0140845 -0.013248 -0.0121697 -0.0108643 -0.00935821 -0.00769051 -0.00591273 -0.00408791 -0.00228837 -0.000592263 0.000921201 0.00217751 0.00311314 0.00368173 0.00385928 0.00364756 0.00307549 0.0021983 0.00109538 0.00160683 -8.95706e-06 -0.00154314 -0.00299306 -0.00436809 -0.00568173 -0.00694713 -0.0081747 -0.00937083 -0.0105372 -0.0116707 -0.0127632 -0.0138019 -0.0147697 -0.0156456 -0.0164052 -0.0170219 -0.0174678 -0.0177145 -0.0177354 -0.0175067 -0.0170099 -0.0162335 -0.0151754 -0.0138452 -0.0122656 -0.0104745 -0.00852511 -0.00648574 -0.00443788 -0.00247256 -0.000685173 0.000831539 0.00199534 0.00274269 0.00303588 0.00286813 0.00226562 0.00128654 1.80421e-05 0.000792078 -0.000883517 -0.00247169 -0.00397448 -0.00540568 -0.00678238 -0.00812043 -0.00943208 -0.0107249 -0.0120013 -0.0132583 -0.0144877 -0.015676 -0.016805 -0.0178517 -0.0187893 -0.0195876 -0.0202143 -0.0206358 -0.0208191 -0.0207335 -0.0203526 -0.0196572 -0.0186373 -0.0172957 -0.0156499 -0.0137347 -0.0116037 -0.00932975 -0.0070032 -0.00472899 -0.00262069 -0.000792489 0.000650578 0.00162327 0.00206995 0.00197182 0.0013502 0.000265398 -0.0011877 -0.000358742 -0.0020775 -0.00370538 -0.00524907 -0.00672656 -0.00815833 -0.00956276 -0.0109539 -0.0123405 -0.0137259 -0.0151073 -0.0164767 -0.0178201 -0.0191182 -0.0203466 -0.0214758 -0.0224723 -0.0232991 -0.0239173 -0.0242869 -0.0243696 -0.0241304 -0.0235409 -0.022582 -0.0212476 -0.0195481 -0.0175132 -0.015195 -0.0126691 -0.0100344 -0.00740985 -0.00492917 -0.00273132 -0.000948794 0.000305957 0.000953773 0.000959147 0.000335356 -0.000856697 -0.00251473 -0.00186197 -0.0036072 -0.00526052 -0.0068329 -0.00834618 -0.00982394 -0.0112869 -0.0127511 -0.0142266 -0.0157176 -0.0172222 -0.0187325 -0.0202346 -0.0217083 -0.0231277 -0.0244611 -0.0256717 -0.0267179 -0.0275549 -0.0281359 -0.028414 -0.0283449 -0.0278899 -0.0270191 -0.0257161 -0.0239814 -0.0218376 -0.0193326 -0.0165426 -0.0135733 -0.0105577 -0.00765056 -0.00501893 -0.00282791 -0.00122372 -0.000316111 -0.000163652 -0.000765689 -0.00206313 -0.00394713 -0.0037288 -0.00548421 -0.00714902 -0.00873784 -0.0102757 -0.0117891 -0.0133009 -0.0148292 -0.0163857 -0.0179762 -0.0195996 -0.021249 -0.0229104 -0.0245634 -0.0261809 -0.027729 -0.0291677 -0.0304509 -0.031528 -0.0323448 -0.0328458 -0.0329766 -0.0326871 -0.0319355 -0.0306928 -0.028948 -0.0267134 -0.0240297 -0.020971 -0.017647 -0.0142031 -0.0108156 -0.00768233 -0.00500608 -0.00297441 -0.00173639 -0.00138206 -0.00192984 -0.00332615 -0.00545703 -0.00596491 -0.00771522 -0.00937833 -0.0109714 -0.012522 -0.0140587 -0.0156071 -0.0171874 -0.0188136 -0.0204934 -0.0222274 -0.0240098 -0.0258274 -0.0276596 -0.0294784 -0.0312482 -0.0329256 -0.0344604 -0.0357959 -0.0368709 -0.0376207 -0.0379804 -0.0378882 -0.0372889 -0.0361397 -0.0344156 -0.0321158 -0.0292708 -0.0259483 -0.0222587 -0.0183566 -0.0144391 -0.0107357 -0.00749209 -0.00494515 -0.00329371 -0.00267014 -0.00312088 -0.00460337 -0.00700097 -0.00857028 -0.010302 -0.0119516 -0.013537 -0.0150871 -0.0166327 -0.018202 -0.0198181 -0.0214979 -0.0232518 -0.025083 -0.0269874 -0.0289528 -0.0309591 -0.0329775 -0.0349708 -0.0368927 -0.0386887 -0.0402966 -0.0416476 -0.0426683 -0.0432833 -0.0434182 -0.0430042 -0.0419834 -0.040315 -0.0379826 -0.0350027 -0.0314325 -0.0273782 -0.0229995 -0.0185106 -0.0141728 -0.0102779 -0.00712031 -0.00496046 -0.00398664 -0.00428551 -0.00583363 -0.00851553 -0.0115392 -0.0132419 -0.0148678 -0.0164339 -0.0179692 -0.0195061 -0.0210761 -0.0227061 -0.0244175 -0.0262242 -0.0281329 -0.0301418 -0.0322406 -0.0344097 -0.03662 -0.0388325 -0.0409983 -0.0430589 -0.0449464 -0.046585 -0.0478925 -0.0487832 -0.0491704 -0.0489714 -0.0481126 -0.0465361 -0.0442081 -0.0411275 -0.0373369 -0.0329325 -0.0280731 -0.0229848 -0.0179576 -0.0133308 -0.00946299 -0.00668924 -0.0052701 -0.00534856 -0.00693202 -0.00991219 -0.0148608 -0.016528 -0.0181231 -0.0196586 -0.0211624 -0.0226689 -0.0242135 -0.025829 -0.0275423 -0.029373 -0.031332 -0.033421 -0.0356317 -0.0379454 -0.0403327 -0.0427531 -0.0451551 -0.0474758 -0.0496422 -0.0515715 -0.0531734 -0.0543519 -0.0550087 -0.0550473 -0.0543788 -0.0529278 -0.0506413 -0.0474988 -0.0435238 -0.0387971 -0.0334693 -0.0277706 -0.0220138 -0.0165833 -0.0119069 -0.00840616 -0.00643297 -0.00620733 -0.0077841 -0.0110713 -0.0185195 -0.0201509 -0.0217112 -0.0232054 -0.0246582 -0.0261067 -0.0275924 -0.0291562 -0.0308332 -0.0326503 -0.0346243 -0.036761 -0.0390546 -0.0414875 -0.0440299 -0.0466396 -0.049262 -0.0518303 -0.0542659 -0.0564796 -0.0583729 -0.0598406 -0.0607732 -0.0610615 -0.0606017 -0.0593014 -0.0570887 -0.053922 -0.0498029 -0.0447915 -0.0390225 -0.0327214 -0.0262138 -0.0199232 -0.0143465 -0.0100025 -0.00735439 -0.00672483 -0.00823903 -0.0118353 -0.022497 -0.0240999 -0.0256263 -0.0270681 -0.0284463 -0.0298016 -0.0311854 -0.03265 -0.0342421 -0.0359985 -0.0379434 -0.0400875 -0.0424279 -0.0449478 -0.0476165 -0.0503897 -0.0532095 -0.0560045 -0.0586906 -0.0611721 -0.0633429 -0.0650886 -0.0662899 -0.0668258 -0.0665788 -0.0654411 -0.0633225 -0.0601607 -0.0559343 -0.0506787 -0.0445064 -0.0376276 -0.0303691 -0.0231819 -0.0166268 -0.0113254 -0.00787179 -0.00672179 -0.00810156 -0.012 -0.0267737 -0.0283661 -0.0298645 -0.0312424 -0.0325157 -0.0337329 -0.0349596 -0.0362654 -0.0377127 -0.0393511 -0.0412141 -0.0433181 -0.0456628 -0.0482316 -0.0509924 -0.0538978 -0.0568855 -0.0598793 -0.0627889 -0.065512 -0.0679347 -0.0699345 -0.0713825 -0.0721471 -0.0720991 -0.0711168 -0.0690939 -0.0659492 -0.0616388 -0.0561727 -0.049636 -0.0422148 -0.0342233 -0.0261246 -0.0185314 -0.0121664 -0.00777101 -0.0059674 -0.00712256 -0.011306 -0.0313324 -0.032946 -0.0344286 -0.0357283 -0.0368573 -0.0378775 -0.0388772 -0.0399502 -0.0411805 -0.0426339 -0.0443547 -0.0463653 -0.0486674 -0.0512435 -0.0540586 -0.057061 -0.060183 -0.063342 -0.0664415 -0.0693714 -0.0720104 -0.0742276 -0.0758852 -0.0768422 -0.0769586 -0.0761014 -0.0741508 -0.0710096 -0.0666144 -0.0609513 -0.0540769 -0.0461468 -0.03745 -0.0284435 -0.0197725 -0.0122505 -0.00677504 -0.00416825 -0.00498775 -0.00942639 -0.0361631 -0.0378473 -0.0393325 -0.040534 -0.0414649 -0.0422111 -0.0428954 -0.0436458 -0.0445745 -0.0457671 -0.0472798 -0.0491403 -0.0513511 -0.053892 -0.0567231 -0.0597862 -0.0630069 -0.066295 -0.0695459 -0.0726418 -0.0754529 -0.0778397 -0.0796558 -0.0807511 -0.0809763 -0.0801883 -0.078257 -0.0750727 -0.0705571 -0.0646767 -0.0574624 -0.0490378 -0.0396574 -0.0297544 -0.0199821 -0.0112241 -0.00453119 -0.000955244 -0.00130373 -0.00595302 -0.0412706 -0.0430981 -0.0446089 -0.0456805 -0.0463375 -0.0467079 -0.0469662 -0.0472871 -0.047818 -0.0486675 -0.0499037 -0.0515579 -0.0536307 -0.0560964 -0.0589074 -0.0619971 -0.0652818 -0.0686623 -0.0720246 -0.0752416 -0.0781744 -0.0806743 -0.0825858 -0.0837495 -0.0840073 -0.0832073 -0.0812106 -0.0778989 -0.073184 -0.0670193 -0.0594166 -0.0504712 -0.0404011 -0.0296012 -0.0187078 -0.00864391 -0.000596716 0.00413246 0.00441994 -0.00037793 -0.0466874 -0.0487597 -0.0503196 -0.0512071 -0.0514814 -0.0513414 -0.0510364 -0.050803 -0.0508308 -0.0512523 -0.0521455 -0.0535419 -0.055436 -0.0577927 -0.0605536 -0.0636405 -0.0669583 -0.0703964 -0.0738302 -0.077122 -0.0801225 -0.0826728 -0.0846072 -0.0857566 -0.0859532 -0.0850363 -0.0828594 -0.0792976 -0.0742569 -0.0676847 -0.0595827 -0.0500278 -0.0392058 -0.0274685 -0.0154134 -0.0039677 0.00557741 0.0116679 0.012795 0.00793286 -0.0524952 -0.0549496 -0.0565716 -0.05718 -0.0569128 -0.0560836 -0.0550475 -0.0541183 -0.0535323 -0.0534438 -0.0539351 -0.0550319 -0.0567168 -0.0589406 -0.0616297 -0.0646915 -0.0680167 -0.0714817 -0.0749493 -0.0782698 -0.0812824 -0.0838166 -0.0856953 -0.0867382 -0.0867665 -0.0856095 -0.0831117 -0.0791421 -0.0736031 -0.0664408 -0.0576562 -0.0473199 -0.0355988 -0.0228067 -0.00949095 0.00344991 0.0146644 0.0223636 0.0245894 0.0197789 -0.0588635 -0.0618768 -0.0635402 -0.0637023 -0.0626598 -0.0609053 -0.0589364 -0.0571566 -0.0558472 -0.055176 -0.0552202 -0.0559902 -0.0574494 -0.0595284 -0.0621344 -0.0651567 -0.0684698 -0.0719352 -0.0754016 -0.0787062 -0.0816751 -0.0841254 -0.0858668 -0.086706 -0.0864512 -0.0849189 -0.0819424 -0.0773815 -0.0711334 -0.0631444 -0.0534196 -0.0420351 -0.0291555 -0.0150725 -0.00028689 0.0143527 0.0274802 0.0371089 0.0407814 0.0361901 -0.0661191 -0.0699027 -0.0715044 -0.0709276 -0.0687649 -0.0657766 -0.0626381 -0.0598454 -0.057712 -0.0564027 -0.0559737 -0.0564081 -0.057641 -0.0595764 -0.0620979 -0.0650741 -0.0683611 -0.0718039 -0.0752366 -0.0784821 -0.0813528 -0.0836518 -0.0851747 -0.0857131 -0.0850597 -0.083015 -0.0793964 -0.0740492 -0.0668598 -0.0577686 -0.0467834 -0.0339898 -0.0195631 -0.00379389 0.0128456 0.0295586 0.044997 0.0570221 0.0626441 0.0585389 -0.0748761 -0.0796424 -0.0808974 -0.0790744 -0.075286 -0.070666 -0.0660883 -0.0621219 -0.0590823 -0.0571032 -0.0561986 -0.0563088 -0.0573305 -0.0591352 -0.061579 -0.0645076 -0.0677577 -0.0711575 -0.0745255 -0.0776704 -0.0803903 -0.082474 -0.0837017 -0.0838488 -0.0826898 -0.0800057 -0.0755925 -0.0692736 -0.0609135 -0.0504348 -0.037834 -0.0231966 -0.00670792 0.01133 0.0304514 0.0498948 0.068338 0.0835184 0.0918854 0.0887438 -0.0862862 -0.0921345 -0.0923719 -0.0884339 -0.0822876 -0.0755339 -0.0692207 -0.0639323 -0.0599317 -0.0572804 -0.0559227 -0.0557391 -0.0565784 -0.0582739 -0.0606519 -0.0635343 -0.0667383 -0.0700753 -0.0733492 -0.0763545 -0.0788759 -0.0806877 -0.0815548 -0.0812355 -0.0794847 -0.0760605 -0.0707323 -0.0632924 -0.0535703 -0.0414504 -0.0268924 -0.00995127 0.0092049 0.0302785 0.0528082 0.076055 0.0987123 0.118381 0.130874 0.129648 -0.102544 -0.109117 -0.106861 -0.0993436 -0.0897994 -0.0802965 -0.0719378 -0.0652061 -0.0602269 -0.0569351 -0.055173 -0.0547443 -0.0554411 -0.0570553 -0.0593827 -0.0622219 -0.0653718 -0.0686287 -0.071783 -0.0746169 -0.0769026 -0.0784014 -0.0788639 -0.0780316 -0.0756397 -0.0714216 -0.0651161 -0.0564762 -0.0452816 -0.0313552 -0.0145826 0.00506345 0.0274973 0.0524943 0.0796563 0.108312 0.137204 0.163771 0.182983 0.185727 -0.127966 -0.133429 -0.125553 -0.112045 -0.0976729 -0.0847025 -0.0740068 -0.0657675 -0.059851 -0.0559982 -0.0539153 -0.0533133 -0.0539225 -0.0554929 -0.0577915 -0.0605965 -0.0636912 -0.0668597 -0.0698815 -0.072529 -0.0745642 -0.0757379 -0.0757886 -0.0744432 -0.0714186 -0.0664245 -0.0591672 -0.0493558 -0.036709 -0.0209654 -0.00189666 0.0206737 0.046845 0.0766063 0.109793 0.145997 0.184242 0.221984 0.253037 0.264376 -0.171437 -0.169424 -0.149511 -0.126203 -0.105156 -0.0879927 -0.0747997 -0.0651391 -0.0584532 -0.0542123 -0.0519568 -0.0512978 -0.0519053 -0.0534931 -0.0558053 -0.0586049 -0.0616652 -0.0647617 -0.0676673 -0.070148 -0.0719594 -0.0728449 -0.0725348 -0.0707449 -0.0671777 -0.0615226 -0.0534566 -0.0426454 -0.0287434 -0.0113928 0.00977785 0.0351559 0.0651426 0.100144 0.140545 0.186657 0.238466 0.294431 0.347569 0.378273 -0.252255 -0.222579 -0.178097 -0.13942 -0.109788 -0.0881795 -0.0728474 -0.0622604 -0.0552579 -0.0509917 -0.0488382 -0.0483255 -0.0490819 -0.0508007 -0.0532158 -0.0560849 -0.0591781 -0.0622693 -0.0651297 -0.0675234 -0.0692041 -0.0699125 -0.0693748 -0.0673014 -0.0633858 -0.0573036 -0.0487102 -0.0372365 -0.0224818 -0.00399961 0.0187243 0.0463081 0.0795277 0.119393 0.167245 0.224876 0.294628 0.378745 0.473545 0.550038 -0.413203 -0.294628 -0.202845 -0.14311 -0.10534 -0.0811761 -0.065494 -0.0553398 -0.0489837 -0.0453636 -0.0437848 -0.0437604 -0.0449235 -0.0469778 -0.0496679 -0.0527608 -0.0560344 -0.0592683 -0.0622387 -0.0647134 -0.0664492 -0.067189 -0.0666603 -0.0645735 -0.0606203 -0.0544714 -0.045772 -0.0341349 -0.0191272 -0.000247238 0.0231155 0.0517498 0.0867438 0.129698 0.183106 0.251019 0.340222 0.462008 0.630238 0.823264 -0.752806 -0.345308 -0.186285 -0.116537 -0.0812906 -0.0614262 -0.0495011 -0.0422555 -0.0380895 -0.0361235 -0.0358145 -0.0367866 -0.0387513 -0.041467 -0.044717 -0.0482963 -0.0520029 -0.0556324 -0.058973 -0.0618027 -0.0638865 -0.0649745 -0.0648007 -0.0630811 -0.0595125 -0.05377 -0.0455027 -0.0343261 -0.0198089 -0.00144874 0.0213705 0.0494548 0.0839432 0.12659 0.180375 0.250943 0.350255 0.505457 0.774762 1.27438 0 0 0 0 0 0 0 0 0 0 0 0 0 0 0 0 0 0 0 0 0 0 0 0 0 0 0 0 0 0 0 0 0 0 0 0 0 0 0 0 -0.00204799 -0.00241113 -0.002938 -0.0034891 -0.00401357 -0.00448256 -0.00487548 -0.00517704 -0.00537623 -0.00546572 -0.00544123 -0.00530115 -0.00504627 -0.0046797 -0.00420689 -0.00363576 -0.00297682 -0.00224321 -0.00145067 -0.000617353 0.000236532 0.00108926 0.00191825 0.00270088 0.00341534 0.00404155 0.00456205 0.0049628 0.00523394 0.00537033 0.00537197 0.00524423 0.00499782 0.00464853 0.00421662 0.00372603 0.00320365 0.00268082 0.00220589 0.0019101 -0.00235119 -0.00254519 -0.00291924 -0.00335554 -0.00379074 -0.00418793 -0.00452345 -0.00478126 -0.00495028 -0.00502317 -0.00499543 -0.00486504 -0.00463215 -0.00429906 -0.00387028 -0.00335262 -0.0027553 -0.00209003 -0.00137096 -0.000614514 0.00016095 0.000935583 0.00168868 0.00239943 0.00304772 0.00361503 0.00408531 0.00444578 0.00468766 0.00480676 0.00480389 0.00468501 0.0044613 0.00414889 0.00376869 0.00334639 0.00291351 0.00251164 0.00220452 0.00210542 -0.00227623 -0.00249941 -0.00283684 -0.0032209 -0.00360366 -0.0039534 -0.00424908 -0.00447651 -0.00462601 -0.00469103 -0.00466739 -0.00455284 -0.00434689 -0.00405087 -0.00366797 -0.00320348 -0.00266493 -0.0020622 -0.00140757 -0.000715597 -2.92575e-06 0.000712149 0.00141021 0.00207143 0.00267636 0.00320686 0.00364703 0.00398412 0.00420934 0.00431855 0.00431273 0.0041982 0.00398657 0.00369458 0.00334383 0.00296078 0.00257748 0.00223384 0.00198182 0.00188857 -0.00202039 -0.00234081 -0.00270765 -0.00308768 -0.0034518 -0.0037785 -0.0040528 -0.00426443 -0.00440627 -0.00447332 -0.00446209 -0.00437027 -0.00419674 -0.00394166 -0.00360671 -0.00319535 -0.00271309 -0.00216774 -0.00156952 -0.00093112 -0.000267543 0.000404152 0.00106534 0.00169651 0.00227804 0.00279124 0.00321935 0.00354861 0.0037693 0.00387651 0.00387075 0.00375822 0.00355076 0.00326549 0.00292434 0.00255345 0.00218299 0.00184702 0.00158308 0.00142846 -0.00170269 -0.00214048 -0.00256918 -0.00297602 -0.00334727 -0.00367191 -0.0039421 -0.0041524 -0.00429892 -0.0043786 -0.00438884 -0.00432736 -0.00419236 -0.00398271 -0.00369837 -0.00334074 -0.00291312 -0.00242104 -0.00187253 -0.00127838 -0.000652073 -9.63867e-06 0.000630723 0.00124928 0.00182561 0.00233969 0.00277303 0.00311001 0.00333904 0.00345362 0.00345307 0.00334291 0.00313475 0.00284578 0.00249789 0.00211657 0.00172967 0.00136597 0.00105309 0.000813476 -0.00140147 -0.00195885 -0.00246323 -0.00291447 -0.00331048 -0.00364946 -0.00393043 -0.00415287 -0.00431618 -0.00441933 -0.00446061 -0.00443774 -0.00434811 -0.00418919 -0.00395903 -0.0