# vtk DataFile Version 2.0
Velocidades
ASCII

DATASET STRUCTURED_GRID
DIMENSIONS   40   40   20

POINTS   32000   double
0.0125   0.0125   0.025
0.0125   0.0375   0.025
0.0125   0.0625   0.025
0.0125   0.0875   0.025
0.0125   0.1125   0.025
0.0125   0.1375   0.025
0.0125   0.1625   0.025
0.0125   0.1875   0.025
0.0125   0.2125   0.025
0.0125   0.2375   0.025
0.0125   0.2625   0.025
0.0125   0.2875   0.025
0.0125   0.3125   0.025
0.0125   0.3375   0.025
0.0125   0.3625   0.025
0.0125   0.3875   0.025
0.0125   0.4125   0.025
0.0125   0.4375   0.025
0.0125   0.4625   0.025
0.0125   0.4875   0.025
0.0125   0.5125   0.025
0.0125   0.5375   0.025
0.0125   0.5625   0.025
0.0125   0.5875   0.025
0.0125   0.6125   0.025
0.0125   0.6375   0.025
0.0125   0.6625   0.025
0.0125   0.6875   0.025
0.0125   0.7125   0.025
0.0125   0.7375   0.025
0.0125   0.7625   0.025
0.0125   0.7875   0.025
0.0125   0.8125   0.025
0.0125   0.8375   0.025
0.0125   0.8625   0.025
0.0125   0.8875   0.025
0.0125   0.9125   0.025
0.0125   0.9375   0.025
0.0125   0.9625   0.025
0.0125   0.9875   0.025
0.0375   0.0125   0.025
0.0375   0.0375   0.025
0.0375   0.0625   0.025
0.0375   0.0875   0.025
0.0375   0.1125   0.025
0.0375   0.1375   0.025
0.0375   0.1625   0.025
0.0375   0.1875   0.025
0.0375   0.2125   0.025
0.0375   0.2375   0.025
0.0375   0.2625   0.025
0.0375   0.2875   0.025
0.0375   0.3125   0.025
0.0375   0.3375   0.025
0.0375   0.3625   0.025
0.0375   0.3875   0.025
0.0375   0.4125   0.025
0.0375   0.4375   0.025
0.0375   0.4625   0.025
0.0375   0.4875   0.025
0.0375   0.5125   0.025
0.0375   0.5375   0.025
0.0375   0.5625   0.025
0.0375   0.5875   0.025
0.0375   0.6125   0.025
0.0375   0.6375   0.025
0.0375   0.6625   0.025
0.0375   0.6875   0.025
0.0375   0.7125   0.025
0.0375   0.7375   0.025
0.0375   0.7625   0.025
0.0375   0.7875   0.025
0.0375   0.8125   0.025
0.0375   0.8375   0.025
0.0375   0.8625   0.025
0.0375   0.8875   0.025
0.0375   0.9125   0.025
0.0375   0.9375   0.025
0.0375   0.9625   0.025
0.0375   0.9875   0.025
0.0625   0.0125   0.025
0.0625   0.0375   0.025
0.0625   0.0625   0.025
0.0625   0.0875   0.025
0.0625   0.1125   0.025
0.0625   0.1375   0.025
0.0625   0.1625   0.025
0.0625   0.1875   0.025
0.0625   0.2125   0.025
0.0625   0.2375   0.025
0.0625   0.2625   0.025
0.0625   0.2875   0.025
0.0625   0.3125   0.025
0.0625   0.3375   0.025
0.0625   0.3625   0.025
0.0625   0.3875   0.025
0.0625   0.4125   0.025
0.0625   0.4375   0.025
0.0625   0.4625   0.025
0.0625   0.4875   0.025
0.0625   0.5125   0.025
0.0625   0.5375   0.025
0.0625   0.5625   0.025
0.0625   0.5875   0.025
0.0625   0.6125   0.025
0.0625   0.6375   0.025
0.0625   0.6625   0.025
0.0625   0.6875   0.025
0.0625   0.7125   0.025
0.0625   0.7375   0.025
0.0625   0.7625   0.025
0.0625   0.7875   0.025
0.0625   0.8125   0.025
0.0625   0.8375   0.025
0.0625   0.8625   0.025
0.0625   0.8875   0.025
0.0625   0.9125   0.025
0.0625   0.9375   0.025
0.0625   0.9625   0.025
0.0625   0.9875   0.025
0.0875   0.0125   0.025
0.0875   0.0375   0.025
0.0875   0.0625   0.025
0.0875   0.0875   0.025
0.0875   0.1125   0.025
0.0875   0.1375   0.025
0.0875   0.1625   0.025
0.0875   0.1875   0.025
0.0875   0.2125   0.025
0.0875   0.2375   0.025
0.0875   0.2625   0.025
0.0875   0.2875   0.025
0.0875   0.3125   0.025
0.0875   0.3375   0.025
0.0875   0.3625   0.025
0.0875   0.3875   0.025
0.0875   0.4125   0.025
0.0875   0.4375   0.025
0.0875   0.4625   0.025
0.0875   0.4875   0.025
0.0875   0.5125   0.025
0.0875   0.5375   0.025
0.0875   0.5625   0.025
0.0875   0.5875   0.025
0.0875   0.6125   0.025
0.0875   0.6375   0.025
0.0875   0.6625   0.025
0.0875   0.6875   0.025
0.0875   0.7125   0.025
0.0875   0.7375   0.025
0.0875   0.7625   0.025
0.0875   0.7875   0.025
0.0875   0.8125   0.025
0.0875   0.8375   0.025
0.0875   0.8625   0.025
0.0875   0.8875   0.025
0.0875   0.9125   0.025
0.0875   0.9375   0.025
0.0875   0.9625   0.025
0.0875   0.9875   0.025
0.1125   0.0125   0.025
0.1125   0.0375   0.025
0.1125   0.0625   0.025
0.1125   0.0875   0.025
0.1125   0.1125   0.025
0.1125   0.1375   0.025
0.1125   0.1625   0.025
0.1125   0.1875   0.025
0.1125   0.2125   0.025
0.1125   0.2375   0.025
0.1125   0.2625   0.025
0.1125   0.2875   0.025
0.1125   0.3125   0.025
0.1125   0.3375   0.025
0.1125   0.3625   0.025
0.1125   0.3875   0.025
0.1125   0.4125   0.025
0.1125   0.4375   0.025
0.1125   0.4625   0.025
0.1125   0.4875   0.025
0.1125   0.5125   0.025
0.1125   0.5375   0.025
0.1125   0.5625   0.025
0.1125   0.5875   0.025
0.1125   0.6125   0.025
0.1125   0.6375   0.025
0.1125   0.6625   0.025
0.1125   0.6875   0.025
0.1125   0.7125   0.025
0.1125   0.7375   0.025
0.1125   0.7625   0.025
0.1125   0.7875   0.025
0.1125   0.8125   0.025
0.1125   0.8375   0.025
0.1125   0.8625   0.025
0.1125   0.8875   0.025
0.1125   0.9125   0.025
0.1125   0.9375   0.025
0.1125   0.9625   0.025
0.1125   0.9875   0.025
0.1375   0.0125   0.025
0.1375   0.0375   0.025
0.1375   0.0625   0.025
0.1375   0.0875   0.025
0.1375   0.1125   0.025
0.1375   0.1375   0.025
0.1375   0.1625   0.025
0.1375   0.1875   0.025
0.1375   0.2125   0.025
0.1375   0.2375   0.025
0.1375   0.2625   0.025
0.1375   0.2875   0.025
0.1375   0.3125   0.025
0.1375   0.3375   0.025
0.1375   0.3625   0.025
0.1375   0.3875   0.025
0.1375   0.4125   0.025
0.1375   0.4375   0.025
0.1375   0.4625   0.025
0.1375   0.4875   0.025
0.1375   0.5125   0.025
0.1375   0.5375   0.025
0.1375   0.5625   0.025
0.1375   0.5875   0.025
0.1375   0.6125   0.025
0.1375   0.6375   0.025
0.1375   0.6625   0.025
0.1375   0.6875   0.025
0.1375   0.7125   0.025
0.1375   0.7375   0.025
0.1375   0.7625   0.025
0.1375   0.7875   0.025
0.1375   0.8125   0.025
0.1375   0.8375   0.025
0.1375   0.8625   0.025
0.1375   0.8875   0.025
0.1375   0.9125   0.025
0.1375   0.9375   0.025
0.1375   0.9625   0.025
0.1375   0.9875   0.025
0.1625   0.0125   0.025
0.1625   0.0375   0.025
0.1625   0.0625   0.025
0.1625   0.0875   0.025
0.1625   0.1125   0.025
0.1625   0.1375   0.025
0.1625   0.1625   0.025
0.1625   0.1875   0.025
0.1625   0.2125   0.025
0.1625   0.2375   0.025
0.1625   0.2625   0.025
0.1625   0.2875   0.025
0.1625   0.3125   0.025
0.1625   0.3375   0.025
0.1625   0.3625   0.025
0.1625   0.3875   0.025
0.1625   0.4125   0.025
0.1625   0.4375   0.025
0.1625   0.4625   0.025
0.1625   0.4875   0.025
0.1625   0.5125   0.025
0.1625   0.5375   0.025
0.1625   0.5625   0.025
0.1625   0.5875   0.025
0.1625   0.6125   0.025
0.1625   0.6375   0.025
0.1625   0.6625   0.025
0.1625   0.6875   0.025
0.1625   0.7125   0.025
0.1625   0.7375   0.025
0.1625   0.7625   0.025
0.1625   0.7875   0.025
0.1625   0.8125   0.025
0.1625   0.8375   0.025
0.1625   0.8625   0.025
0.1625   0.8875   0.025
0.1625   0.9125   0.025
0.1625   0.9375   0.025
0.1625   0.9625   0.025
0.1625   0.9875   0.025
0.1875   0.0125   0.025
0.1875   0.0375   0.025
0.1875   0.0625   0.025
0.1875   0.0875   0.025
0.1875   0.1125   0.025
0.1875   0.1375   0.025
0.1875   0.1625   0.025
0.1875   0.1875   0.025
0.1875   0.2125   0.025
0.1875   0.2375   0.025
0.1875   0.2625   0.025
0.1875   0.2875   0.025
0.1875   0.3125   0.025
0.1875   0.3375   0.025
0.1875   0.3625   0.025
0.1875   0.3875   0.025
0.1875   0.4125   0.025
0.1875   0.4375   0.025
0.1875   0.4625   0.025
0.1875   0.4875   0.025
0.1875   0.5125   0.025
0.1875   0.5375   0.025
0.1875   0.5625   0.025
0.1875   0.5875   0.025
0.1875   0.6125   0.025
0.1875   0.6375   0.025
0.1875   0.6625   0.025
0.1875   0.6875   0.025
0.1875   0.7125   0.025
0.1875   0.7375   0.025
0.1875   0.7625   0.025
0.1875   0.7875   0.025
0.1875   0.8125   0.025
0.1875   0.8375   0.025
0.1875   0.8625   0.025
0.1875   0.8875   0.025
0.1875   0.9125   0.025
0.1875   0.9375   0.025
0.1875   0.9625   0.025
0.1875   0.9875   0.025
0.2125   0.0125   0.025
0.2125   0.0375   0.025
0.2125   0.0625   0.025
0.2125   0.0875   0.025
0.2125   0.1125   0.025
0.2125   0.1375   0.025
0.2125   0.1625   0.025
0.2125   0.1875   0.025
0.2125   0.2125   0.025
0.2125   0.2375   0.025
0.2125   0.2625   0.025
0.2125   0.2875   0.025
0.2125   0.3125   0.025
0.2125   0.3375   0.025
0.2125   0.3625   0.025
0.2125   0.3875   0.025
0.2125   0.4125   0.025
0.2125   0.4375   0.025
0.2125   0.4625   0.025
0.2125   0.4875   0.025
0.2125   0.5125   0.025
0.2125   0.5375   0.025
0.2125   0.5625   0.025
0.2125   0.5875   0.025
0.2125   0.6125   0.025
0.2125   0.6375   0.025
0.2125   0.6625   0.025
0.2125   0.6875   0.025
0.2125   0.7125   0.025
0.2125   0.7375   0.025
0.2125   0.7625   0.025
0.2125   0.7875   0.025
0.2125   0.8125   0.025
0.2125   0.8375   0.025
0.2125   0.8625   0.025
0.2125   0.8875   0.025
0.2125   0.9125   0.025
0.2125   0.9375   0.025
0.2125   0.9625   0.025
0.2125   0.9875   0.025
0.2375   0.0125   0.025
0.2375   0.0375   0.025
0.2375   0.0625   0.025
0.2375   0.0875   0.025
0.2375   0.1125   0.025
0.2375   0.1375   0.025
0.2375   0.1625   0.025
0.2375   0.1875   0.025
0.2375   0.2125   0.025
0.2375   0.2375   0.025
0.2375   0.2625   0.025
0.2375   0.2875   0.025
0.2375   0.3125   0.025
0.2375   0.3375   0.025
0.2375   0.3625   0.025
0.2375   0.3875   0.025
0.2375   0.4125   0.025
0.2375   0.4375   0.025
0.2375   0.4625   0.025
0.2375   0.4875   0.025
0.2375   0.5125   0.025
0.2375   0.5375   0.025
0.2375   0.5625   0.025
0.2375   0.5875   0.025
0.2375   0.6125   0.025
0.2375   0.6375   0.025
0.2375   0.6625   0.025
0.2375   0.6875   0.025
0.2375   0.7125   0.025
0.2375   0.7375   0.025
0.2375   0.7625   0.025
0.2375   0.7875   0.025
0.2375   0.8125   0.025
0.2375   0.8375   0.025
0.2375   0.8625   0.025
0.2375   0.8875   0.025
0.2375   0.9125   0.025
0.2375   0.9375   0.025
0.2375   0.9625   0.025
0.2375   0.9875   0.025
0.2625   0.0125   0.025
0.2625   0.0375   0.025
0.2625   0.0625   0.025
0.2625   0.0875   0.025
0.2625   0.1125   0.025
0.2625   0.1375   0.025
0.2625   0.1625   0.025
0.2625   0.1875   0.025
0.2625   0.2125   0.025
0.2625   0.2375   0.025
0.2625   0.2625   0.025
[...]
POINT_DATA   32000
VECTORS Velocidades double

0 0.327452 0
0 0.745085 0
0 0.866395 0
0 0.911108 0
0 0.931842 0
0 0.943275 0
0 0.950336 0
0 0.95502 0
0 0.958273 0
0 0.960599 0
0 0.962294 0
0 0.963538 0
0 0.96445 0
0 0.965108 0
0 0.965566 0
0 0.965861 0
0 0.966016 0
0 0.966048 0
0 0.965964 0
0 0.965768 0
0 0.965455 0
0 0.965017 0
0 0.964442 0
0 0.963709 0
0 0.962791 0
0 0.961651 0
0 0.960242 0
0 0.958497 0
0 0.956329 0
0 0.953616 0
0 0.950182 0
0 0.945768 0
0 0.939971 0
0 0.932119 0
0 0.920996 0
0 0.904127 0
0 0.875697 0
0 0.819745 0
0 0.685723 0
0 0.294757 0
0 0.199097 0
0 0.504889 0
0 0.667406 0
0 0.754133 0
0 0.803436 0
0 0.83353 0
0 0.853057 0
0 0.866342 0
0 0.875698 0
0 0.882448 0
0 0.88739 0
0 0.891034 0
0 0.893711 0
0 0.895648 0
0 0.896997 0
0 0.897866 0
0 0.898324 0
0 0.898416 0
0 0.898168 0
0 0.897585 0
0 0.896659 0
0 0.895366 0
0 0.893667 0
0 0.891502 0
0 0.888795 0
0 0.88544 0
0 0.881298 0
0 0.876184 0
0 0.869848 0
0 0.861951 0
0 0.852012 0
0 0.839338 0
0 0.822889 0
0 0.801036 0
0 0.771105 0
0 0.728479 0
0 0.664845 0
0 0.565029 0
0 0.403277 0
0 0.151465 0
0 0.140186 0
0 0.374786 0
0 0.529258 0
0 0.627559 0
0 0.690772 0
0 0.732582 0
0 0.761128 0
0 0.781185 0
0 0.795611 0
0 0.806165 0
0 0.813969 0
0 0.819762 0
0 0.824039 0
0 0.827144 0
0 0.829313 0
0 0.83071 0
0 0.831446 0
0 0.831592 0
0 0.831186 0
0 0.830239 0
0 0.828737 0
0 0.826644 0
0 0.823896 0
0 0.820403 0
0 0.816044 0
0 0.810656 0
0 0.804028 0
0 0.795881 0
0 0.785848 0
0 0.773433 0
0 0.757965 0
0 0.738506 0
0 0.713727 0
0 0.681703 0
0 0.639596 0
0 0.583224 0
0 0.506582 0
0 0.401906 0
0 0.262233 0
0 0.0914847 0
0 0.107566 0
0 0.294974 0
0 0.431449 0
0 0.527657 0
0 0.59499 0
0 0.642471 0
0 0.676427 0
0 0.701089 0
0 0.719248 0
0 0.73276 0
0 0.742875 0
0 0.75045 0
0 0.756081 0
0 0.760188 0
0 0.763066 0
0 0.764922 0
0 0.765899 0
0 0.766086 0
0 0.765535 0
0 0.764259 0
0 0.76224 0
0 0.759432 0
0 0.755753 0
0 0.75109 0
0 0.745288 0
0 0.738147 0
0 0.729405 0
0 0.718726 0
0 0.705676 0
0 0.689688 0
0 0.670022 0
0 0.645694 0
0 0.6154 0
0 0.577408 0
0 0.529456 0
0 0.468722 0
0 0.392062 0
0 0.296976 0
0 0.184089 0
0 0.0617893 0
0 0.0867096 0
0 0.240861 0
0 0.359299 0
0 0.448237 0
0 0.514269 0
0 0.563204 0
0 0.59961 0
0 0.62687 0
0 0.647415 0
0 0.662975 0
0 0.67478 0
0 0.68371 0
0 0.6904 0
0 0.695306 0
0 0.698756 0
0 0.700986 0
0 0.702156 0
0 0.702372 0
0 0.701692 0
0 0.700131 0
0 0.697671 0
0 0.694256 0
0 0.689797 0
0 0.684162 0
0 0.67718 0
0 0.668627 0
0 0.658219 0
0 0.645599 0
0 0.630317 0
0 0.611808 0
0 0.589361 0
0 0.562091 0
0 0.528903 0
0 0.488482 0
0 0.439327 0
0 0.379917 0
0 0.309126 0
0 0.227084 0
0 0.136613 0
0 0.0449229 0
0 0.0719566 0
0 0.201298 0
0 0.303813 0
0 0.383991 0
0 0.446054 0
0 0.49383 0
0 0.53055 0
0 0.558789 0
0 0.580536 0
0 0.597289 0
0 0.610172 0
0 0.620022 0
0 0.62746 0
0 0.632947 0
0 0.636822 0
0 0.63933 0
0 0.640643 0
0 0.640872 0
0 0.640081 0
0 0.638288 0
0 0.635473 0
0 0.631577 0
0 0.626505 0
0 0.620121 0
0 0.612246 0
0 0.602652 0
0 0.591056 0
0 0.577108 0
0 0.560383 0
0 0.540368 0
0 0.516448 0
0 0.487904 0
0 0.453919 0
0 0.413619 0
0 0.366167 0
0 0.310969 0
0 0.248032 0
0 0.178525 0
0 0.105473 0
0 0.0342882 0
0 0.0607766 0
0 0.17074 0
0 0.259596 0
0 0.331008 0
0 0.387966 0
0 0.433105 0
0 0.468723 0
0 0.496747 0
0 0.518744 0
0 0.535962 0
0 0.549374 0
0 0.559735 0
0 0.567622 0
0 0.573476 0
0 0.577626 0
0 0.580317 0
0 0.581721 0
0 0.58195 0
0 0.58107 0
0 0.579101 0
0 0.576022 0
0 0.571775 0
0 0.566266 0
0 0.559361 0
0 0.550884 0
0 0.540618 0
0 0.528296 0
0 0.5136 0
0 0.496154 0
0 0.475524 0
0 0.45122 0
0 0.422705 0
0 0.38943 0
0 0.350888 0
0 0.306726 0
0 0.256912 0
0 0.201988 0
0 0.143392 0
0 0.0837537 0
0 0.0270435 0
0 0.0518955 0
0 0.146183 0
0 0.223348 0
0 0.286544 0
0 0.338062 0
0 0.379813 0
0 0.413461 0
0 0.440445 0
0 0.461984 0
0 0.479085 0
0 0.492565 0
0 0.503081 0
0 0.511149 0
0 0.517172 0
0 0.52146 0
0 0.524244 0
0 0.525689 0
0 0.525907 0
0 0.52496 0
0 0.52287 0
0 0.519619 0
0 0.515151 0
0 0.509376 0
0 0.502168 0
0 0.493366 0
0 0.482769 0
0 0.470142 0
0 0.455207 0
0 0.437653 0
0 0.417133 0
0 0.39328 0
0 0.365729 0
0 0.334147 0
0 0.298303 0
0 0.25815 0
0 0.213957 0
0 0.166464 0
0 0.117048 0
0 0.0678555 0
0 0.0218166 0
0 0.0446071 0
0 0.125881 0
0 0.192982 0
0 0.248682 0
0 0.294834 0
0 0.332888 0
0 0.364082 0
0 0.3895 0
0 0.410082 0
0 0.426629 0
0 0.439815 0
0 0.450193 0
0 0.458214 0
0 0.464236 0
0 0.468539 0
0 0.471334 0
0 0.472778 0
0 0.472975 0
0 0.471985 0
0 0.469829 0
0 0.466492 0
0 0.461923 0
0 0.45604 0
0 0.44873 0
0 0.439849 0
0 0.429222 0
0 0.416647 0
0 0.401896 0
0 0.38472 0
0 0.364859 0
0 0.342057 0
0 0.316085 0
0 0.286776 0
0 0.254082 0
0 0.218135 0
0 0.179337 0
0 0.138454 0
0 0.096695 0
0 0.0557692 0
0 0.01788 0
0 0.0384884 0
0 0.108754 0
0 0.167133 0
0 0.216075 0
0 0.257131 0
0 0.291443 0
0 0.319959 0
0 0.343503 0
0 0.362801 0
0 0.378487 0
0 0.391107 0
0 0.401122 0
0 0.408914 0
0 0.414794 0
0 0.419008 0
0 0.421749 0
0 0.423156 0
0 0.423325 0
0 0.422314 0
0 0.420141 0
0 0.416796 0
0 0.412233 0
0 0.406382 0
0 0.399144 0
0 0.390394 0
0 0.379985 0
0 0.367752 0
0 0.353514 0
0 0.337081 0
0 0.318268 0
0 0.296909 0
0 0.272882 0
0 0.246134 0
0 0.216728 0
0 0.184889 0
0 0.151059 0
0 0.115948 0
0 0.0805782 0
0 0.0463053 0
0 0.0148166 0
0 0.0332699 0
0 0.0940969 0
0 0.14487 0
0 0.187756 0
0 0.224074 0
0 0.254753 0
0 0.280534 0
0 0.302054 0
0 0.319876 0
0 0.334501 0
0 0.346368 0
0 0.355853 0
0 0.363277 0
0 0.368905 0
0 0.372951 0
0 0.375582 0
0 0.376924 0
0 0.377063 0
0 0.37605 0
0 0.373905 0
0 0.370619 0
0 0.366155 0
0 0.360453 0
0 0.353428 0
0 0.344979 0
0 0.334985 0
0 0.323314 0
0 0.309829 0
0 0.294392 0
0 0.27688 0
0 0.257197 0
0 0.235294 0
0 0.211195 0
0 0.185025 0
0 0.157045 0
0 0.127685 0
0 0.0975748 0
0 0.0675612 0
0 0.0387222 0
0 0.0123728 0
0 0.0287707 0
0 0.0814295 0
0 0.12554 0
0 0.163014 0
0 0.194985 0
0 0.222225 0
0 0.245323 0
0 0.26478 0
0 0.281035 0
0 0.294484 0
0 0.305476 0
0 0.314319 0
0 0.321278 0
0 0.326575 0
0 0.330392 0
0 0.332874 0
0 0.33413 0
0 0.334237 0
0 0.333241 0
0 0.331161 0
0 0.32799 0
0 0.323699 0
0 0.318239 0
0 0.31154 0
0 0.303521 0
0 0.294086 0
0 0.283135 0
0 0.270566 0
0 0.256285 0
0 0.240217 0
0 0.222317 0
0 0.202587 0
0 0.181096 0
0 0.157998 0
0 0.133559 0
0 0.108173 0
0 0.0823814 0
0 0.056882 0
0 0.0325369 0
0 0.0103855 0
0 0.0248634 0
0 0.0704093 0
0 0.108667 0
0 0.141314 0
0 0.169335 0
0 0.193372 0
0 0.213907 0
0 0.231336 0
0 0.246005 0
0 0.258227 0
0 0.268281 0
0 0.276414 0
0 0.282845 0
0 0.287757 0
0 0.291305 0
0 0.29361 0
0 0.294767 0
0 0.294843 0
0 0.293879 0
0 0.291893 0
0 0.288882 0
0 0.284821 0
0 0.279673 0
0 0.273383 0
0 0.265885 0
0 0.257108 0
0 0.246978 0
0 0.235423 0
0 0.222383 0
0 0.207819 0
0 0.191721 0
0 0.174123 0
0 0.155119 0
0 0.134871 0
0 0.113632 0
0 0.0917516 0
0 0.0696877 0
0 0.0480133 0
0 0.0274223 0
0 0.00874604 0
0 0.0214549 0
0 0.0607833 0
0 0.0938901 0
0 0.122244 0
0 0.146695 0
0 0.167789 0
0 0.18592 0
0 0.201406 0
0 0.214522 0
0 0.225516 0
0 0.234609 0
0 0.242002 0
0 0.247871 0
0 0.252368 0
0 0.255621 0
0 0.257733 0
0 0.258784 0
0 0.258832 0
0 0.257913 0
0 0.256044 0
0 0.253223 0
0 0.249434 0
0 0.244647 0
0 0.238819 0
0 0.231903 0
0 0.223843 0
0 0.214589 0
0 0.204092 0
0 0.192319 0
0 0.179255 0
0 0.164915 0
0 0.149353 0
0 0.132669 0
0 0.115025 0
0 0.0966486 0
0 0.077845 0
0 0.0589987 0
0 0.0405796 0
0 0.0231491 0
0 0.00737861 0
0 0.0184745 0
0 0.0523576 0
0 0.0809302 0
0 0.105472 0
0 0.126718 0
0 0.145131 0
0 0.161039 0
0 0.174699 0
0 0.18633 0
0 0.196129 0
0 0.204273 0
0 0.210922 0
0 0.216219 0
0 0.220289 0
0 0.223236 0
0 0.225148 0
0 0.22609 0
0 0.226114 0
0 0.225249 0
0 0.223512 0
0 0.220904 0
0 0.217413 0
0 0.213016 0
0 0.207683 0
0 0.201378 0
0 0.194062 0
0 0.185702 0
0 0.176267 0
0 0.165743 0
0 0.154133 0
0 0.141467 0
0 0.127806 0
0 0.113253 0
0 0.0979585 0
0 0.0821251 0
0 0.0660135 0
0 0.0499451 0
0 0.0343056 0
0 0.0195516 0
0 0.00622892 0
0 0.0158662 0
0 0.0449782 0
0 0.0695622 0
0 0.0907281 0
0 0.10911 0
0 0.125102 0
0 0.138977 0
0 0.150945 0
0 0.161182 0
0 0.169844 0
0 0.177072 0
0 0.182996 0
0 0.18773 0
0 0.191375 0
0 0.194017 0
0 0.195727 0
0 0.196563 0
0 0.196566 0
0 0.195762 0
0 0.194168 0
0 0.191784 0
0 0.188604 0
0 0.184612 0
0 0.179785 0
0 0.174099 0
0 0.167528 0
0 0.16005 0
0 0.15165 0
0 0.142327 0
0 0.132095 0
0 0.12099 0
0 0.109079 0
0 0.0964597 0
0 0.0832671 0
0 0.0696787 0
0 0.0559156 0
0 0.0422454 0
0 0.0289849 0
0 0.0165067 0
0 0.00525678 0
0 0.0135846 0
0 0.0385191 0
0 0.0595999 0
0 0.0777852 0
0 0.0936205 0
0 0.107441 0
0 0.119475 0
0 0.129894 0
0 0.13884 0
0 0.146439 0
0 0.152803 0
0 0.158034 0
0 0.162226 0
0 0.165459 0
0 0.167804 0
0 0.16932 0
0 0.170054 0
0 0.17004 0
0 0.169302 0
0 0.167854 0
0 0.165699 0
0 0.162832 0
0 0.159245 0
0 0.15492 0
0 0.149843 0
0 0.143997 0
0 0.137369 0
0 0.129956 0
0 0.121764 0
0 0.112814 0
0 0.103146 0
0 0.0928258 0
0 0.0819424 0
0 0.0706164 0
0 0.0590005 0
0 0.0472811 0
0 0.0356802 0
0 0.0244582 0
0 0.0139202 0
0 0.00443166 0
0 0.0115917 0
0 0.0328744 0
0 0.0508852 0
0 0.0664476 0
0 0.0800289 0
0 0.0919141 0
0 0.102294 0
0 0.11131 0
0 0.119077 0
0 0.125696 0
0 0.131256 0
0 0.135839 0
0 0.139519 0
0 0.142362 0
0 0.144425 0
0 0.145756 0
0 0.146393 0
0 0.146367 0
0 0.145697 0
0 0.144395 0
0 0.142466 0
0 0.139908 0
0 0.136714 0
0 0.132877 0
0 0.128384 0
0 0.123228 0
0 0.117404 0
0 0.110914 0
0 0.10377 0
0 0.095996 0
0 0.0876342 0
0 0.078744 0
0 0.069407 0
0 0.0597283 0
0 0.0498378 0
0 0.039892 0
0 0.0300749 0
0 0.0206004 0
0 0.0117185 0
0 0.00372976 0
0 0.00985475 0
0 0.0279529 0
0 0.0432811 0
0 0.0565436 0
0 0.0681395 0
0 0.0783103 0
0 0.0872156 0
0 0.0949722 0
0 0.101673 0
0 0.107399 0
0 0.112222 0
0 0.116206 0
0 0.119412 0
0 0.121891 0
0 0.123691 0
0 0.12485 0
0 0.125399 0
0 0.125364 0
0 0.124761 0
0 0.123602 0
0 0.121891 0
0 0.119629 0
0 0.116812 0
0 0.113436 0
0 0.109495 0
0 0.104986 0
0 0.0999077 0
0 0.094268 0
0 0.0880816 0
0 0.0813745 0
0 0.0741861 0
0 0.0665712 0
0 0.0586016 0
0 0.0503681 0
0 0.0419806 0
0 0.0335699 0
0 0.025288 0
0 0.0173106 0
0 0.00984289 0
0 0.00313211 0
0 0.00834526 0
0 0.0236744 0
0 0.0366663 0
0 0.0479204 0
0 0.0577757 0
0 0.0664366 0
0 0.0740365 0
0 0.0806716 0
0 0.0864177 0
0 0.0913394 0
0 0.0954939 0
0 0.0989333 0
0 0.101705 0
0 0.103851 0
0 0.105408 0
0 0.106409 0
0 0.106878 0
0 0.106837 0
0 0.106301 0
0 0.105278 0
0 0.103774 0
0 0.101791 0
0 0.0993274 0
0 0.0963818 0
0 0.0929521 0
0 0.0890382 0
0 0.0846439 0
0 0.0797781 0
0 0.0744572 0
0 0.0687069 0
0 0.0625637 0
0 0.0560765 0
0 0.0493081 0
0 0.0423358 0
0 0.0352522 0
0 0.028166 0
0 0.0212026 0
0 0.0145062 0
0 0.00824537 0
0 0.00262328 0
0 0.00703785 0
0 0.0199677 0
0 0.0309325 0
0 0.04044 0
0 0.048777 0
0 0.0561157 0
0 0.0625675 0
0 0.0682116 0
0 0.0731096 0
0 0.0773136 0
0 0.0808691 0
0 0.0838177 0
0 0.0861969 0
0 0.0880405 0
0 0.0893783 0
0 0.0902358 0
0 0.0906343 0
0 0.0905905 0
0 0.0901169 0
0 0.089222 0
0 0.0879111 0
0 0.0861867 0
0 0.0840495 0
0 0.0814996 0
0 0.0785375 0
0 0.0751657 0
0 0.0713898 0
0 0.06722 0
0 0.0626731 0
0 0.0577731 0
0 0.0525531 0
0 0.0470562 0
0 0.0413363 0
0 0.035459 0
0 0.0295018 0
0 0.0235547 0
0 0.0177208 0
0 0.0121186 0
0 0.00688614 0
0 0.0021905 0
0 0.00590972 0
0 0.0167686 0
0 0.0259818 0
0 0.0339772 0
0 0.0409964 0
0 0.0471837 0
0 0.0526321 0
0 0.0574068 0
0 0.0615578 0
0 0.0651268 0
0 0.0681504 0
0 0.0706616 0
0 0.0726901 0
0 0.0742629 0
0 0.0754039 0
0 0.0761336 0
0 0.0764693 0
0 0.0764247 0
0 0.0760105 0
0 0.075234 0
0 0.0741004 0
0 0.0726127 0
0 0.0707726 0
0 0.0685818 0
0 0.0660422 0
0 0.0631578 0
0 0.0599352 0
0 0.0563853 0
0 0.0525239 0
0 0.0483731 0
0 0.0439624 0
0 0.0393291 0
0 0.0345192 0
0 0.0295879 0
0 0.0245996 0
0 0.0196285 0
0 0.0147596 0
0 0.0100896 0
0 0.00573171 0
0 0.00182303 0
0 0.0049403 0
0 0.0140191 0
0 0.0217252 0
0 0.0284176 0
0 0.0342988 0
0 0.0394893 0
0 0.0440662 0
0 0.0480832 0
0 0.051581 0
0 0.054593 0
0 0.0571484 0
0 0.0592733 0
0 0.0609915 0
0 0.0623243 0
0 0.0632908 0
0 0.0639075 0
0 0.0641883 0
0 0.0641447 0
0 0.0637853 0
0 0.0631169 0
0 0.0621441 0
0 0.0608702 0
0 0.0592976 0
0 0.0574288 0
0 0.0552667 0
0 0.052816 0
0 0.0500838 0
0 0.0470807 0
0 0.0438213 0
0 0.0403256 0
0 0.0366192 0
0 0.0327343 0
0 0.0287096 0
0 0.0245913 0
0 0.0204327 0
0 0.016295 0
0 0.0122476 0
0 0.00836961 0
0 0.00475354 0
0 0.00151174 0
0 0.00411091 0
0 0.0116664 0
0 0.0180819 0
0 0.0236569 0
0 0.0285603 0
0 0.0328925 0
0 0.0367172 0
0 0.0400783 0
0 0.043009 0
0 0.045536 0
0 0.0476826 0
0 0.0494695 0
0 0.0509155 0
0 0.0520375 0
0 0.0528508 0
0 0.0533685 0
0 0.053602 0
0 0.0535604 0
0 0.0532513 0
0 0.0526802 0
0 0.0518516 0
0 0.0507687 0
0 0.0494342 0
0 0.0478511 0
0 0.0460228 0
0 0.0439544 0
0 0.0416528 0
0 0.0391279 0
0 0.036393 0
0 0.0334658 0
0 0.0303683 0
0 0.0271279 0
0 0.023777 0
0 0.0203539 0
0 0.0169028 0
0 0.0134736 0
0 0.0101231 0
0 0.00691582 0
0 0.00392709 0
0 0.00124879 0
0 0.00340458 0
0 0.00966248 0
0 0.0149779 0
0 0.0195994 0
0 0.0236673 0
0 0.0272645 0
0 0.0304437 0
0 0.0332408 0
0 0.0356825 0
0 0.0377903 0
0 0.0395827 0
0 0.0410762 0
0 0.0422855 0
0 0.0432241 0
0 0.043904 0
0 0.0443359 0
0 0.0445287 0
0 0.0444901 0
0 0.0442262 0
0 0.0437419 0
0 0.0430412 0
0 0.0421271 0
0 0.0410025 0
0 0.0396705 0
0 0.0381347 0
0 0.0364001 0
0 0.0344734 0
0 0.0323634 0
0 0.0300822 0
0 0.0276448 0
0 0.0250703 0
0 0.0223815 0
0 0.0196056 0
0 0.0167742 0
0 0.0139234 0
0 0.0110942 0
0 0.00833257 0
0 0.00569113 0
0 0.00323111 0
0 0.00102738 0
0 0.00280591 0
0 0.00796384 0
0 0.0123461 0
0 0.0161582 0
0 0.0195157 0
0 0.0224872 0
0 0.0251158 0
0 0.0274307 0
0 0.0294536 0
0 0.0312016 0
0 0.0326894 0
0 0.0339301 0
0 0.0349352 0
0 0.0357154 0
0 0.0362803 0
0 0.0366383 0
0 0.0367966 0
0 0.0367614 0
0 0.0365379 0
0 0.0361302 0
0 0.0355417 0
0 0.0347754 0
0 0.0338341 0
0 0.0327208 0
0 0.0314391 0
0 0.0299937 0
0 0.0283906 0
0 0.026638 0
0 0.0247462 0
0 0.0227282 0
0 0.0206 0
0 0.0183807 0
0 0.0160928 0
0 0.0137622 0
0 0.0114186 0
0 0.00909503 0
0 0.00682906 0
0 0.0046632 0
0 0.00264711 0
0 0.000841628 0
0 0.00230096 0
0 0.00653098 0
0 0.0101258 0
0 0.0132541 0
0 0.016011 0
0 0.0184526 0
0 0.0206142 0
0 0.0225195 0
0 0.0241859 0
0 0.0256272 0
0 0.0268549 0
0 0.0278793 0
0 0.0287096 0
0 0.0293542 0
0 0.0298206 0
0 0.0301155 0
0 0.0302447 0
0 0.0302132 0
0 0.0300253 0
0 0.0296844 0
0 0.0291936 0
0 0.0285556 0
0 0.0277729 0
0 0.0268485 0
0 0.0257857 0
0 0.0245888 0
0 0.0232633 0
0 0.0218162 0
0 0.0202564 0
0 0.018595 0
0 0.0168454 0
0 0.0150233 0
0 0.0131473 0
0 0.0112387 0
0 0.00932132 0
0 0.0074222 0
0 0.00557156 0
0 0.00380378 0
0 0.00215897 0
0 0.000686382 0
0 0.00187715 0
0 0.00532829 0
0 0.00826179 0
0 0.0108156 0
0 0.0130672 0
0 0.0150626 0
0 0.0168304 0
0 0.0183898 0
0 0.0197547 0
0 0.0209361 0
0 0.0219432 0
0 0.022784 0
0 0.0234657 0
0 0.0239949 0
0 0.0243776 0
0 0.024619 0
0 0.0247239 0
0 0.0246961 0
0 0.0245393 0
0 0.0242563 0
0 0.0238498 0
0 0.0233221 0
0 0.0226756 0
0 0.021913 0
0 0.0210374 0
0 0.0200524 0
0 0.0189631 0
0 0.0177754 0
0 0.016497 0
0 0.015137 0
0 0.0137065 0
0 0.0122187 0
0 0.0106886 0
0 0.00913354 0
0 0.00757284 0
0 0.00602826 0
0 0.00452415 0
0 0.00308816 0
0 0.0017526 0
0 0.000557154 0
0 0.00152319 0
0 0.00432372 0
0 0.00670465 0
0 0.00877803 0
0 0.010607 0
0 0.0122286 0
0 0.0136661 0
0 0.0149351 0
0 0.0160465 0
0 0.0170091 0
0 0.0178302 0
0 0.018516 0
0 0.0190723 0
0 0.0195041 0
0 0.0198161 0
0 0.0200126 0
0 0.0200971 0
0 0.020073 0
0 0.0199431 0
0 0.0197098 0
0 0.0193754 0
0 0.0189419 0
0 0.0184115 0
0 0.0177865 0
0 0.0170697 0
0 0.0162644 0
0 0.0153747 0
0 0.0144058 0
0 0.0133642 0
0 0.0122574 0
0 0.0110946 0
0 0.0098865 0
0 0.00864536 0
0 0.00738511 0
0 0.00612139 0
0 0.00487163 0
0 0.00365537 0
0 0.00249475 0
0 0.00141568 0
0 0.000450024 0
0 0.00122896 0
0 0.00348863 0
0 0.00541005 0
0 0.00708375 0
0 0.00856069 0
0 0.00987086 0
0 0.0110329 0
0 0.0120593 0
0 0.0129588 0
0 0.0137383 0
0 0.0144036 0
0 0.0149595 0
0 0.0154104 0
0 0.0157605 0
0 0.0160133 0
0 0.0161721 0
0 0.0162399 0
0 0.0162192 0
0 0.0161124 0
0 0.0159215 0
0 0.0156483 0
0 0.0152947 0
0 0.0148625 0
0 0.0143537 0
0 0.0137708 0
0 0.0131166 0
0 0.0123946 0
0 0.0116093 0
0 0.0107658 0
0 0.00987054 0
0 0.00893096 0
0 0.00795571 0
0 0.00695472 0
0 0.00593917 0
0 0.00492159 0
0 0.00391592 0
0 0.00293773 0
0 0.0020047 0
0 0.00113749 0
0 0.000361575 0
0 0.000985463 0
0 0.0027975 0
0 0.00433852 0
0 0.00568119 0
0 0.00686642 0
0 0.00791827 0
0 0.00885165 0
0 0.00967645 0
0 0.0103997 0
0 0.0110268 0
0 0.0115622 0
0 0.0120098 0
0 0.0123729 0
0 0.0126548 0
0 0.0128582 0
0 0.0129857 0
0 0.0130397 0
0 0.0130222 0
0 0.0129351 0
0 0.01278 0
0 0.0125584 0
0 0.0122721 0
0 0.0119224 0
0 0.0115112 0
0 0.0110405 0
0 0.0105127 0
0 0.00993083 0
0 0.00929849 0
0 0.00862002 0
0 0.00790057 0
0 0.0071462 0
0 0.00636388 0
0 0.00556157 0
0 0.00474821 0
0 0.00393377 0
0 0.00312932 0
0 0.00234725 0
0 0.00160156 0
0 0.00090867 0
0 0.000288828 0
0 0.000784731 0
0 0.00222773 0
0 0.00345506 0
0 0.00452465 0
0 0.0054691 0
0 0.00630757 0
0 0.00705193 0
0 0.00770998 0
0 0.00828728 0
0 0.00878806 0
0 0.00921578 0
0 0.00957342 0
0 0.00986365 0
0 0.0100889 0
0 0.0102513 0
0 0.010353 0
0 0.0103957 0
0 0.0103811 0
0 0.0103106 0
0 0.0101856 0
0 0.0100075 0
0 0.00977739 0
0 0.00949671 0
0 0.00916693 0
0 0.00878975 0
0 0.00836723 0
0 0.00790181 0
0 0.00739645 0
0 0.0068547 0
0 0.00628071 0
0 0.00567936 0
0 0.00505623 0
0 0.00441764 0
0 0.00377069 0
0 0.00312327 0
0 0.00248413 0
0 0.00186304 0
0 0.00127104 0
0 0.000721092 0
0 0.000229196 0
0 0.000619725 0
0 0.00175934 0
0 0.00272874 0
0 0.00357371 0
0 0.00432002 0
0 0.0049828 0
0 0.00557139 0
0 0.00609195 0
0 0.00654882 0
0 0.00694527 0
0 0.007284 0
0 0.0075673 0
0 0.00779723 0
0 0.00797564 0
0 0.00810424 0
0 0.00818458 0
0 0.00821808 0
0 0.00820602 0
0 0.00814958 0
0 0.00804985 0
0 0.00790789 0
0 0.00772473 0
0 0.0075015 0
0 0.00723942 0
0 0.0069399 0
0 0.00660464 0
0 0.00623563 0
0 0.00583527 0
0 0.0054064 0
0 0.00495237 0
0 0.00447705 0
0 0.00398486 0
0 0.00348078 0
0 0.00297041 0
0 0.00245995 0
0 0.00195625 0
0 0.00146695 0
0 0.00100072 0
0 0.000567694 0
0 0.000180434 0
0 0.000484247 0
0 0.00137476 0
0 0.00213233 0
0 0.00279278 0
0 0.00337624 0
0 0.00389454 0
0 0.00435498 0
0 0.00476234 0
0 0.00511997 0
0 0.00543042 0
0 0.00569574 0
0 0.0059177 0
0 0.00609785 0
0 0.00623762 0
0 0.0063383 0
0 0.0064011 0
0 0.00642711 0
0 0.00641732 0
0 0.00637266 0
0 0.00629401 0
0 0.00618219 0
0 0.00603807 0
0 0.00586255 0
0 0.00565662 0
0 0.00542145 0
0 0.00515838 0
0 0.00486904 0
0 0.00455534 0
0 0.00421954 0
0 0.00386428 0
0 0.00349259 0
0 0.00310795 0
0 0.00271425 0
0 0.00231585 0
0 0.00191756 0
0 0.00152471 0
0 0.00114322 0
0 0.000779811 0
0 0.000442353 0
0 0.000140592 0
0 0.000372847 0
0 0.00105851 0
0 0.00164187 0
0 0.00215051 0
0 0.00259995 0
0 0.00299929 0
0 0.00335415 0
0 0.00366819 0
0 0.00394397 0
0 0.00418344 0
0 0.00438815 0
0 0.00455943 0
0 0.00469845 0
0 0.0048063 0
0 0.00488395 0
0 0.00493231 0
0 0.00495221 0
0 0.00494442 0
0 0.00490966 0
0 0.0048486 0
0 0.00476191 0
0 0.00465027 0
0 0.00451438 0
0 0.00435507 0
0 0.00417323 0
0 0.00396996 0
0 0.00374652 0
0 0.00350441 0
0 0.0032454 0
0 0.00297155 0
0 0.00268519 0
0 0.00238902 0
0 0.00208603 0
0 0.00177956 0
0 0.00147329 0
0 0.00117132 0
0 0.000878165 0
0 0.000598968 0
0 0.000339752 0
0 0.00010798 0
0 0.00028072 0
0 0.000796977 0
0 0.00123623 0
0 0.00161928 0
0 0.00195779 0
0 0.00225863 0
0 0.00252602 0
0 0.00276271 0
0 0.00297063 0
0 0.0031512 0
0 0.0033056 0
0 0.00343479 0
0 0.00353967 0
0 0.00362101 0
0 0.00367955 0
0 0.00371596 0
0 0.00373086 0
0 0.00372483 0
0 0.00369841 0
0 0.00365212 0
0 0.00358646 0
0 0.00350196 0
0 0.00339918 0
0 0.00327874 0
0 0.00314135 0
0 0.00298784 0
0 0.00281919 0
0 0.00263654 0
0 0.00244124 0
0 0.00223485 0
0 0.00201915 0
0 0.00179615 0
0 0.00156812 0
0 0.00133755 0
0 0.00110723 0
0 0.000880196 0
0 0.000659849 0
0 0.000450034 0
0 0.000255262 0
0 8.11256e-05 0
0 0.000203615 0
0 0.000578077 0
0 0.000896708 0
0 0.00117459 0
0 0.0014202 0
0 0.00163851 0
0 0.00183258 0
0 0.00200441 0
0 0.00215537 0
0 0.00228651 0
0 0.00239865 0
0 0.0024925 0
0 0.00256868 0
0 0.00262777 0
0 0.00267027 0
0 0.00269668 0