# vtk DataFile Version 2.0
Presion
ASCII

DATASET STRUCTURED_GRID
DIMENSIONS   40   40   20

POINTS   32000   double
0.0125   0.0125   0.025
0.0375   0.0125   0.025
0.0625   0.0125   0.025
0.0875   0.0125   0.025
0.1125   0.0125   0.025
0.1375   0.0125   0.025
0.1625   0.0125   0.025
0.1875   0.0125   0.025
0.2125   0.0125   0.025
0.2375   0.0125   0.025
0.2625   0.0125   0.025
0.2875   0.0125   0.025
0.3125   0.0125   0.025
0.3375   0.0125   0.025
0.3625   0.0125   0.025
0.3875   0.0125   0.025
0.4125   0.0125   0.025
0.4375   0.0125   0.025
0.4625   0.0125   0.025
0.4875   0.0125   0.025
0.5125   0.0125   0.025
0.5375   0.0125   0.025
0.5625   0.0125   0.025
0.5875   0.0125   0.025
0.6125   0.0125   0.025
0.6375   0.0125   0.025
0.6625   0.0125   0.025
0.6875   0.0125   0.025
0.7125   0.0125   0.025
0.7375   0.0125   0.025
0.7625   0.0125   0.025
0.7875   0.0125   0.025
0.8125   0.0125   0.025
0.8375   0.0125   0.025
0.8625   0.0125   0.025
0.8875   0.0125   0.025
0.9125   0.0125   0.025
0.9375   0.0125   0.025
0.9625   0.0125   0.025
0.9875   0.0125   0.025
0.0125   0.0375   0.025
0.0375   0.0375   0.025
0.0625   0.0375   0.025
0.0875   0.0375   0.025
0.1125   0.0375   0.025
0.1375   0.0375   0.025
0.1625   0.0375   0.025
0.1875   0.0375   0.025
0.2125   0.0375   0.025
0.2375   0.0375   0.025
0.2625   0.0375   0.025
0.2875   0.0375   0.025
0.3125   0.0375   0.025
0.3375   0.0375   0.025
0.3625   0.0375   0.025
0.3875   0.0375   0.025
0.4125   0.0375   0.025
0.4375   0.0375   0.025
0.4625   0.0375   0.025
0.4875   0.0375   0.025
0.5125   0.0375   0.025
0.5375   0.0375   0.025
0.5625   0.0375   0.025
0.5875   0.0375   0.025
0.6125   0.0375   0.025
0.6375   0.0375   0.025
0.6625   0.0375   0.025
0.6875   0.0375   0.025
0.7125   0.0375   0.025
0.7375   0.0375   0.025
0.7625   0.0375   0.025
0.7875   0.0375   0.025
0.8125   0.0375   0.025
0.8375   0.0375   0.025
0.8625   0.0375   0.025
0.8875   0.0375   0.025
0.9125   0.0375   0.025
0.9375   0.0375   0.025
0.9625   0.0375   0.025
0.9875   0.0375   0.025
0.0125   0.0625   0.025
0.0375   0.0625   0.025
0.0625   0.0625   0.025
0.0875   0.0625   0.025
0.1125   0.0625   0.025
0.1375   0.0625   0.025
0.1625   0.0625   0.025
0.1875   0.0625   0.025
0.2125   0.0625   0.025
0.2375   0.0625   0.025
0.2625   0.0625   0.025
0.2875   0.0625   0.025
0.3125   0.0625   0.025
0.3375   0.0625   0.025
0.3625   0.0625   0.025
0.3875   0.0625   0.025
0.4125   0.0625   0.025
0.4375   0.0625   0.025
0.4625   0.0625   0.025
0.4875   0.0625   0.025
0.5125   0.0625   0.025
0.5375   0.0625   0.025
0.5625   0.0625   0.025
0.5875   0.0625   0.025
0.6125   0.0625   0.025
0.6375   0.0625   0.025
0.6625   0.0625   0.025
0.6875   0.0625   0.025
0.7125   0.0625   0.025
0.7375   0.0625   0.025
0.7625   0.0625   0.025
0.7875   0.0625   0.025
0.8125   0.0625   0.025
0.8375   0.0625   0.025
0.8625   0.0625   0.025
0.8875   0.0625   0.025
0.9125   0.0625   0.025
0.9375   0.0625   0.025
0.9625   0.0625   0.025
0.9875   0.0625   0.025
0.0125   0.0875   0.025
0.0375   0.0875   0.025
0.0625   0.0875   0.025
0.0875   0.0875   0.025
0.1125   0.0875   0.025
0.1375   0.0875   0.025
0.1625   0.0875   0.025
0.1875   0.0875   0.025
0.2125   0.0875   0.025
0.2375   0.0875   0.025
0.2625   0.0875   0.025
0.2875   0.0875   0.025
0.3125   0.0875   0.025
0.3375   0.0875   0.025
0.3625   0.0875   0.025
0.3875   0.0875   0.025
0.4125   0.0875   0.025
0.4375   0.0875   0.025
0.4625   0.0875   0.025
0.4875   0.0875   0.025
0.5125   0.0875   0.025
0.5375   0.0875   0.025
0.5625   0.0875   0.025
0.5875   0.0875   0.025
0.6125   0.0875   0.025
0.6375   0.0875   0.025
0.6625   0.0875   0.025
0.6875   0.0875   0.025
0.7125   0.0875   0.025
0.7375   0.0875   0.025
0.7625   0.0875   0.025
0.7875   0.0875   0.025
0.8125   0.0875   0.025
0.8375   0.0875   0.025
0.8625   0.0875   0.025
0.8875   0.0875   0.025
0.9125   0.0875   0.025
0.9375   0.0875   0.025
0.9625   0.0875   0.025
0.9875   0.0875   0.025
0.0125   0.1125   0.025
0.0375   0.1125   0.025
0.0625   0.1125   0.025
0.0875   0.1125   0.025
0.1125   0.1125   0.025
0.1375   0.1125   0.025
0.1625   0.1125   0.025
0.1875   0.1125   0.025
0.2125   0.1125   0.025
0.2375   0.1125   0.025
0.2625   0.1125   0.025
0.2875   0.1125   0.025
0.3125   0.1125   0.025
0.3375   0.1125   0.025
0.3625   0.1125   0.025
0.3875   0.1125   0.025
0.4125   0.1125   0.025
0.4375   0.1125   0.025
0.4625   0.1125   0.025
0.4875   0.1125   0.025
0.5125   0.1125   0.025
0.5375   0.1125   0.025
0.5625   0.1125   0.025
0.5875   0.1125   0.025
0.6125   0.1125   0.025
0.6375   0.1125   0.025
0.6625   0.1125   0.025
0.6875   0.1125   0.025
0.7125   0.1125   0.025
0.7375   0.1125   0.025
0.7625   0.1125   0.025
0.7875   0.1125   0.025
0.8125   0.1125   0.025
0.8375   0.1125   0.025
0.8625   0.1125   0.025
0.8875   0.1125   0.025
0.9125   0.1125   0.025
0.9375   0.1125   0.025
0.9625   0.1125   0.025
0.9875   0.1125   0.025
0.0125   0.1375   0.025
0.0375   0.1375   0.025
0.0625   0.1375   0.025
0.0875   0.1375   0.025
0.1125   0.1375   0.025
0.1375   0.1375   0.025
0.1625   0.1375   0.025
0.1875   0.1375   0.025
0.2125   0.1375   0.025
0.2375   0.1375   0.025
0.2625   0.1375   0.025
0.2875   0.1375   0.025
0.3125   0.1375   0.025
0.3375   0.1375   0.025
0.3625   0.1375   0.025
0.3875   0.1375   0.025
0.4125   0.1375   0.025
0.4375   0.1375   0.025
0.4625   0.1375   0.025
0.4875   0.1375   0.025
0.5125   0.1375   0.025
0.5375   0.1375   0.025
0.5625   0.1375   0.025
0.5875   0.1375   0.025
0.6125   0.1375   0.025
0.6375   0.1375   0.025
0.6625   0.1375   0.025
0.6875   0.1375   0.025
0.7125   0.1375   0.025
0.7375   0.1375   0.025
0.7625   0.1375   0.025
0.7875   0.1375   0.025
0.8125   0.1375   0.025
0.8375   0.1375   0.025
0.8625   0.1375   0.025
0.8875   0.1375   0.025
0.9125   0.1375   0.025
0.9375   0.1375   0.025
0.9625   0.1375   0.025
0.9875   0.1375   0.025
0.0125   0.1625   0.025
0.0375   0.1625   0.025
0.0625   0.1625   0.025
0.0875   0.1625   0.025
0.1125   0.1625   0.025
0.1375   0.1625   0.025
0.1625   0.1625   0.025
0.1875   0.1625   0.025
0.2125   0.1625   0.025
0.2375   0.1625   0.025
0.2625   0.1625   0.025
0.2875   0.1625   0.025
0.3125   0.1625   0.025
0.3375   0.1625   0.025
0.3625   0.1625   0.025
0.3875   0.1625   0.025
0.4125   0.1625   0.025
0.4375   0.1625   0.025
0.4625   0.1625   0.025
0.4875   0.1625   0.025
0.5125   0.1625   0.025
0.5375   0.1625   0.025
0.5625   0.1625   0.025
0.5875   0.1625   0.025
0.6125   0.1625   0.025
0.6375   0.1625   0.025
0.6625   0.1625   0.025
0.6875   0.1625   0.025
0.7125   0.1625   0.025
0.7375   0.1625   0.025
0.7625   0.1625   0.025
0.7875   0.1625   0.025
0.8125   0.1625   0.025
0.8375   0.1625   0.025
0.8625   0.1625   0.025
0.8875   0.1625   0.025
0.9125   0.1625   0.025
0.9375   0.1625   0.025
0.9625   0.1625   0.025
0.9875   0.1625   0.025
0.0125   0.1875   0.025
0.0375   0.1875   0.025
0.0625   0.1875   0.025
0.0875   0.1875   0.025
0.1125   0.1875   0.025
0.1375   0.1875   0.025
0.1625   0.1875   0.025
0.1875   0.1875   0.025
0.2125   0.1875   0.025
0.2375   0.1875   0.025
0.2625   0.1875   0.025
0.2875   0.1875   0.025
0.3125   0.1875   0.025
0.3375   0.1875   0.025
0.3625   0.1875   0.025
0.3875   0.1875   0.025
0.4125   0.1875   0.025
0.4375   0.1875   0.025
0.4625   0.1875   0.025
0.4875   0.1875   0.025
0.5125   0.1875   0.025
0.5375   0.1875   0.025
0.5625   0.1875   0.025
0.5875   0.1875   0.025
0.6125   0.1875   0.025
0.6375   0.1875   0.025
0.6625   0.1875   0.025
0.6875   0.1875   0.025
0.7125   0.1875   0.025
0.7375   0.1875   0.025
0.7625   0.1875   0.025
0.7875   0.1875   0.025
0.8125   0.1875   0.025
0.8375   0.1875   0.025
0.8625   0.1875   0.025
0.8875   0.1875   0.025
0.9125   0.1875   0.025
0.9375   0.1875   0.025
0.9625   0.1875   0.025
0.9875   0.1875   0.025
0.0125   0.2125   0.025
0.0375   0.2125   0.025
0.0625   0.2125   0.025
0.0875   0.2125   0.025
0.1125   0.2125   0.025
0.1375   0.2125   0.025
0.1625   0.2125   0.025
0.1875   0.2125   0.025
0.2125   0.2125   0.025
0.2375   0.2125   0.025
0.2625   0.2125   0.025
0.2875   0.2125   0.025
0.3125   0.2125   0.025
0.3375   0.2125   0.025
0.3625   0.2125   0.025
0.3875   0.2125   0.025
0.4125   0.2125   0.025
0.4375   0.2125   0.025
0.4625   0.2125   0.025
0.4875   0.2125   0.025
0.5125   0.2125   0.025
0.5375   0.2125   0.025
0.5625   0.2125   0.025
0.5875   0.2125   0.025
0.6125   0.2125   0.025
0.6375   0.2125   0.025
0.6625   0.2125   0.025
0.6875   0.2125   0.025
0.7125   0.2125   0.025
0.7375   0.2125   0.025
0.7625   0.2125   0.025
0.7875   0.2125   0.025
0.8125   0.2125   0.025
0.8375   0.2125   0.025
0.8625   0.2125   0.025
0.8875   0.2125   0.025
0.9125   0.2125   0.025
0.9375   0.2125   0.025
0.9625   0.2125   0.025
0.9875   0.2125   0.025
0.0125   0.2375   0.025
0.0375   0.2375   0.025
0.0625   0.2375   0.025
0.0875   0.2375   0.025
0.1125   0.2375   0.025
0.1375   0.2375   0.025
0.1625   0.2375   0.025
0.1875   0.2375   0.025
0.2125   0.2375   0.025
0.2375   0.2375   0.025
0.2625   0.2375   0.025
0.2875   0.2375   0.025
0.3125   0.2375   0.025
0.3375   0.2375   0.025
0.3625   0.2375   0.025
0.3875   0.2375   0.025
0.4125   0.2375   0.025
0.4375   0.2375   0.025
0.4625   0.2375   0.025
0.4875   0.2375   0.025
0.5125   0.2375   0.025
0.5375   0.2375   0.025
0.5625   0.2375   0.025
0.5875   0.2375   0.025
0.6125   0.2375   0.025
0.6375   0.2375   0.025
0.6625   0.2375   0.025
0.6875   0.2375   0.025
0.7125   0.2375   0.025
0.7375   0.2375   0.025
0.7625   0.2375   0.025
0.7875   0.2375   0.025
0.8125   0.2375   0.025
0.8375   0.2375   0.025
0.8625   0.2375   0.025
0.8875   0.2375   0.025
0.9125   0.2375   0.025
0.9375   0.2375   0.025
0.9625   0.2375   0.025
0.9875   0.2375   0.025
0.0125   0.2625   0.025
0.0375   0.2625   0.025
0.0625   0.2625   0.025
0.0875   0.2625   0.025
0.1125   0.2625   0.025
0.1375   0.2625   0.025
0.1625   0.2625   0.025
0.1875   0.2625   0.025
0.2125   0.2625   0.025
0.2375   0.2625   0.025
0.2625   0.2625   0.025
[...]
POINT_DATA   32000
SCALARS Presion double
LOOKUP_TABLE   Presion

0 0 0 0 0 0 0 0 0 0 0 0 0 0 0 0 0 0 0 0 0 0 0 0 0 0 0 0 0 0 0 0 0 0 0 0 0 0 0 0 -0.00289994 -0.00327521 -0.00384375 -0.00442748 -0.00496849 -0.0054395 -0.00582383 -0.00611047 -0.00629251 -0.0063663 -0.00633053 -0.00618666 -0.00593706 -0.00558565 -0.00513743 -0.00459841 -0.00397567 -0.00327738 -0.00251295 -0.00169315 -0.000829668 6.27557e-05 0.000969379 0.00187366 0.00275798 0.00360393 0.00439286 0.00510632 0.00572677 0.00623816 0.00662673 0.00688113 0.00699353 0.00695955 0.00677839 0.00645262 0.00598834 0.00539878 0.00472713 0.00417241 -0.00350595 -0.0036235 -0.00398059 -0.00442942 -0.00488903 -0.00531332 -0.00567426 -0.00595411 -0.00614175 -0.00623061 -0.0062171 -0.00610131 -0.00588409 -0.00556818 -0.00515757 -0.00465732 -0.00407359 -0.00341366 -0.00268601 -0.00190043 -0.00106729 -0.000200876 0.000685357 0.00157583 0.00245377 0.0033015 0.00410082 0.00483359 0.0054823 0.00603077 0.00646512 0.00677373 0.00694906 0.00698785 0.00689207 0.00667039 0.0063413 0.00594169 0.00555086 0.00535566 -0.00363582 -0.00375337 -0.00404427 -0.00442609 -0.00483508 -0.00522671 -0.00557068 -0.00584666 -0.00604123 -0.00614596 -0.00615547 -0.00606874 -0.00588522 -0.00560642 -0.00523513 -0.00477526 -0.00423179 -0.00361079 -0.0029195 -0.00216649 -0.00136058 -0.000515449 0.000356786 0.00124143 0.00212238 0.00298232 0.00380313 0.00456641 0.0052541 0.00584931 0.00633745 0.00670597 0.00694711 0.00705785 0.00704141 0.00690898 0.00668278 0.00640224 0.00613644 0.00600424 -0.00352559 -0.00372493 -0.00403168 -0.00440291 -0.00479578 -0.00517496 -0.00551364 -0.00579241 -0.00599774 -0.00612057 -0.00615448 -0.00609781 -0.00594877 -0.00570772 -0.00537625 -0.00495697 -0.00445351 -0.00387053 -0.00321386 -0.00249061 -0.00170795 -0.000878819 -1.40196e-05 0.000872576 0.00176534 0.00264706 0.00349931 0.00430298 0.00503894 0.00568897 0.00623716 0.00666932 0.00697659 0.00715507 0.00720749 0.0071446 0.00698725 0.00676957 0.00654345 0.00638119 -0.00330629 -0.00360723 -0.00396886 -0.00436635 -0.00477138 -0.00515794 -0.00550457 -0.00579473 -0.00601624 -0.00616049 -0.00622079 -0.00619528 -0.00608126 -0.0058781 -0.00558622 -0.00520692 -0.00474239 -0.00419579 -0.00357137 -0.00287471 -0.00211119 -0.00129295 -0.000429455 0.000466186 0.0013787 0.00229079 0.0031834 0.00403633 0.00482891 0.00554103 0.00615484 0.00665371 0.00702684 0.00726844 0.00737941 0.00736848 0.00725337 0.00706196 0.00683305 0.00661389 -0.00305387 -0.00345577 -0.00388826 -0.00433314 -0.00477023 -0.0051804 -0.00554722 -0.00585751 -0.00610115 -0.0062707 -0.00635975 -0.00636666 -0.00628815 -0.00612281 -0.00586998 -0.00552972 -0.00510279 -0.00459076 -0.00399626 -0.00332322 -0.00257517 -0.00176334 -0.000895839 1.50066e-05 0.000954236 0.0019043 0.00284536 0.00375578 0.00461295 0.00539434 0.00607955 0.00664875 0.0070884 0.00738995 0.00755167 0.00757957 0.00748811 0.00730035 0.00704722 0.00676432 -0.00281545 -0.003312 -0.00382026 -0.00432343 -0.00480521 -0.00525084 -0.00564778 -0.00598591 -0.00625733 -0.00645605 -0.00657628 -0.00661698 -0.00657453 -0.00644694 -0.00623268 -0.00593062 -0.00554012 -0.00506119 -0.00449478 -0.00384307 -0.00310766 -0.00229877 -0.00142303 -0.000491927 0.000479932 0.00147474 0.0024717 0.00344755 0.00437737 0.00523573 0.00599907 0.00664361 0.00715233 0.00751315 0.00772108 0.00777918 0.00769905 0.00750066 0.00721124 0.00686234 -0.00262251 -0.00320682 -0.00379095 -0.00435733 -0.00489114 -0.00538014 -0.00581452 -0.00618661 -0.00649057 -0.0067219 -0.00687563 -0.00695148 -0.00694575 -0.00685608 -0.00668019 -0.0064159 -0.00606124 -0.00561467 -0.0050754 -0.00444381 -0.00371941 -0.00291128 -0.00202439 -0.00106921 -5.98882e-05 0.000985584 0.00204545 0.00309466 0.00410567 0.0050497 0.00589942 0.00662634 0.00720915 0.00763147 0.00788448 0.00796806 0.00789138 0.00767277 0.00733863 0.00692095 -0.0024977 -0.00316403 -0.00382238 -0.00445366 -0.00504334 -0.00558053 -0.00605724 -0.00646774 -0.00680788 -0.00707461 -0.00726384 -0.00737618 -0.00740801 -0.00735676 -0.00721958 -0.00699334 -0.00667482 -0.00626092 -0.00574909 -0.00513781 -0.00442433 -0.00361635 -0.00271694 -0.0017353 -0.000684865 0.00041637 0.00154577 0.00267642 0.00377794 0.00481772 0.00576406 0.00658288 0.00724771 0.00773699 0.00803733 0.00814508 0.00806719 0.00782133 0.007435 0.00694347 -0.00245868 -0.00320285 -0.00393344 -0.00462972 -0.00527694 -0.00586492 -0.00638692 -0.00683869 -0.00721756 -0.00752178 -0.00774818 -0.0078983 -0.00796875 -0.00795692 -0.0078595 -0.00767254 -0.00739162 -0.0070121 -0.0065296 -0.00594055 -0.00523975 -0.00443321 -0.00352176 -0.00251296 -0.00141913 -0.000257981 0.000947183 0.00216764 0.00336995 0.00451728 0.00557284 0.00649605 0.0072542 0.00781945 0.0081729 0.00830671 0.00822551 0.00794685 0.00750062 0.00692724 -0.00252035 -0.00333969 -0.00414087 -0.00490161 -0.00560677 -0.00624662 -0.00681539 -0.00731002 -0.00772919 -0.00807236 -0.0083373 -0.00852652 -0.00863699 -0.00866618 -0.00861048 -0.0084652 -0.00822478 -0.00788303 -0.00743367 -0.00687089 -0.0061868 -0.00538528 -0.00446449 -0.00342983 -0.00229202 -0.00106798 0.000218665 0.00153753 0.00285204 0.0041207 0.00530091 0.00634448 0.00721118 0.00786551 0.00828175 0.00844689 0.00836271 0.00804676 0.0075321 0.00686569 -0.00269631 -0.00358946 -0.00446012 -0.00528461 -0.00604745 -0.0067393 -0.00735524 -0.00789338 -0.00835363 -0.00873668 -0.00904132 -0.00927108 -0.00942341 -0.009496 -0.00948505 -0.00938525 -0.00918993 -0.00889136 -0.00848122 -0.00795126 -0.00729059 -0.00650041 -0.0055757 -0.00451902 -0.00333877 -0.00205043 -0.000677407 0.000748596 0.00218788 0.0035939 0.00491744 0.00610147 0.00709667 0.00785808 0.00835143 0.00855705 0.00847291 0.00811624 0.00752367 0.00674975 -0.00299979 -0.00396647 -0.00490608 -0.0057937 -0.00661364 -0.00735701 -0.00801982 -0.00860139 -0.00910292 -0.00952644 -0.00987186 -0.0101438 -0.0103404 -0.0104596 -0.0104977 -0.0104488 -0.0103051 -0.0100575 -0.00969527 -0.00920762 -0.00858027 -0.00781111 -0.00689121 -0.00581949 -0.00460111 -0.00324921 -0.00178617 -0.000244471 0.00133325 0.00289512 0.00438442 0.00573389 0.00688318 0.00777563 0.0083661 0.00862619 0.0085485 0.00814916 0.00746837 0.00656905 -0.00344427 -0.00448505 -0.00549362 -0.00644397 -0.00732028 -0.00811433 -0.00882322 -0.00944761 -0.00999021 -0.0104545 -0.0108418 -0.0111579 -0.0114017 -0.0115719 -0.0116647 -0.0116738 -0.0115905 -0.011404 -0.0111015 -0.0106691 -0.0100887 -0.00935415 -0.00845186 -0.007376 -0.00612738 -0.00471557 -0.00316085 -0.00149559 0.000235073 0.00197377 0.00365543 0.00520101 0.0065368 0.0075916 0.00830636 0.00864108 0.00858073 0.00813896 0.00735916 0.00631314 -0.00404392 -0.00516003 -0.00623807 -0.00725093 -0.00818287 -0.0090265 -0.00978026 -0.0104464 -0.0110295 -0.0115348 -0.011965 -0.0123275 -0.0126223 -0.0128486 -0.0130032 -0.0130793 -0.0130675 -0.0129554 -0.0127276 -0.012367 -0.0118514 -0.0111697 -0.0103025 -0.00923826 -0.00797181 -0.00650768 -0.00486252 -0.00306735 -0.001169 0.000769822 0.00267489 0.00445373 0.00601648 0.00727391 0.00814908 0.00858657 0.00856048 0.00807984 0.00719035 0.00597295 -0.00481378 -0.00600704 -0.00715545 -0.00823083 -0.00921761 -0.0101094 -0.0109065 -0.011613 -0.0122355 -0.0127815 -0.0132558 -0.0136671 -0.0140171 -0.0143059 -0.0145306 -0.0146846 -0.0147577 -0.0147358 -0.0146011 -0.014333 -0.0139047 -0.0132991 -0.0124902 -0.0114589 -0.0101926 -0.00868885 -0.00695864 -0.0050299 -0.00294982 -0.000785883 0.00137799 0.0034342 0.00527362 0.00678468 0.00786752 0.00844611 0.00847925 0.00796818 0.00695937 0.00554277 -0.00576993 -0.00704266 -0.00826279 -0.00940086 -0.0104415 -0.0113798 -0.0122179 -0.0129626 -0.013623 -0.014209 -0.0147281 -0.0151908 -0.0156004 -0.0159586 -0.016263 -0.0165073 -0.0166807 -0.0167676 -0.0167479 -0.0165969 -0.016283 -0.0157821 -0.0150604 -0.0140899 -0.0128483 -0.0113239 -0.0095196 -0.00745787 -0.00518422 -0.00276972 -0.000308048 0.00207664 0.00425251 0.0060806 0.0074318 0.0082027 0.00833064 0.0078045 0.00666907 0.00502269 -0.00692949 -0.00828464 -0.00957825 -0.0107793 -0.0118727 -0.012855 -0.013731 -0.0145106 -0.0152062 -0.0158307 -0.0163946 -0.0169107 -0.0173844 -0.0178189 -0.0182132 -0.0185613 -0.018852 -0.0190686 -0.0191882 -0.0191825 -0.0190144 -0.0186519 -0.0180523 -0.0171769 -0.0159918 -0.0144731 -0.0126128 -0.0104247 -0.0079499 -0.00526089 -0.00246041 0.000309919 0.00289219 0.00511433 0.00681026 0.00784045 0.00811236 0.00759603 0.00633078 0.004422 -0.00831063 -0.00975197 -0.0111214 -0.0123857 -0.01353 -0.0145528 -0.0154622 -0.0162718 -0.0169982 -0.017658 -0.0182653 -0.0188356 -0.0193769 -0.0198945 -0.0203886 -0.0208541 -0.0212799 -0.0216479 -0.0219332 -0.0221033 -0.0221155 -0.0219294 -0.021492 -0.0207522 -0.0196624 -0.0181837 -0.0162937 -0.0139938 -0.0113169 -0.00833371 -0.00515413 -0.00193711 0.00113052 0.00383757 0.00597199 0.00734707 0.00782917 0.00736021 0.0059683 0.00376349 -0.00993255 -0.0114651 -0.0129134 -0.0142412 -0.0154335 -0.0164915 -0.0174274 -0.0182596 -0.0190097 -0.019699 -0.0203462 -0.0209695 -0.0215802 -0.0221858 -0.0227885 -0.0233842 -0.023962 -0.0245032 -0.0249805 -0.0253576 -0.0255862 -0.0256164 -0.0253845 -0.0248257 -0.0238759 -0.0224789 -0.0205941 -0.0182062 -0.0153354 -0.012046 -0.00845156 -0.00472665 -0.00108862 0.00220667 0.00489127 0.00671785 0.0074969 0.00712923 0.00562309 0.00308917 -0.0118157 -0.0134464 -0.0149776 -0.0163686 -0.0176044 -0.0186895 -0.0196414 -0.020485 -0.0212479 -0.0219574 -0.0226372 -0.0233091 -0.023988 -0.0246841 -0.0254016 -0.0261378 -0.0268824 -0.0276161 -0.0283098 -0.0289233 -0.029403 -0.029689 -0.0297063 -0.0293752 -0.0286138 -0.0273455 -0.0255083 -0.0230659 -0.02002 -0.0164233 -0.0123874 -0.00809859 -0.00380401 0.000191691 0.0035547 0.00596157 0.00714812 0.00695607 0.00536087 0.00246734 -0.0139819 -0.0157206 -0.01734 -0.0187932 -0.0200653 -0.0211652 -0.0221177 -0.0229558 -0.0237153 -0.0244303 -0.0251308 -0.0258424 -0.0265841 -0.027369 -0.0282035 -0.0290864 -0.0300083 -0.0309497 -0.0318797 -0.0327543 -0.033515 -0.0340919 -0.0343983 -0.034339 -0.0338132 -0.0327222 -0.0309794 -0.0285234 -0.0253324 -0.0214403 -0.01695 -0.0120526 -0.00702116 -0.00221034 0.00197181 0.0051091 0.00683979 0.00692223 0.00527998 0.00200163 -0.0164554 -0.018316 -0.0200304 -0.0215434 -0.0228403 -0.0239365 -0.0248668 -0.0256754 -0.0264079 -0.0271071 -0.0278099 -0.0285466 -0.0293402 -0.0302068 -0.0311551 -0.0321855 -0.0332893 -0.0344468 -0.0356255 -0.0367783 -0.0378414 -0.0387352 -0.0393617 -0.0396102 -0.0393604 -0.0384905 -0.0368877 -0.0344623 -0.031164 -0.0270013 -0.0220599 -0.0165264 -0.010692 -0.00495749 0.000189818 0.00422537 0.00666348 0.00714759 0.00552181 0.00184197 -0.0192641 -0.0212665 -0.0230846 -0.0246523 -0.0259559 -0.027021 -0.0278966 -0.0286414 -0.029314 -0.0299673 -0.0306466 -0.0313867 -0.0322148 -0.0331498 -0.0342022 -0.0353738 -0.0366565 -0.0380301 -0.0394606 -0.0408974 -0.0422723 -0.0434958 -0.0444593 -0.0450368 -0.0450894 -0.0444721 -0.0430457 -0.0406903 -0.037324 -0.0329242 -0.0275505 -0.0213739 -0.0146914 -0.00794091 -0.00168715 0.00342508 0.00675865 0.00780285 0.00628349 0.00219796 -0.022442 -0.0246144 -0.0265469 -0.0281592 -0.0294416 -0.0304355 -0.0312102 -0.0318441 -0.0324123 -0.03298 -0.0336011 -0.0343152 -0.0351533 -0.0361364 -0.0372763 -0.0385754 -0.0400254 -0.0416055 -0.0432795 -0.0449933 -0.0466741 -0.0482231 -0.0495212 -0.0504288 -0.0507887 -0.0504348 -0.0492018 -0.0469406 -0.0435363 -0.0389317 -0.0331536 -0.0263453 -0.0187946 -0.0109606 -0.00347521 0.00289263 0.00732943 0.00912486 0.00783354 0.00335495 -0.0260334 -0.0284154 -0.0304743 -0.0321129 -0.0333313 -0.0341959 -0.0348057 -0.0352656 -0.0356713 -0.0361019 -0.036621 -0.037272 -0.0380889 -0.0390934 -0.0402975 -0.041703 -0.0433005 -0.0450674 -0.0469647 -0.0489343 -0.0508986 -0.0527491 -0.0543575 -0.0555707 -0.0562157 -0.0561065 -0.0550548 -0.0528842 -0.0494489 -0.0446566 -0.0384974 -0.0310773 -0.0226594 -0.0137025 -0.00488605 0.0029053 0.00866509 0.0114354 0.0105308 0.00569353 -0.0300998 -0.0327467 -0.0349435 -0.0365755 -0.0376642 -0.0383165 -0.0386741 -0.0388773 -0.039047 -0.0392778 -0.0396421 -0.0401861 -0.0409447 -0.0419388 -0.0431784 -0.0446632 -0.0463812 -0.0483064 -0.0503958 -0.0525865 -0.0547951 -0.0569035 -0.0587739 -0.0602411 -0.0611173 -0.0611993 -0.0602787 -0.058156 -0.0546582 -0.0496613 -0.0431199 -0.0350979 -0.0258201 -0.015723 -0.0055042 0.00385849 0.0111642 0.0151639 0.0148481 0.00971365 -0.0347314 -0.037719 -0.0400599 -0.0416275 -0.0424866 -0.0428091 -0.0427977 -0.0426389 -0.0424828 -0.0424401 -0.0425898 -0.0429783 -0.0436383 -0.0445873 -0.0458308 -0.0473641 -0.0491704 -0.0512185 -0.05346 -0.0558252 -0.0582243 -0.0605284 -0.0625904 -0.0642329 -0.0652547 -0.0654371 -0.0645548 -0.062389 -0.0587455 -0.0534751 -0.0465018 -0.0378499 -0.0276998 -0.0164459 -0.00477166 0.00628955 0.0153618 0.0208755 0.0214018 0.0160657 -0.0400672 -0.0434971 -0.0459727 -0.0473748 -0.0478527 -0.0476808 -0.0471473 -0.046496 -0.045909 -0.0455104 -0.0453817 -0.0455648 -0.0460864 -0.046956 -0.0481721 -0.0497222 -0.0515824 -0.0537143 -0.0560616 -0.0585463 -0.0610707 -0.0634938 -0.0656581 -0.0673742 -0.0684273 -0.0685843 -0.0676049 -0.0652547 -0.061323 -0.0556427 -0.0481169 -0.038738 -0.0276456 -0.0151821 -0.00198743 0.0108955 0.0219579 0.029305 0.0309917 0.0255943 -0.046329 -0.0503325 -0.0528952 -0.0539569 -0.0538244 -0.0529302 -0.0516778 -0.0503778 -0.049242 -0.048401 -0.0479311 -0.0478628 -0.0482103 -0.048971 -0.0501318 -0.0516697 -0.0535506 -0.0557263 -0.0581306 -0.0606753 -0.0632524 -0.0657078 -0.0678724 -0.0695434 -0.0704917 -0.0704699 -0.0692225 -0.0665008 -0.0620805 -0.0557819 -0.0474958 -0.0371954 -0.0249909 -0.0111765 0.00366867 0.0185367 0.0318449 0.0414008 0.044658 0.0394042 -0.0538844 -0.058618 -0.0611357 -0.0615551 -0.0604669 -0.05854 -0.056323 -0.0541944 -0.0523847 -0.0510174 -0.0501507 -0.049794 -0.0499413 -0.050572 -0.051657 -0.0531592 -0.0550315 -0.0572135 -0.0596268 -0.0621709 -0.0647258 -0.0671228 -0.0691795 -0.0706783 -0.0713745 -0.0710045 -0.069296 -0.0659842 -0.0608298 -0.0536409 -0.0442998 -0.03277 -0.0191475 -0.00369268 0.0130751 0.0302131 0.0461264 0.0583798 0.0637666 0.0589722 -0.0633636 -0.0689795 -0.0711382 -0.0703963 -0.0678378 -0.0644637 -0.060985 -0.0578309 -0.0552244 -0.0532584 -0.0519544 -0.0512875 -0.0512226 -0.0517143 -0.0527131 -0.0541642 -0.0560051 -0.0581607 -0.0605388 -0.0630247 -0.0654849 -0.067735 -0.0695778 -0.0707793 -0.0710777 -0.0701905 -0.0678255 -0.0636967 -0.0575436 -0.0491549 -0.0383982 -0.0252259 -0.00972657 0.00785744 0.027053 0.0469907 0.0661107 0.0817961 0.0901464 0.0863452 -0.075891 -0.0824298 -0.0835315 -0.0807427 -0.0759585 -0.0705992 -0.0655155 -0.0611348 -0.0576246 -0.0550104 -0.0532524 -0.0522756 -0.052005 -0.0523643 -0.053279 -0.054674 -0.0564689 -0.0585727 -0.0608779 -0.0632551 -0.065556 -0.0675802 -0.0691147 -0.0699085 -0.0696811 -0.0681285 -0.0649346 -0.0597854 -0.0523888 -0.0424989 -0.0299487 -0.014659 0.00330559 0.0237259 0.0461685 0.069838 0.0932373 0.113608 0.126309 0.124511 -0.0935638 -0.100621 -0.0991664 -0.0928389 -0.0847482 -0.076734 -0.0696738 -0.0638849 -0.0594003 -0.0561277 -0.0539347 -0.0526782 -0.052233 -0.0524857 -0.0533338 -0.0546799 -0.0564251 -0.058462 -0.0606676 -0.0628979 -0.0649898 -0.0667279 -0.0678836 -0.0681891 -0.0673447 -0.065024 -0.0608834 -0.054574 -0.0457597 -0.0341391 -0.0194784 -0.00162262 0.0194421 0.0435734 0.0704216 0.0993053 0.128847 0.156182 0.175784 0.178092 -0.120503 -0.126225 -0.119062 -0.106747 -0.0938667 -0.0824178 -0.0730294 -0.0657169 -0.0602622 -0.0563885 -0.053835 -0.0523726 -0.0518171 -0.0520145 -0.0528337 -0.0541553 -0.0558626 -0.0578331 -0.05993 -0.0619959 -0.0638547 -0.0652781 -0.0660239 -0.0658094 -0.0643172 -0.0611995 -0.0560842 -0.0485835 -0.0383068 -0.0248768 -0.00795425 0.0127537 0.0374349 0.0661516 0.0987891 0.134954 0.173616 0.212028 0.243558 0.254622 -0.1653 -0.163331 -0.144026 -0.121878 -0.102317 -0.0866642 -0.0747518 -0.0659807 -0.059718 -0.0554242 -0.0526767 -0.051149 -0.0505964 -0.050827 -0.0516842 -0.0530308 -0.0547364 -0.0566664 -0.0586739 -0.0605917 -0.0622336 -0.0633628 -0.063727 -0.0630323 -0.0609481 -0.0571089 -0.0511172 -0.0425475 -0.0309519 -0.0158649 0.00318699 0.0266952 0.0551371 0.0889775 0.128638 0.174442 0.22636 0.282749 0.336311 0.366886 -0.246921 -0.217132 -0.173164 -0.135613 -0.107454 -0.087338 -0.0732644 -0.0635486 -0.0569612 -0.0526476 -0.0500205 -0.0486693 -0.0483043 -0.0487096 -0.049715 -0.0511746 -0.0529517 -0.054907 -0.0568887 -0.0587256 -0.0602264 -0.0611519 -0.0612446 -0.0602055 -0.057697 -0.0533431 -0.0467287 -0.0373996 -0.0248589 -0.00856023 0.0121056 0.0378507 0.0695185 0.108166 0.155156 0.212276 0.281851 0.366079 0.461118 0.537564 -0.40799 -0.289253 -0.197956 -0.139355 -0.103069 -0.0804097 -0.0660068 -0.0567578 -0.0508641 -0.0472532 -0.0452617 -0.0444602 -0.0445595 -0.0453511 -0.0466732 -0.0483872 -0.0503627 -0.0524651 -0.0545466 -0.0564394 -0.0579534 -0.0588552 -0.058888 -0.0577549 -0.0551192 -0.0506036 -0.0437874 -0.0342029 -0.021327 -0.0045631 0.0167903 0.0436093 0.0770472 0.11875 0.171225 0.238514 0.32736 0.449014 0.617262 0.810245 -0.747351 -0.3397 -0.181159 -0.11257 -0.0788629 -0.0605881 -0.0500491 -0.0438243 -0.0402325 -0.0383746 -0.0377326 -0.0379856 -0.0389218 -0.0403878 -0.0422616 -0.0444344 -0.046798 -0.0492359 -0.0516149 -0.0537799 -0.0555504 -0.0567064 -0.0569991 -0.0561408 -0.0538037 -0.0496186 -0.0431721 -0.0340025 -0.0215908 -0.00534118 0.015454 0.0416878 0.0745689 0.115902 0.168691 0.238574 0.337475 0.492476 0.761705 1.26126 0 0 0 0 0 0 0 0 0 0 0 0 0 0 0 0 0 0 0 0 0 0 0 0 0 0 0 0 0 0 0 0 0 0 0 0 0 0 0 0 -0.00287659 -0.00325692 -0.00376033 -0.0042327 -0.00463612 -0.00495818 -0.00519292 -0.00533702 -0.00538891 -0.00534863 -0.0052176 -0.00499846 -0.00469486 -0.00431147 -0.00385391 -0.00332871 -0.0027434 -0.00210654 -0.00142778 -0.00071788 1.12787e-05 0.000746854 0.00147523 0.00218215 0.00285311 0.00347373 0.00403021 0.0045098 0.00490127 0.00519541 0.0053854 0.00546712 0.00543936 0.00530381 0.00506491 0.00472964 0.00430782 0.0038157 0.00329566 0.00291106 -0.00353252 -0.00365387 -0.00394559 -0.00427617 -0.00458368 -0.0048384 -0.00502502 -0.00513525 -0.00516477 -0.00511184 -0.0049766 -0.00476061 -0.00446665 -0.00409857 -0.00366128 -0.0031607 -0.00260378 -0.00199854 -0.00135413 -0.000680787 1.01153e-05 0.000706318 0.00139486 0.0020622 0.0026946 0.00327854 0.00380116 0.00425075 0.00461725 0.0048927 0.00507167 0.00515165 0.00513334 0.00502093 0.00482251 0.00455105 0.00422703 0.00388552 0.00359402 0.00349091 -0.00378151 -0.0038799 -0.00409075 -0.0043412 -0.0045826 -0.00478561 -0.00493297 -0.0050146 -0.00502486 -0.00496095 -0.00482216 -0.00460921 -0.00432404 -0.00396972 -0.00355038 -0.00307117 -0.00253831 -0.00195914 -0.00134214 -0.000696935 -3.4366e-05 0.000633828 0.00129518 0.00193656 0.00254461 0.00310616 0.00360872 0.00404098 0.00439339 0.00465865 0.0048322 0.00491269 0.0049024 0.00480753 0.00463883 0.00441261 0.00415293 0.00389569 0.00369502 0.0036274 -0.00384384 -0.00399309 -0.00419488 -0.00441397 -0.0046196 -0.00478968 -0.00490961 -0.00497023 -0.00496604 -0.00489408 -0.00475325 -0.00454375 -0.00426684 -0.00392485 -0.00352109 -0.00305989 -0.00254667 -0.00198795 -0.00139151 -0.000766305 -0.000122656 0.00052812 0.00117387 0.0018016 0.00239798 0.00294974 0.00344425 0.00387006 0.00421759 0.00447966 0.00465209 0.00473422 0.00472936 0.00464503 0.00449338 0.00429165 0.004063 0.00383736 0.00365125 0.00354251 -0.00383559 -0.00405484 -0.00428163 -0.00450043 -0.00469404 -0.00484824 -0.00495275 -0.00500069 -0.00498774 -0.00491144 -0.00477075 -0.00456561 -0.00429677 -0.00396588 -0.00357547 -0.00312904 -0.00263113 -0.00208744 -0.00150495 -0.000891987 -0.000258376 0.000384888 0.00102579 0.00165124 0.00224759 0.00280108 0.00329849 0.00372776 0.00407873 0.00434388 0.00451891 0.00460333 0.00460102 0.00452012 0.00437324 0.00417727 0.00395299 0.00372408 0.00351473 0.0033441 -0.00382167 -0.00411242 -0.00437883 -0.00461523 -0.00481323 -0.00496505 -0.00506464 -0.00510783 -0.00509192 -0.00501532 -0.00487736 -0.00467789 -0.00441729 -0.00409662 -0.00371766 -0.00328306 -0.00279647 -0.00226273 -0.00168804 -0.00108005 