# vtk DataFile Version 2.0
Presion
ASCII

DATASET STRUCTURED_GRID
DIMENSIONS   40   40   20

POINTS   32000   double
0.0125   0.0125   0.025
0.0375   0.0125   0.025
0.0625   0.0125   0.025
0.0875   0.0125   0.025
0.1125   0.0125   0.025
0.1375   0.0125   0.025
0.1625   0.0125   0.025
0.1875   0.0125   0.025
0.2125   0.0125   0.025
0.2375   0.0125   0.025
0.2625   0.0125   0.025
0.2875   0.0125   0.025
0.3125   0.0125   0.025
0.3375   0.0125   0.025
0.3625   0.0125   0.025
0.3875   0.0125   0.025
0.4125   0.0125   0.025
0.4375   0.0125   0.025
0.4625   0.0125   0.025
0.4875   0.0125   0.025
0.5125   0.0125   0.025
0.5375   0.0125   0.025
0.5625   0.0125   0.025
0.5875   0.0125   0.025
0.6125   0.0125   0.025
0.6375   0.0125   0.025
0.6625   0.0125   0.025
0.6875   0.0125   0.025
0.7125   0.0125   0.025
0.7375   0.0125   0.025
0.7625   0.0125   0.025
0.7875   0.0125   0.025
0.8125   0.0125   0.025
0.8375   0.0125   0.025
0.8625   0.0125   0.025
0.8875   0.0125   0.025
0.9125   0.0125   0.025
0.9375   0.0125   0.025
0.9625   0.0125   0.025
0.9875   0.0125   0.025
0.0125   0.0375   0.025
0.0375   0.0375   0.025
0.0625   0.0375   0.025
0.0875   0.0375   0.025
0.1125   0.0375   0.025
0.1375   0.0375   0.025
0.1625   0.0375   0.025
0.1875   0.0375   0.025
0.2125   0.0375   0.025
0.2375   0.0375   0.025
0.2625   0.0375   0.025
0.2875   0.0375   0.025
0.3125   0.0375   0.025
0.3375   0.0375   0.025
0.3625   0.0375   0.025
0.3875   0.0375   0.025
0.4125   0.0375   0.025
0.4375   0.0375   0.025
0.4625   0.0375   0.025
0.4875   0.0375   0.025
0.5125   0.0375   0.025
0.5375   0.0375   0.025
0.5625   0.0375   0.025
0.5875   0.0375   0.025
0.6125   0.0375   0.025
0.6375   0.0375   0.025
0.6625   0.0375   0.025
0.6875   0.0375   0.025
0.7125   0.0375   0.025
0.7375   0.0375   0.025
0.7625   0.0375   0.025
0.7875   0.0375   0.025
0.8125   0.0375   0.025
0.8375   0.0375   0.025
0.8625   0.0375   0.025
0.8875   0.0375   0.025
0.9125   0.0375   0.025
0.9375   0.0375   0.025
0.9625   0.0375   0.025
0.9875   0.0375   0.025
0.0125   0.0625   0.025
0.0375   0.0625   0.025
0.0625   0.0625   0.025
0.0875   0.0625   0.025
0.1125   0.0625   0.025
0.1375   0.0625   0.025
0.1625   0.0625   0.025
0.1875   0.0625   0.025
0.2125   0.0625   0.025
0.2375   0.0625   0.025
0.2625   0.0625   0.025
0.2875   0.0625   0.025
0.3125   0.0625   0.025
0.3375   0.0625   0.025
0.3625   0.0625   0.025
0.3875   0.0625   0.025
0.4125   0.0625   0.025
0.4375   0.0625   0.025
0.4625   0.0625   0.025
0.4875   0.0625   0.025
0.5125   0.0625   0.025
0.5375   0.0625   0.025
0.5625   0.0625   0.025
0.5875   0.0625   0.025
0.6125   0.0625   0.025
0.6375   0.0625   0.025
0.6625   0.0625   0.025
0.6875   0.0625   0.025
0.7125   0.0625   0.025
0.7375   0.0625   0.025
0.7625   0.0625   0.025
0.7875   0.0625   0.025
0.8125   0.0625   0.025
0.8375   0.0625   0.025
0.8625   0.0625   0.025
0.8875   0.0625   0.025
0.9125   0.0625   0.025
0.9375   0.0625   0.025
0.9625   0.0625   0.025
0.9875   0.0625   0.025
0.0125   0.0875   0.025
0.0375   0.0875   0.025
0.0625   0.0875   0.025
0.0875   0.0875   0.025
0.1125   0.0875   0.025
0.1375   0.0875   0.025
0.1625   0.0875   0.025
0.1875   0.0875   0.025
0.2125   0.0875   0.025
0.2375   0.0875   0.025
0.2625   0.0875   0.025
0.2875   0.0875   0.025
0.3125   0.0875   0.025
0.3375   0.0875   0.025
0.3625   0.0875   0.025
0.3875   0.0875   0.025
0.4125   0.0875   0.025
0.4375   0.0875   0.025
0.4625   0.0875   0.025
0.4875   0.0875   0.025
0.5125   0.0875   0.025
0.5375   0.0875   0.025
0.5625   0.0875   0.025
0.5875   0.0875   0.025
0.6125   0.0875   0.025
0.6375   0.0875   0.025
0.6625   0.0875   0.025
0.6875   0.0875   0.025
0.7125   0.0875   0.025
0.7375   0.0875   0.025
0.7625   0.0875   0.025
0.7875   0.0875   0.025
0.8125   0.0875   0.025
0.8375   0.0875   0.025
0.8625   0.0875   0.025
0.8875   0.0875   0.025
0.9125   0.0875   0.025
0.9375   0.0875   0.025
0.9625   0.0875   0.025
0.9875   0.0875   0.025
0.0125   0.1125   0.025
0.0375   0.1125   0.025
0.0625   0.1125   0.025
0.0875   0.1125   0.025
0.1125   0.1125   0.025
0.1375   0.1125   0.025
0.1625   0.1125   0.025
0.1875   0.1125   0.025
0.2125   0.1125   0.025
0.2375   0.1125   0.025
0.2625   0.1125   0.025
0.2875   0.1125   0.025
0.3125   0.1125   0.025
0.3375   0.1125   0.025
0.3625   0.1125   0.025
0.3875   0.1125   0.025
0.4125   0.1125   0.025
0.4375   0.1125   0.025
0.4625   0.1125   0.025
0.4875   0.1125   0.025
0.5125   0.1125   0.025
0.5375   0.1125   0.025
0.5625   0.1125   0.025
0.5875   0.1125   0.025
0.6125   0.1125   0.025
0.6375   0.1125   0.025
0.6625   0.1125   0.025
0.6875   0.1125   0.025
0.7125   0.1125   0.025
0.7375   0.1125   0.025
0.7625   0.1125   0.025
0.7875   0.1125   0.025
0.8125   0.1125   0.025
0.8375   0.1125   0.025
0.8625   0.1125   0.025
0.8875   0.1125   0.025
0.9125   0.1125   0.025
0.9375   0.1125   0.025
0.9625   0.1125   0.025
0.9875   0.1125   0.025
0.0125   0.1375   0.025
0.0375   0.1375   0.025
0.0625   0.1375   0.025
0.0875   0.1375   0.025
0.1125   0.1375   0.025
0.1375   0.1375   0.025
0.1625   0.1375   0.025
0.1875   0.1375   0.025
0.2125   0.1375   0.025
0.2375   0.1375   0.025
0.2625   0.1375   0.025
0.2875   0.1375   0.025
0.3125   0.1375   0.025
0.3375   0.1375   0.025
0.3625   0.1375   0.025
0.3875   0.1375   0.025
0.4125   0.1375   0.025
0.4375   0.1375   0.025
0.4625   0.1375   0.025
0.4875   0.1375   0.025
0.5125   0.1375   0.025
0.5375   0.1375   0.025
0.5625   0.1375   0.025
0.5875   0.1375   0.025
0.6125   0.1375   0.025
0.6375   0.1375   0.025
0.6625   0.1375   0.025
0.6875   0.1375   0.025
0.7125   0.1375   0.025
0.7375   0.1375   0.025
0.7625   0.1375   0.025
0.7875   0.1375   0.025
0.8125   0.1375   0.025
0.8375   0.1375   0.025
0.8625   0.1375   0.025
0.8875   0.1375   0.025
0.9125   0.1375   0.025
0.9375   0.1375   0.025
0.9625   0.1375   0.025
0.9875   0.1375   0.025
0.0125   0.1625   0.025
0.0375   0.1625   0.025
0.0625   0.1625   0.025
0.0875   0.1625   0.025
0.1125   0.1625   0.025
0.1375   0.1625   0.025
0.1625   0.1625   0.025
0.1875   0.1625   0.025
0.2125   0.1625   0.025
0.2375   0.1625   0.025
0.2625   0.1625   0.025
0.2875   0.1625   0.025
0.3125   0.1625   0.025
0.3375   0.1625   0.025
0.3625   0.1625   0.025
0.3875   0.1625   0.025
0.4125   0.1625   0.025
0.4375   0.1625   0.025
0.4625   0.1625   0.025
0.4875   0.1625   0.025
0.5125   0.1625   0.025
0.5375   0.1625   0.025
0.5625   0.1625   0.025
0.5875   0.1625   0.025
0.6125   0.1625   0.025
0.6375   0.1625   0.025
0.6625   0.1625   0.025
0.6875   0.1625   0.025
0.7125   0.1625   0.025
0.7375   0.1625   0.025
0.7625   0.1625   0.025
0.7875   0.1625   0.025
0.8125   0.1625   0.025
0.8375   0.1625   0.025
0.8625   0.1625   0.025
0.8875   0.1625   0.025
0.9125   0.1625   0.025
0.9375   0.1625   0.025
0.9625   0.1625   0.025
0.9875   0.1625   0.025
0.0125   0.1875   0.025
0.0375   0.1875   0.025
0.0625   0.1875   0.025
0.0875   0.1875   0.025
0.1125   0.1875   0.025
0.1375   0.1875   0.025
0.1625   0.1875   0.025
0.1875   0.1875   0.025
0.2125   0.1875   0.025
0.2375   0.1875   0.025
0.2625   0.1875   0.025
0.2875   0.1875   0.025
0.3125   0.1875   0.025
0.3375   0.1875   0.025
0.3625   0.1875   0.025
0.3875   0.1875   0.025
0.4125   0.1875   0.025
0.4375   0.1875   0.025
0.4625   0.1875   0.025
0.4875   0.1875   0.025
0.5125   0.1875   0.025
0.5375   0.1875   0.025
0.5625   0.1875   0.025
0.5875   0.1875   0.025
0.6125   0.1875   0.025
0.6375   0.1875   0.025
0.6625   0.1875   0.025
0.6875   0.1875   0.025
0.7125   0.1875   0.025
0.7375   0.1875   0.025
0.7625   0.1875   0.025
0.7875   0.1875   0.025
0.8125   0.1875   0.025
0.8375   0.1875   0.025
0.8625   0.1875   0.025
0.8875   0.1875   0.025
0.9125   0.1875   0.025
0.9375   0.1875   0.025
0.9625   0.1875   0.025
0.9875   0.1875   0.025
0.0125   0.2125   0.025
0.0375   0.2125   0.025
0.0625   0.2125   0.025
0.0875   0.2125   0.025
0.1125   0.2125   0.025
0.1375   0.2125   0.025
0.1625   0.2125   0.025
0.1875   0.2125   0.025
0.2125   0.2125   0.025
0.2375   0.2125   0.025
0.2625   0.2125   0.025
0.2875   0.2125   0.025
0.3125   0.2125   0.025
0.3375   0.2125   0.025
0.3625   0.2125   0.025
0.3875   0.2125   0.025
0.4125   0.2125   0.025
0.4375   0.2125   0.025
0.4625   0.2125   0.025
0.4875   0.2125   0.025
0.5125   0.2125   0.025
0.5375   0.2125   0.025
0.5625   0.2125   0.025
0.5875   0.2125   0.025
0.6125   0.2125   0.025
0.6375   0.2125   0.025
0.6625   0.2125   0.025
0.6875   0.2125   0.025
0.7125   0.2125   0.025
0.7375   0.2125   0.025
0.7625   0.2125   0.025
0.7875   0.2125   0.025
0.8125   0.2125   0.025
0.8375   0.2125   0.025
0.8625   0.2125   0.025
0.8875   0.2125   0.025
0.9125   0.2125   0.025
0.9375   0.2125   0.025
0.9625   0.2125   0.025
0.9875   0.2125   0.025
0.0125   0.2375   0.025
0.0375   0.2375   0.025
0.0625   0.2375   0.025
0.0875   0.2375   0.025
0.1125   0.2375   0.025
0.1375   0.2375   0.025
0.1625   0.2375   0.025
0.1875   0.2375   0.025
0.2125   0.2375   0.025
0.2375   0.2375   0.025
0.2625   0.2375   0.025
0.2875   0.2375   0.025
0.3125   0.2375   0.025
0.3375   0.2375   0.025
0.3625   0.2375   0.025
0.3875   0.2375   0.025
0.4125   0.2375   0.025
0.4375   0.2375   0.025
0.4625   0.2375   0.025
0.4875   0.2375   0.025
0.5125   0.2375   0.025
0.5375   0.2375   0.025
0.5625   0.2375   0.025
0.5875   0.2375   0.025
0.6125   0.2375   0.025
0.6375   0.2375   0.025
0.6625   0.2375   0.025
0.6875   0.2375   0.025
0.7125   0.2375   0.025
0.7375   0.2375   0.025
0.7625   0.2375   0.025
0.7875   0.2375   0.025
0.8125   0.2375   0.025
0.8375   0.2375   0.025
0.8625   0.2375   0.025
0.8875   0.2375   0.025
0.9125   0.2375   0.025
0.9375   0.2375   0.025
0.9625   0.2375   0.025
0.9875   0.2375   0.025
0.0125   0.2625   0.025
0.0375   0.2625   0.025
0.0625   0.2625   0.025
0.0875   0.2625   0.025
0.1125   0.2625   0.025
0.1375   0.2625   0.025
0.1625   0.2625   0.025
0.1875   0.2625   0.025
0.2125   0.2625   0.025
0.2375   0.2625   0.025
0.2625   0.2625   0.025
[...]
POINT_DATA   32000
SCALARS Presion double
LOOKUP_TABLE   Presion

0 0 0 0 0 0 0 0 0 0 0 0 0 0 0 0 0 0 0 0 0 0 0 0 0 0 0 0 0 0 0 0 0 0 0 0 0 0 0 0 -0.00200998 -0.00238777 -0.00302923 -0.00376323 -0.00451091 -0.00522115 -0.00585647 -0.00638904 -0.0067988 -0.00707187 -0.00719936 -0.00717632 -0.00700113 -0.00667516 -0.00620263 -0.0055907 -0.00484963 -0.00399286 -0.00303715 -0.00200239 -0.000911411 0.000210522 0.00133631 0.00243783 0.00348683 0.00445589 0.00531941 0.00605464 0.00664253 0.00706866 0.00732395 0.00740528 0.00731598 0.00706587 0.0066711 0.0061533 0.00553879 0.00485991 0.00417247 0.00366198 -0.00217775 -0.00239771 -0.00290068 -0.00354175 -0.00422961 -0.00490348 -0.00552082 -0.0060512 -0.00647295 -0.00677093 -0.00693504 -0.00695917 -0.00684043 -0.00657884 -0.00617715 -0.00564087 -0.00497839 -0.00420108 -0.00332332 -0.00236253 -0.0013389 -0.000275104 0.000804224 0.0018731 0.00290497 0.00387354 0.0047537 0.00552245 0.0061599 0.00665013 0.00698216 0.00715068 0.00715683 0.00700874 0.00672209 0.00632088 0.00583952 0.00532935 0.00487881 0.00467061 -0.00185771 -0.0021442 -0.00264222 -0.00326153 -0.00392917 -0.00459048 -0.00520544 -0.0057449 -0.00618783 -0.00651918 -0.00672848 -0.00680874 -0.00675587 -0.00656828 -0.00624682 -0.00579478 -0.00521805 -0.00452529 -0.00372805 -0.00284079 -0.00188089 -0.000868427 0.000174178 0.00122261 0.00225133 0.0032343 0.00414592 0.00496199 0.00566075 0.00622398 0.00663811 0.00689518 0.00699386 0.00694029 0.00674899 0.00644401 0.00606123 0.00565336 0.00530087 0.00513098 -0.00126684 -0.00169971 -0.00227135 -0.00292653 -0.00361331 -0.00428906 -0.00492082 -0.00548377 -0.00595949 -0.0063343 -0.00659806 -0.00674336 -0.00676497 -0.00665959 -0.00642588 -0.00606456 -0.00557862 -0.00497361 -0.00425788 -0.00344275 -0.00254268 -0.00157517 -0.00056067 0.000477827 0.00151527 0.00252529 0.00348107 0.00435643 0.00512698 0.00577146 0.00627294 0.00662017 0.00680868 0.00684186 0.00673187 0.00650073 0.00618183 0.00582261 0.00548893 0.0052688 -0.000546146 -0.00114834 -0.00183237 -0.00256091 -0.00329791 -0.00401256 -0.00468032 -0.00528216 -0.00580343 -0.00623265 -0.00656065 -0.00677986 -0.00688407 -0.00686826 -0.00672879 -0.00646358 -0.0060725 -0.00555775 -0.00492429 -0.00418016 -0.00333682 -0.00240923 -0.00141596 -0.000378886 0.000677137 0.00172499 0.00273617 0.00368192 0.00453461 0.00526912 0.00586446 0.00630522 0.00658296 0.00669737 0.0066573 0.00648151 0.00619959 0.00585303 0.00549639 0.00519635 0.000206913 -0.000565196 -0.00137694 -0.00219966 -0.0030079 -0.00378063 -0.00450115 -0.00515636 -0.00573576 -0.00623044 -0.00663246 -0.00693435 -0.00712902 -0.00720978 -0.00717063 -0.00700664 -0.00671443 -0.00629276 -0.00574304 -0.00506993 -0.00428178 -0.00339096 -0.0024141 -0.00137202 -0.000289447 0.000805557 0.0018825 0.00290964 0.00385546 0.00469033 0.0053883 0.00592886 0.00629861 0.00649266 0.00651566 0.0063826 0.00611926 0.00576253 0.00536026 0.00496943 0.000919581 -1.41465e-05 -0.000956055 -0.00188199 -0.00277374 -0.00361779 -0.00440416 -0.00512509 -0.005774 -0.00634452 -0.00682997 -0.00722306 -0.0075159 -0.00770016 -0.00776754 -0.00771023 -0.00752159 -0.00719683 -0.00673375 -0.00613346 -0.00540103 -0.00454607 -0.0035831 -0.00253168 -0.00141633 -0.000266028 0.000886594 0.00200649 0.00305775 0.00400548 0.00481783 0.00546816 0.005937 0.00621381 0.00629832 0.00620135 0.00594529 0.00556404 0.00510252 0.00461492 0.00153377 0.000450309 -0.000617218 -0.00164772 -0.00262839 -0.00355166 -0.00441304 -0.00520932 -0.0059373 -0.00659286 -0.00717044 -0.00766288 -0.0080615 -0.00835641 -0.00853702 -0.00859269 -0.00851352 -0.0082911 -0.0079195 -0.00739608 -0.0067224 -0.00590495 -0.00495577 -0.00389286 -0.0027402 -0.00152751 -0.000289513 0.000935222 0.00210593 0.00318167 0.00412372 0.00489806 0.00547789 0.00584583 0.00599573 0.00593384 0.00567942 0.00526474 0.00473441 0.00414403 0.00200068 0.000780915 -0.000403823 -0.00153532 -0.00260536 -0.00361134 -0.00455329 -0.00543175 -0.0062463 -0.00699467 -0.00767217 -0.00827166 -0.00878365 -0.00919669 -0.00949801 -0.00967416 -0.00971194 -0.00959929 -0.00932635 -0.00888649 -0.00827735 -0.00750187 -0.0065691 -0.00549489 -0.0043022 -0.0030211 -0.00168822 -0.000345734 0.00096033 0.00218224 0.00327325 0.00419062 0.00489866 0.00537169 0.00559647 0.00557398 0.00532034 0.00486699 0.00426005 0.00355911 0.00227792 0.000936078 -0.000355234 -0.00158101 -0.00273738 -0.00382613 -0.00485115 -0.00581604 -0.00672265 -0.00757009 -0.00835433 -0.00906807 -0.00970099 -0.0102401 -0.0106706 -0.0109761 -0.0111402 -0.011147 -0.0109825 -0.0106358 -0.0101001 -0.00937416 -0.00846337 -0.00738069 -0.00614734 -0.00479314 -0.00335625 -0.00188235 -0.000423073 0.000966299 0.00222981 0.00331439 0.00417368 0.00477185 0.00508697 0.00511358 0.00486423 0.00436986 0.00367923 0.00285759 0.002328 0.00087886 -0.000507009 -0.00181831 -0.00305554 -0.00422458 -0.00533268 -0.00638605 -0.00738831 -0.00833966 -0.00923644 -0.0100711 -0.0108326 -0.0115063 -0.0120752 -0.0125205 -0.0128222 -0.0129605 -0.0129172 -0.0126763 -0.0122262 -0.0115608 -0.0106809 -0.00959562 -0.00832351 -0.0068933 -0.00534408 -0.00372473 -0.00209266 -0.000511406 0.000952598 0.00223417 0.00327411 0.00402416 0.00445155 0.00454272 0.00430566 0.00377064 0.00298963 0.00203464 0.00211753 0.000576437 -0.000891039 -0.00227778 -0.00358872 -0.00483364 -0.00602288 -0.00716488 -0.00826473 -0.00932344 -0.0103376 -0.0112994 -0.0121968 -0.013014 -0.0137318 -0.0143285 -0.014781 -0.0150654 -0.0151586 -0.0150395 -0.0146908 -0.0141006 -0.0132641 -0.0121856 -0.0108798 -0.00937314 -0.00770475 -0.00592618 -0.00410052 -0.00230014 -0.000603227 0.000910961 0.00216787 0.00310395 0.00367282 0.00385045 0.00363865 0.00306634 0.00218876 0.00108535 0.00161709 -8.79142e-08 -0.00153556 -0.00298674 -0.00436305 -0.00567804 -0.0069449 -0.00817406 -0.00937188 -0.0105401 -0.0116754 -0.0127698 -0.0138104 -0.0147801 -0.0156577 -0.0164189 -0.0170371 -0.0174842 -0.017732 -0.0177536 -0.0175255 -0.017029 -0.0162527 -0.0151944 -0.0138637 -0.0122835 -0.0104916 -0.00854132 -0.00650095 -0.00445205 -0.00248574 -0.000697426 0.000820082 0.00198451 0.00273228 0.00302568 0.00285793 0.00225521 0.00127574 6.71976e-06 0.000801277 -0.000875637 -0.00246504 -0.00396905 -0.00540152 -0.00677961 -0.00811918 -0.00943251 -0.0107272 -0.0120055 -0.0132645 -0.014496 -0.0156864 -0.0168174 -0.017866 -0.0188054 -0.0196054 -0.0202336 -0.0206563 -0.0208405 -0.0207555 -0.020375 -0.0196796 -0.0186596 -0.0173175 -0.015671 -0.0137549 -0.0116229 -0.00934775 -0.00701999 -0.00474457 -0.00263513 -0.000805921 0.000637972 0.00161127 0.0020583 0.00196026 0.0013385 0.000253319 -0.00120034 -0.000350985 -0.00207095 -0.00369997 -0.00524482 -0.00672356 -0.00815673 -0.00956274 -0.0109556 -0.0123442 -0.0137316 -0.0151153 -0.0164869 -0.0178326 -0.0191329 -0.0203634 -0.0214946 -0.0224929 -0.0233213 -0.0239408 -0.0243115 -0.0243949 -0.0241561 -0.0235667 -0.0226076 -0.0212728 -0.0195725 -0.0175366 -0.0152173 -0.0126901 -0.0100539 -0.00742798 -0.00494594 -0.00274685 -0.000963282 0.000292266 0.000940596 0.000946187 0.000322322 -0.000870076 -0.0025287 -0.00185602 -0.00360231 -0.00525665 -0.00683011 -0.00834459 -0.00982374 -0.0112884 -0.0127544 -0.0142319 -0.0157251 -0.017232 -0.0187448 -0.0202492 -0.0217253 -0.0231471 -0.0244827 -0.0256952 -0.0267431 -0.0275816 -0.0281637 -0.0284426 -0.028374 -0.0279191 -0.0270481 -0.0257446 -0.0240091 -0.0218643 -0.0193579 -0.0165666 -0.0135957 -0.0105784 -0.00766974 -0.00503664 -0.00284435 -0.00123915 -0.000330844 -0.000178026 -0.000780044 -0.00207779 -0.00396239 -0.00372498 -0.00548128 -0.00714696 -0.00873675 -0.0102758 -0.0117905 -0.0133039 -0.0148341 -0.0163928 -0.0179855 -0.0196114 -0.0212633 -0.0229273 -0.0245829 -0.0262028 -0.0277533 -0.029194 -0.0304791 -0.0315577 -0.0323757 -0.0328776 -0.0330088 -0.0327195 -0.0319677 -0.0307245 -0.0289789 -0.0267431 -0.0240581 -0.0209979 -0.0176722 -0.0142264 -0.0108372 -0.00770223 -0.00502448 -0.00299158 -0.00175267 -0.00139782 -0.00194547 -0.00334202 -0.0054735 -0.00596351 -0.00771449 -0.00937831 -0.0109722 -0.0125238 -0.0140619 -0.0156119 -0.0171941 -0.0188225 -0.0205046 -0.0222412 -0.0240263 -0.0258465 -0.0276814 -0.0295028 -0.031275 -0.0329546 -0.0344912 -0.0358284 -0.0369046 -0.0376554 -0.0380157 -0.0379235 -0.037324 -0.0361743 -0.0344494 -0.0321484 -0.029302 -0.0259779 -0.0222864 -0.0183824 -0.014463 -0.0107577 -0.00751239 -0.00496401 -0.00331148 -0.00268721 -0.0031377 -0.00462035 -0.00701853 -0.00857151 -0.0103037 -0.0119537 -0.0135398 -0.0150909 -0.0166378 -0.0182086 -0.0198266 -0.0215086 -0.0232649 -0.0250988 -0.0270059 -0.0289741 -0.0309831 -0.0330042 -0.035 -0.0369241 -0.0387221 -0.0403316 -0.0416839 -0.0427056 -0.043321 -0.0434561 -0.0430418 -0.0420205 -0.0403511 -0.0380176 -0.0350362 -0.0314643 -0.0274081 -0.0230275 -0.0185365 -0.0141967 -0.0103 -0.00714072 -0.00497958 -0.00400489 -0.00430336 -0.00585155 -0.00853398 -0.0115432 -0.0132461 -0.0148723 -0.0164389 -0.017975 -0.0195131 -0.0210845 -0.0227164 -0.0244299 -0.0262391 -0.0281505 -0.0301622 -0.0322638 -0.0344357 -0.0366487 -0.0388637 -0.0410319 -0.0430944 -0.0449835 -0.0466234 -0.0479318 -0.0488229 -0.0492102 -0.0490109 -0.0481515 -0.0465741 -0.0442448 -0.0411627 -0.0373704 -0.0329641 -0.0281028 -0.0230124 -0.0179831 -0.0133543 -0.00948472 -0.00670952 -0.00528935 -0.00536725 -0.00695067 -0.0099313 -0.0148677 -0.0165349 -0.01813 -0.0196658 -0.0211702 -0.0226777 -0.0242237 -0.025841 -0.0275564 -0.0293895 -0.0313512 -0.033443 -0.0356565 -0.037973 -0.0403631 -0.0427861 -0.0451903 -0.047513 -0.0496809 -0.0516115 -0.0532141 -0.054393 -0.0550497 -0.055088 -0.0544187 -0.0529666 -0.0506789 -0.0475349 -0.0435583 -0.0388298 -0.0335 -0.0277993 -0.0220404 -0.0166079 -0.0119296 -0.0084273 -0.00645293 -0.0062266 -0.00780319 -0.0110908 -0.0185293 -0.0201604 -0.0217205 -0.0232148 -0.0246681 -0.0261173 -0.0276043 -0.0291698 -0.0308488 -0.0326683 -0.0346449 -0.0367843 -0.0390808 -0.0415165 -0.0440615 -0.0466737 -0.0492984 -0.0518685 -0.0543056 -0.0565204 -0.0584144 -0.0598823 -0.0608147 -0.0611025 -0.0606418 -0.0593404 -0.0571264 -0.0539582 -0.0498374 -0.0448242 -0.0390534 -0.0327503 -0.0262408 -0.0199483 -0.0143698 -0.0100242 -0.00737473 -0.00674434 -0.00825823 -0.0118547 -0.0225096 -0.0241119 -0.0256378 -0.0270796 -0.0284579 -0.029814 -0.0311988 -0.0326649 -0.034259 -0.0360176 -0.0379649 -0.0401117 -0.0424549 -0.0449775 -0.0476489 -0.0504245 -0.0532464 -0.0560432 -0.0587308 -0.0612132 -0.0633844 -0.0651302 -0.0663311 -0.0668663 -0.0666183 -0.0654793 -0.0633593 -0.060196 -0.0559679 -0.0507106 -0.0445366 -0.0376561 -0.0303958 -0.0232068 -0.01665 -0.011347 -0.00789207 -0.00674115 -0.00812047 -0.0120191 -0.026789 -0.0283805 -0.0298783 -0.0312558 -0.0325291 -0.0337467 -0.0349743 -0.0362813 -0.0377303 -0.0393709 -0.0412362 -0.0433428 -0.0456902 -0.0482617 -0.051025 -0.0539327 -0.0569225 -0.0599179 -0.0628288 -0.0655526 -0.0679757 -0.0699753 -0.0714227 -0.0721864 -0.0721371 -0.0711534 -0.069129 -0.0659826 -0.0616706 -0.0562028 -0.0496646 -0.0422418 -0.0342488 -0.0261486 -0.0185538 -0.0121874 -0.00779075 -0.00598615 -0.00714076 -0.0113242 -0.0313501 -0.0329626 -0.0344443 -0.0357434 -0.0368722 -0.0378925 -0.0388928 -0.0399669 -0.0411987 -0.042654 -0.044377 -0.04639 -0.0486946 -0.0512733 -0.0540909 -0.0570955 -0.0602194 -0.0633801 -0.0664806 -0.0694111 -0.0720502 -0.074267 -0.0759237 -0.0768795 -0.0769945 -0.0761357 -0.0741833 -0.0710404 -0.0666435 -0.0609788 -0.054103 -0.0461715 -0.0374735 -0.0284658 -0.0197935 -0.0122703 -0.00679366 -0.0041859 -0.00500475 -0.00944319 -0.036183 -0.0378659 -0.0393499 -0.0405506 -0.0414809 -0.0422269 -0.0429116 -0.0436628 -0.0445927 -0.045787 -0.0473016 -0.0491645 -0.0513777 -0.0539211 -0.0567545 -0.0598198 -0.0630423 -0.0663318 -0.0695837 -0.07268 -0.075491 -0.0778772 -0.0796922 -0.080786 -0.0810095 -0.0802197 -0.0782863 -0.0751001 -0.0705827 -0.0647007 -0.0574851 -0.0490593 -0.0396779 -0.029774 -0.0200009 -0.011242 -0.0045481 -0.000971266 -0.00131904 -0.00596797 -0.0412923 -0.0431182 -0.0446276 -0.0456981 -0.0463543 -0.0467243 -0.0469825 -0.0473039 -0.0478358 -0.0486867 -0.0499247 -0.0515811 -0.0536562 -0.0561242 -0.0589375 -0.0620293 -0.0653158 -0.0686975 -0.0720606 -0.0752779 -0.0782104 -0.0807095 -0.0826196 -0.0837817 -0.0840375 -0.0832353 -0.0812364 -0.0779226 -0.0732057 -0.0670393 -0.0594352 -0.0504888 -0.0404179 -0.0296174 -0.0187235 -0.00865915 -0.000611313 0.00411859 0.00440679 -0.000390557 -0.0467104 -0.048781 -0.0503393 -0.0512255 -0.0514987 -0.0513579 -0.0510525 -0.0508192 -0.0508477 -0.0512704 -0.0521652 -0.0535636 -0.0554599 -0.0578189 -0.060582 -0.0636709 -0.0669904 -0.0704297 -0.0738642 -0.0771562 -0.0801562 -0.0827055 -0.0846384 -0.0857858 -0.0859801 -0.0850609 -0.0828815 -0.0793172 -0.0742744 -0.0677003 -0.0595969 -0.0500409 -0.0392183 -0.0274807 -0.0154255 -0.00397967 0.00556571 0.0116567 0.0127844 0.00792297 -0.0525189 -0.0549715 -0.0565918 -0.0571987 -0.0569302 -0.0560997 -0.0550629 -0.0541335 -0.0535479 -0.0534602 -0.053953 -0.0550517 -0.0567387 -0.0589647 -0.0616561 -0.0647198 -0.0680467 -0.0715128 -0.0749811 -0.0783016 -0.0813136 -0.0838467 -0.0857237 -0.0867644 -0.0867903 -0.0856306 -0.0831301 -0.0791578 -0.0736163 -0.066452 -0.0576658 -0.0473283 -0.0356066 -0.0228144 -0.00949885 0.00344174 0.0146561 0.0223555 0.0245819 0.0197721 -0.0588874 -0.0618989 -0.0635605 -0.0637209 -0.0626766 -0.0609207 -0.0589507 -0.0571703 -0.0558609 -0.0551904 -0.0552359 -0.0560077 -0.057469 -0.0595502 -0.0621584 -0.0651827 -0.0684975 -0.071964 -0.075431 -0.0787356 -0.0817039 -0.0841529 -0.0858925 -0.0867294 -0.0864719 -0.0849367 -0.0819573 -0.0773934 -0.0711427 -0.0631513 -0.0534247 -0.042039 -0.0291587 -0.0150756 -0.000290318 0.0143487 0.0274757 0.0371042 0.0407771 0.0361867 -0.0661426 -0.0699243 -0.0715243 -0.0709455 -0.0687808 -0.0657906 -0.0626507 -0.0598571 -0.0577235 -0.0564147 -0.055987 -0.0564232 -0.0576581 -0.0595958 -0.0621196 -0.0650977 -0.0683864 -0.0718305 -0.0752637 -0.0785092 -0.0813792 -0.0836768 -0.0851978 -0.0857338 -0.0850776 -0.0830298 -0.079408 -0.0740578 -0.0668655 -0.0577718 -0.0467845 -0.0339894 -0.0195618 -0.00379244 0.0128467 0.0295589 0.0449965 0.0570211 0.0626432 0.0585388 -0.0748983 -0.0796629 -0.0809162 -0.079091 -0.0753004 -0.0706782 -0.0660987 -0.0621311 -0.0590913 -0.0571126 -0.0562092 -0.0563212 -0.057345 -0.0591521 -0.0615982 -0.0645289 -0.0677807 -0.0711817 -0.0745504 -0.0776952 -0.0804144 -0.0824967 -0.0837225 -0.0838671 -0.0827052 -0.0800179 -0.0756015 -0.0692792 -0.0609161 -0.0504346 -0.0378316 -0.0231924 -0.00670272 0.0113356 0.0304567 0.0498993 0.0683415 0.0835211 0.091888 0.0887471 -0.0863065 -0.0921534 -0.092389 -0.0884488 -0.0823 -0.0755438 -0.0692285 -0.0639389 -0.059938 -0.0572872 -0.0559307 -0.055749 -0.0565904 -0.0582883 -0.0606687 -0.0635533 -0.0667591 -0.0700974 -0.0733719 -0.0763772 -0.0788979 -0.0807083 -0.0815735 -0.0812517 -0.079498 -0.0760706 -0.070739 -0.0632958 -0.0535704 -0.0414476 -0.0268872 -0.00994413 0.00921331 0.0302875 0.0528171 0.0760632 0.0987195 0.118387 0.13088 0.129655 -0.102562 -0.109133 -0.106876 -0.0993563 -0.0898094 -0.0803039 -0.0719431 -0.0652101 -0.0602305 -0.0569392 -0.0551785 -0.0547517 -0.0554508 -0.0570676 -0.0593974 -0.0622388 -0.0653906 -0.0686487 -0.0718037 -0.0746377 -0.0769228 -0.0784202 -0.0788808 -0.0780461 -0.0756512 -0.07143 -0.0651211 -0.0564778 -0.04528 -0.0313506 -0.0145754 0.00507271 0.027508 0.0525059 0.079668 0.108323 0.137215 0.16378 0.182992 0.185736 -0.127981 -0.133443 -0.125566 -0.112055 -0.0976804 -0.0847074 -0.0740095 -0.065769 -0.0598523 -0.0560002 -0.0539187 -0.0533188 -0.0539303 -0.0555032 -0.0578044 -0.0606116 -0.0637082 -0.066878 -0.0699006 -0.0725481 -0.0745828 -0.0757553 -0.0758041 -0.0744563 -0.0714289 -0.0664315 -0.059171 -0.0493562 -0.0367062 -0.0209596 -0.00188831 0.0206842 0.0468571 0.0766195 0.109807 0.146011 0.184255 0.221996 0.253049 0.264388 -0.171449 -0.169436 -0.149522 -0.126211 -0.105161 -0.0879956 -0.0748006 -0.0651389 -0.0584528 -0.0542127 -0.0519586 -0.0513017 -0.0519116 -0.0535019 -0.0558166 -0.0586186 -0.0616807 -0.0647785 -0.0676849 -0.0701657 -0.0719766 -0.072861 -0.0725491 -0.0707569 -0.0671871 -0.0615289 -0.0534597 -0.0426453 -0.0287401 -0.0113867 0.00978661 0.0351668 0.0651552 0.100158 0.14056 0.186671 0.23848 0.294445 0.347582 0.378286 -0.252266 -0.222589 -0.178107 -0.139427 -0.109792 -0.0881812 -0.0728472 -0.0622592 -0.0552565 -0.0509911 -0.0488391 -0.0483283 -0.0490872 -0.0508085 -0.0532259 -0.0560973 -0.0591924 -0.062285 -0.0651462 -0.0675401 -0.0692204 -0.0699278 -0.0693884 -0.0673128 -0.0633947 -0.0573096 -0.0487131 -0.0372364 -0.0224786 -0.00399357 0.0187329 0.0463188 0.0795402 0.119407 0.167259 0.22489 0.294643 0.37876 0.47356 0.550053 -0.413213 -0.294638 -0.202854 -0.143116 -0.105344 -0.0811775 -0.0654935 -0.0553381 -0.0489819 -0.0453624 -0.043785 -0.0437625 -0.0449279 -0.0469846 -0.0496771 -0.0527723 -0.0560478 -0.0592831 -0.0622544 -0.0647295 -0.066465 -0.0672039 -0.0666736 -0.0645848 -0.0606292 -0.0544775 -0.0457752 -0.0341351 -0.0191245 -0.000241689 0.0231236 0.0517601 0.0867558 0.129712 0.18312 0.251034 0.340237 0.462023 0.630253 0.823279 -0.752817 -0.345318 -0.186294 -0.116544 -0.0812948 -0.0614276 -0.0495004 -0.0422534 -0.038087 -0.0361215 -0.0358137 -0.0367877 -0.0387547 -0.0414729 -0.0447254 -0.048307 -0.0520157 -0.0556468 -0.0589885 -0.0618187 -0.0639023 -0.0649895 -0.0648143 -0.0630929 -0.059522 -0.0537768 -0.0455065 -0.034327 -0.0198068 -0.00144381 0.021378 0.0494646 0.0839548 0.126603 0.180389 0.250958 0.35027 0.505473 0.774777 1.27439 0 0 0 0 0 0 0 0 0 0 0 0 0 0 0 0 0 0 0 0 0 0 0 0 0 0 0 0 0 0 0 0 0 0 0 0 0 0 0 0 -0.00204562 -0.00240869 -0.00293557 -0.00348683 -0.00401158 -0.00448092 -0.00487423 -0.00517618 -0.00537575 -0.00546557 -0.00544137 -0.00530152 -0.00504681 -0.00468034 -0.00420756 -0.0036364 -0.00297737 -0.00224363 -0.00145092 -0.000617427 0.000236641 0.00108954 0.00191867 0.00270139 0.00341588 0.00404206 0.00456246 0.00496304 0.00523395 0.00537005 0.00537135 0.00524325 0.00499647 0.00464683 0.0042146 0.00372376 0.00320124 0.00267839 0.00220359 0.00190797 -0.00234786 -0.00254205 -0.00291629 -0.00335284 -0.00378834 -0.00418588 -0.00452178 -0.00477996 -0.00494935 -0.00502258 -0.00499515 -0.00486502 -0.00463233 -0.0042994 -0.00387072 -0.0033531 -0.00275577 -0.00209045 -0.0013713 -0.000614751 0.000160819 0.00093555 0.00168873 0.00239952 0.0030478 0.00361506 0.00408522 0.00444552 0.00468717 0.004806 0.00480282 0.00468361 0.00445955 0.00414681 0.00376632 0.00334378 0.00291073 0.00250878 0.00220164 0.00210252 -0.00227207 -0.00249557 -0.00283331 -0.0032177 -0.00360081 -0.00395092 -0.00424698 -0.00447479 -0.00462467 -0.00469005 -0.00466675 -0.0045525 -0.00434682 -0.00405101 -0.00366829 -0.00320392 -0.00266544 -0.00206275 -0.00140811 -0.000716114 -3.40114e-06 0.000711718 0.00140981 0.00207104 0.00267595 0.00320638 0.00364644 0.00398336 0.00420836 0.00431731 0.0043112 0.00419635 0.00398439 0.00369209 0.00334105 0.00295775 0.00257426 0.00223048 0.00197835 0.00188503 -0.00201544 -0.00233629 -0.00270354 -0.00308396 -0.00344848 -0.00377558 -0.00405029 -0.00426232 -0.00440457 -0.00447202 -0.00446117 -0.00436972 -0.00419652 -0.00394174 -0.00360705 -0.0031959 -0.00271381 -0.00216857 -0.00157043 -0.000932062 -0.000268499 0.000403197 0.00106439 0.00169555 0.00227705 0.00279019 0.00321819 0.00354731 0.0037678 0.00387477 0.00386873 0.0037559 0.00354812 0.00326255 0.00292109 0.00254994 0.00217925 0.00184309 0.001579 0.00142427 -0.00169698 -0.00213531 -0.00256451 -0.00297181 -0.00334351 -0.00366859 -0.00393922 -0.00414996 -0.00429694 -0.00437707 -0.00438776 -0.00432673 -0.00419214 -0.00398288 -0.0036989 -0.00334158 -0.00291421 -0.00242233 -0.00187398 -0.00127993 -0.000653682 -1.12802e-05 0.000629066 0.00124761 0.00182393 0.00233796 0.00277122 0.00310809 0.00333695 0.00345132 0.00345052 0.00334008 0.00313161 0.00284233 0.00249413 0.00211252 0.00172536 0.00136144 0.00104836 0.000808584 -0.00139506 -0.0019531 -0.00245806 -0.00290983 -0.00330633 -0.0036458 -0.00392725 -0.00415018 -0.00431401 -0.00441769 -0.0044595 -0.00443717 -0.00434806 -0.00418964 -0.00395994 -0.00