# vtk DataFile Version 2.0
Velocidades
ASCII

DATASET STRUCTURED_GRID
DIMENSIONS   40   40   20

POINTS   32000   double
0.0125   0.0125   0.025
0.0125   0.0375   0.025
0.0125   0.0625   0.025
0.0125   0.0875   0.025
0.0125   0.1125   0.025
0.0125   0.1375   0.025
0.0125   0.1625   0.025
0.0125   0.1875   0.025
0.0125   0.2125   0.025
0.0125   0.2375   0.025
0.0125   0.2625   0.025
0.0125   0.2875   0.025
0.0125   0.3125   0.025
0.0125   0.3375   0.025
0.0125   0.3625   0.025
0.0125   0.3875   0.025
0.0125   0.4125   0.025
0.0125   0.4375   0.025
0.0125   0.4625   0.025
0.0125   0.4875   0.025
0.0125   0.5125   0.025
0.0125   0.5375   0.025
0.0125   0.5625   0.025
0.0125   0.5875   0.025
0.0125   0.6125   0.025
0.0125   0.6375   0.025
0.0125   0.6625   0.025
0.0125   0.6875   0.025
0.0125   0.7125   0.025
0.0125   0.7375   0.025
0.0125   0.7625   0.025
0.0125   0.7875   0.025
0.0125   0.8125   0.025
0.0125   0.8375   0.025
0.0125   0.8625   0.025
0.0125   0.8875   0.025
0.0125   0.9125   0.025
0.0125   0.9375   0.025
0.0125   0.9625   0.025
0.0125   0.9875   0.025
0.0375   0.0125   0.025
0.0375   0.0375   0.025
0.0375   0.0625   0.025
0.0375   0.0875   0.025
0.0375   0.1125   0.025
0.0375   0.1375   0.025
0.0375   0.1625   0.025
0.0375   0.1875   0.025
0.0375   0.2125   0.025
0.0375   0.2375   0.025
0.0375   0.2625   0.025
0.0375   0.2875   0.025
0.0375   0.3125   0.025
0.0375   0.3375   0.025
0.0375   0.3625   0.025
0.0375   0.3875   0.025
0.0375   0.4125   0.025
0.0375   0.4375   0.025
0.0375   0.4625   0.025
0.0375   0.4875   0.025
0.0375   0.5125   0.025
0.0375   0.5375   0.025
0.0375   0.5625   0.025
0.0375   0.5875   0.025
0.0375   0.6125   0.025
0.0375   0.6375   0.025
0.0375   0.6625   0.025
0.0375   0.6875   0.025
0.0375   0.7125   0.025
0.0375   0.7375   0.025
0.0375   0.7625   0.025
0.0375   0.7875   0.025
0.0375   0.8125   0.025
0.0375   0.8375   0.025
0.0375   0.8625   0.025
0.0375   0.8875   0.025
0.0375   0.9125   0.025
0.0375   0.9375   0.025
0.0375   0.9625   0.025
0.0375   0.9875   0.025
0.0625   0.0125   0.025
0.0625   0.0375   0.025
0.0625   0.0625   0.025
0.0625   0.0875   0.025
0.0625   0.1125   0.025
0.0625   0.1375   0.025
0.0625   0.1625   0.025
0.0625   0.1875   0.025
0.0625   0.2125   0.025
0.0625   0.2375   0.025
0.0625   0.2625   0.025
0.0625   0.2875   0.025
0.0625   0.3125   0.025
0.0625   0.3375   0.025
0.0625   0.3625   0.025
0.0625   0.3875   0.025
0.0625   0.4125   0.025
0.0625   0.4375   0.025
0.0625   0.4625   0.025
0.0625   0.4875   0.025
0.0625   0.5125   0.025
0.0625   0.5375   0.025
0.0625   0.5625   0.025
0.0625   0.5875   0.025
0.0625   0.6125   0.025
0.0625   0.6375   0.025
0.0625   0.6625   0.025
0.0625   0.6875   0.025
0.0625   0.7125   0.025
0.0625   0.7375   0.025
0.0625   0.7625   0.025
0.0625   0.7875   0.025
0.0625   0.8125   0.025
0.0625   0.8375   0.025
0.0625   0.8625   0.025
0.0625   0.8875   0.025
0.0625   0.9125   0.025
0.0625   0.9375   0.025
0.0625   0.9625   0.025
0.0625   0.9875   0.025
0.0875   0.0125   0.025
0.0875   0.0375   0.025
0.0875   0.0625   0.025
0.0875   0.0875   0.025
0.0875   0.1125   0.025
0.0875   0.1375   0.025
0.0875   0.1625   0.025
0.0875   0.1875   0.025
0.0875   0.2125   0.025
0.0875   0.2375   0.025
0.0875   0.2625   0.025
0.0875   0.2875   0.025
0.0875   0.3125   0.025
0.0875   0.3375   0.025
0.0875   0.3625   0.025
0.0875   0.3875   0.025
0.0875   0.4125   0.025
0.0875   0.4375   0.025
0.0875   0.4625   0.025
0.0875   0.4875   0.025
0.0875   0.5125   0.025
0.0875   0.5375   0.025
0.0875   0.5625   0.025
0.0875   0.5875   0.025
0.0875   0.6125   0.025
0.0875   0.6375   0.025
0.0875   0.6625   0.025
0.0875   0.6875   0.025
0.0875   0.7125   0.025
0.0875   0.7375   0.025
0.0875   0.7625   0.025
0.0875   0.7875   0.025
0.0875   0.8125   0.025
0.0875   0.8375   0.025
0.0875   0.8625   0.025
0.0875   0.8875   0.025
0.0875   0.9125   0.025
0.0875   0.9375   0.025
0.0875   0.9625   0.025
0.0875   0.9875   0.025
0.1125   0.0125   0.025
0.1125   0.0375   0.025
0.1125   0.0625   0.025
0.1125   0.0875   0.025
0.1125   0.1125   0.025
0.1125   0.1375   0.025
0.1125   0.1625   0.025
0.1125   0.1875   0.025
0.1125   0.2125   0.025
0.1125   0.2375   0.025
0.1125   0.2625   0.025
0.1125   0.2875   0.025
0.1125   0.3125   0.025
0.1125   0.3375   0.025
0.1125   0.3625   0.025
0.1125   0.3875   0.025
0.1125   0.4125   0.025
0.1125   0.4375   0.025
0.1125   0.4625   0.025
0.1125   0.4875   0.025
0.1125   0.5125   0.025
0.1125   0.5375   0.025
0.1125   0.5625   0.025
0.1125   0.5875   0.025
0.1125   0.6125   0.025
0.1125   0.6375   0.025
0.1125   0.6625   0.025
0.1125   0.6875   0.025
0.1125   0.7125   0.025
0.1125   0.7375   0.025
0.1125   0.7625   0.025
0.1125   0.7875   0.025
0.1125   0.8125   0.025
0.1125   0.8375   0.025
0.1125   0.8625   0.025
0.1125   0.8875   0.025
0.1125   0.9125   0.025
0.1125   0.9375   0.025
0.1125   0.9625   0.025
0.1125   0.9875   0.025
0.1375   0.0125   0.025
0.1375   0.0375   0.025
0.1375   0.0625   0.025
0.1375   0.0875   0.025
0.1375   0.1125   0.025
0.1375   0.1375   0.025
0.1375   0.1625   0.025
0.1375   0.1875   0.025
0.1375   0.2125   0.025
0.1375   0.2375   0.025
0.1375   0.2625   0.025
0.1375   0.2875   0.025
0.1375   0.3125   0.025
0.1375   0.3375   0.025
0.1375   0.3625   0.025
0.1375   0.3875   0.025
0.1375   0.4125   0.025
0.1375   0.4375   0.025
0.1375   0.4625   0.025
0.1375   0.4875   0.025
0.1375   0.5125   0.025
0.1375   0.5375   0.025
0.1375   0.5625   0.025
0.1375   0.5875   0.025
0.1375   0.6125   0.025
0.1375   0.6375   0.025
0.1375   0.6625   0.025
0.1375   0.6875   0.025
0.1375   0.7125   0.025
0.1375   0.7375   0.025
0.1375   0.7625   0.025
0.1375   0.7875   0.025
0.1375   0.8125   0.025
0.1375   0.8375   0.025
0.1375   0.8625   0.025
0.1375   0.8875   0.025
0.1375   0.9125   0.025
0.1375   0.9375   0.025
0.1375   0.9625   0.025
0.1375   0.9875   0.025
0.1625   0.0125   0.025
0.1625   0.0375   0.025
0.1625   0.0625   0.025
0.1625   0.0875   0.025
0.1625   0.1125   0.025
0.1625   0.1375   0.025
0.1625   0.1625   0.025
0.1625   0.1875   0.025
0.1625   0.2125   0.025
0.1625   0.2375   0.025
0.1625   0.2625   0.025
0.1625   0.2875   0.025
0.1625   0.3125   0.025
0.1625   0.3375   0.025
0.1625   0.3625   0.025
0.1625   0.3875   0.025
0.1625   0.4125   0.025
0.1625   0.4375   0.025
0.1625   0.4625   0.025
0.1625   0.4875   0.025
0.1625   0.5125   0.025
0.1625   0.5375   0.025
0.1625   0.5625   0.025
0.1625   0.5875   0.025
0.1625   0.6125   0.025
0.1625   0.6375   0.025
0.1625   0.6625   0.025
0.1625   0.6875   0.025
0.1625   0.7125   0.025
0.1625   0.7375   0.025
0.1625   0.7625   0.025
0.1625   0.7875   0.025
0.1625   0.8125   0.025
0.1625   0.8375   0.025
0.1625   0.8625   0.025
0.1625   0.8875   0.025
0.1625   0.9125   0.025
0.1625   0.9375   0.025
0.1625   0.9625   0.025
0.1625   0.9875   0.025
0.1875   0.0125   0.025
0.1875   0.0375   0.025
0.1875   0.0625   0.025
0.1875   0.0875   0.025
0.1875   0.1125   0.025
0.1875   0.1375   0.025
0.1875   0.1625   0.025
0.1875   0.1875   0.025
0.1875   0.2125   0.025
0.1875   0.2375   0.025
0.1875   0.2625   0.025
0.1875   0.2875   0.025
0.1875   0.3125   0.025
0.1875   0.3375   0.025
0.1875   0.3625   0.025
0.1875   0.3875   0.025
0.1875   0.4125   0.025
0.1875   0.4375   0.025
0.1875   0.4625   0.025
0.1875   0.4875   0.025
0.1875   0.5125   0.025
0.1875   0.5375   0.025
0.1875   0.5625   0.025
0.1875   0.5875   0.025
0.1875   0.6125   0.025
0.1875   0.6375   0.025
0.1875   0.6625   0.025
0.1875   0.6875   0.025
0.1875   0.7125   0.025
0.1875   0.7375   0.025
0.1875   0.7625   0.025
0.1875   0.7875   0.025
0.1875   0.8125   0.025
0.1875   0.8375   0.025
0.1875   0.8625   0.025
0.1875   0.8875   0.025
0.1875   0.9125   0.025
0.1875   0.9375   0.025
0.1875   0.9625   0.025
0.1875   0.9875   0.025
0.2125   0.0125   0.025
0.2125   0.0375   0.025
0.2125   0.0625   0.025
0.2125   0.0875   0.025
0.2125   0.1125   0.025
0.2125   0.1375   0.025
0.2125   0.1625   0.025
0.2125   0.1875   0.025
0.2125   0.2125   0.025
0.2125   0.2375   0.025
0.2125   0.2625   0.025
0.2125   0.2875   0.025
0.2125   0.3125   0.025
0.2125   0.3375   0.025
0.2125   0.3625   0.025
0.2125   0.3875   0.025
0.2125   0.4125   0.025
0.2125   0.4375   0.025
0.2125   0.4625   0.025
0.2125   0.4875   0.025
0.2125   0.5125   0.025
0.2125   0.5375   0.025
0.2125   0.5625   0.025
0.2125   0.5875   0.025
0.2125   0.6125   0.025
0.2125   0.6375   0.025
0.2125   0.6625   0.025
0.2125   0.6875   0.025
0.2125   0.7125   0.025
0.2125   0.7375   0.025
0.2125   0.7625   0.025
0.2125   0.7875   0.025
0.2125   0.8125   0.025
0.2125   0.8375   0.025
0.2125   0.8625   0.025
0.2125   0.8875   0.025
0.2125   0.9125   0.025
0.2125   0.9375   0.025
0.2125   0.9625   0.025
0.2125   0.9875   0.025
0.2375   0.0125   0.025
0.2375   0.0375   0.025
0.2375   0.0625   0.025
0.2375   0.0875   0.025
0.2375   0.1125   0.025
0.2375   0.1375   0.025
0.2375   0.1625   0.025
0.2375   0.1875   0.025
0.2375   0.2125   0.025
0.2375   0.2375   0.025
0.2375   0.2625   0.025
0.2375   0.2875   0.025
0.2375   0.3125   0.025
0.2375   0.3375   0.025
0.2375   0.3625   0.025
0.2375   0.3875   0.025
0.2375   0.4125   0.025
0.2375   0.4375   0.025
0.2375   0.4625   0.025
0.2375   0.4875   0.025
0.2375   0.5125   0.025
0.2375   0.5375   0.025
0.2375   0.5625   0.025
0.2375   0.5875   0.025
0.2375   0.6125   0.025
0.2375   0.6375   0.025
0.2375   0.6625   0.025
0.2375   0.6875   0.025
0.2375   0.7125   0.025
0.2375   0.7375   0.025
0.2375   0.7625   0.025
0.2375   0.7875   0.025
0.2375   0.8125   0.025
0.2375   0.8375   0.025
0.2375   0.8625   0.025
0.2375   0.8875   0.025
0.2375   0.9125   0.025
0.2375   0.9375   0.025
0.2375   0.9625   0.025
0.2375   0.9875   0.025
0.2625   0.0125   0.025
0.2625   0.0375   0.025
0.2625   0.0625   0.025
0.2625   0.0875   0.025
0.2625   0.1125   0.025
0.2625   0.1375   0.025
0.2625   0.1625   0.025
0.2625   0.1875   0.025
0.2625   0.2125   0.025
0.2625   0.2375   0.025
0.2625   0.2625   0.025
[...]
POINT_DATA   32000
VECTORS Velocidades double

2.01396e-05 0 0
6.0838e-05 0 0
0.000102851 0 0
0.000147075 0 0
0.0001944 0 0
0.0002457 0 0
0.000301823 0 0
0.000363594 0 0
0.000431805 0 0
0.000507225 0 0
0.000590601 0 0
0.000682668 0 0
0.000784172 0 0
0.000895888 0 0
0.00101866 0 0
0.00115345 0 0
0.00130139 0 0
0.00146386 0 0
0.00164262 0 0
0.00183988 0 0
0.00205853 0 0
0.0023023 0 0
0.00257606 0 0
0.00288618 0 0
0.00324105 0 0
0.00365181 0 0
0.00413349 0 0
0.00470663 0 0
0.00539988 0 0
0.00625427 0 0
0.00733022 0 0
0.00872003 0 0
0.010571 0 0
0.0131317 0 0
0.0168509 0 0
0.0226157 0 0
0.0323924 0 0
0.051244 0 0
0.0949522 0 0
0.225921 0 0
5.73442e-05 0 0
0.00017323 0 0
0.000292869 0 0
0.000418823 0 0
0.000553631 0 0
0.000699786 0 0
0.000859716 0 0
0.00103577 0 0
0.00123023 0 0
0.00144528 0 0
0.00168307 0 0
0.0019457 0 0
0.00223532 0 0
0.00255416 0 0
0.00290463 0 0
0.00328949 0 0
0.00371199 0 0
0.00417613 0 0
0.0046869 0 0
0.0052507 0 0
0.00587577 0 0
0.00657284 0 0
0.00735589 0 0
0.00824322 0 0
0.00925894 0 0
0.0104351 0 0
0.0118148 0 0
0.013457 0 0
0.0154441 0 0
0.0178938 0 0
0.0209793 0 0
0.0249647 0 0
0.0302694 0 0
0.0375965 0 0
0.0482006 0 0
0.0645076 0 0
0.0916972 0 0
0.142283 0 0
0.251406 0 0
0.53661 0 0
8.94768e-05 0 0
0.00027031 0 0
0.00045703 0 0
0.000653654 0 0
0.000864163 0 0
0.00109247 0 0
0.00134238 0 0
0.00161759 0 0
0.00192168 0 0
0.00225811 0 0
0.00263026 0 0
0.00304145 0 0
0.00349507 0 0
0.00399465 0 0
0.00454402 0 0
0.00514755 0 0
0.00581037 0 0
0.00653879 0 0
0.0073407 0 0
0.0082262 0 0
0.00920833 0 0
0.010304 0 0
0.0115354 0 0
0.0129314 0 0
0.0145301 0 0
0.0163822 0 0
0.018556 0 0
0.0211445 0 0
0.0242779 0 0
0.0281416 0 0
0.0330077 0 0
0.0392892 0 0
0.0476373 0 0
0.0591298 0 0
0.0756523 0 0
0.100734 0 0
0.141521 0 0
0.21382 0 0
0.355916 0 0
0.665392 0 0
0.000118232 0 0
0.000357198 0 0
0.000603996 0 0
0.000863969 0 0
0.00114241 0 0
0.00144453 0 0
0.0017754 0 0
0.00213994 0 0
0.00254294 0 0
0.00298902 0 0
0.0034827 0 0
0.00402847 0 0
0.00463085 0 0
0.00529459 0 0
0.00602485 0 0
0.00682748 0 0
0.00770939 0 0
0.008679 0 0
0.0097469 0 0
0.0109266 0 0
0.0122355 0 0
0.0136963 0 0
0.0153387 0 0
0.0172014 0 0
0.0193356 0 0
0.021809 0 0
0.024713 0 0
0.0281721 0 0
0.0323596 0 0
0.0375221 0 0
0.0440202 0 0
0.0523965 0 0
0.0634992 0 0
0.0787101 0 0
0.100394 0 0
0.13283 0 0
0.184249 0 0
0.271504 0 0
0.430679 0 0
0.735726 0 0
0.000144594 0 0
0.000436867 0 0
0.000738799 0 0
0.00105697 0 0
0.00139791 0 0
0.00176804 0 0
0.00217362 0 0
0.00262075 0 0
0.00311534 0 0
0.00366312 0 0
0.00426971 0 0
0.00494069 0 0
0.00568169 0 0
0.00649863 0 0
0.00739794 0 0
0.00838689 0 0
0.00947405 0 0
0.0106699 0 0
0.0119875 0 0
0.0134435 0 0
0.0150596 0 0
0.0168638 0 0
0.0188927 0 0
0.0211945 0 0
0.0238325 0 0
0.0268906 0 0
0.0304814 0 0
0.0347584 0 0
0.0399346 0 0
0.0463121 0 0
0.0543296 0 0
0.0646429 0 0
0.0782647 0 0
0.0968194 0 0
0.123024 0 0
0.16164 0 0
0.221414 0 0
0.319072 0 0
0.486823 0 0
0.77924 0 0
0.000169156 0 0
0.000511113 0 0
0.000864474 0 0
0.00123701 0 0
0.00163642 0 0
0.00207029 0 0
0.00254603 0 0
0.00307085 0 0
0.00365177 0 0
0.00429559 0 0
0.00500899 0 0
0.00579861 0 0
0.00667118 0 0
0.00763376 0 0
0.00869399 0 0
0.00986055 0 0
0.0111436 0 0
0.0125556 0 0
0.0141119 0 0
0.0158324 0 0
0.0177423 0 0
0.0198749 0 0
0.0222735 0 0
0.024995 0 0
0.0281142 0 0
0.0317302 0 0
0.0359754 0 0
0.04103 0 0
0.0471434 0 0
0.0546675 0 0
0.0641103 0 0
0.0762247 0 0
0.0921598 0 0
0.11373 0 0
0.143903 0 0
0.18773 0 0
0.254102 0 0
0.359021 0 0
0.530519 0 0
0.80843 0 0
0.000192285 0 0
0.000581045 0 0
0.000982901 0 0
0.00140677 0 0
0.0018615 0 0
0.0023558 0 0
0.00289819 0 0
0.00349699 0 0
0.00416026 0 0
0.00489589 0 0
0.00571159 0 0
0.00661506 0 0
0.00761409 0 0
0.00871685 0 0
0.00993224 0 0
0.0112703 0 0
0.0127427 0 0
0.0143638 0 0
0.0161513 0 0
0.0181279 0 0
0.0203225 0 0
0.022773 0 0
0.025529 0 0
0.0286559 0 0
0.0322393 0 0
0.0363924 0 0
0.041266 0 0
0.047065 0 0
0.0540718 0 0
0.0626829 0 0
0.0734673 0 0
0.0872606 0 0
0.105324 0 0
0.129616 0 0
0.163281 0 0
0.211513 0 0
0.283117 0 0
0.393082 0 0
0.565492 0 0
0.829225 0 0
0.000214212 0 0
0.000647358 0 0
0.00109526 0 0
0.00156795 0 0
0.0020754 0 0
0.00262742 0 0
0.00323363 0 0
0.00390342 0 0
0.00464591 0 0
0.00547004 0 0
0.00638456 0 0
0.0073982 0 0
0.00851982 0 0
0.00975872 0 0
0.011125 0 0
0.01263 0 0
0.014287 0 0
0.0161123 0 0
0.0181257 0 0
0.0203527 0 0
0.0228256 0 0
0.0255868 0 0
0.0286915 0 0
0.0322128 0 0
0.0362472 0 0
0.0409207 0 0
0.0464012 0 0
0.0529159 0 0
0.0607771 0 0
0.0704214 0 0
0.0824707 0 0
0.0978309 0 0
0.117853 0 0
0.144607 0 0
0.181346 0 0
0.233312 0 0
0.309076 0 0
0.422496 0 0
0.59413 0 0
0.84476 0 0
0.000235076 0 0
0.000710476 0 0
0.00120226 0 0
0.00172158 0 0
0.00227949 0 0
0.00288691 0 0
0.00355453 0 0
0.00429281 0 0
0.00511192 0 0
0.00602184 0 0
0.00703236 0 0
0.00815324 0 0
0.00939441 0 0
0.0107663 0 0
0.0122801 0 0
0.0139487 0 0
0.0157869 0 0
0.0178126 0 0
0.0200481 0 0
0.0225216 0 0
0.0252687 0 0
0.0283359 0 0
0.0317834 0 0
0.0356914 0 0
0.0401667 0 0
0.0453471 0 0
0.051416 0 0
0.0586212 0 0
0.067302 0 0
0.0779304 0 0
0.0911743 0 0
0.107998 0 0
0.129825 0 0
0.158805 0 0
0.198255 0 0
0.253392 0 0
0.332462 0 0
0.448181 0 0
0.618034 0 0
0.856824 0 0
0.000254971 0 0
0.000770684 0 0
0.0013044 0 0
0.00186835 0 0
0.00247471 0 0
0.00313545 0 0
0.00386236 0 0
0.00466694 0 0
0.00556044 0 0
0.00655384 0 0
0.00765799 0 0
0.00888367 0 0
0.0102419 0 0
0.0117441 0 0
0.0134029 0 0
0.0152323 0 0
0.0172488 0 0
0.0194721 0 0
0.0219268 0 0
0.0246438 0 0
0.0276628 0 0
0.0310346 0 0
0.0348266 0 0
0.03913 0 0
0.0440417 0 0
0.0497191 0 0
0.0563618 0 0
0.064237 0 0
0.0737085 0 0
0.0852794 0 0
0.099657 0 0
0.117854 0 0
0.14135 0 0
0.17235 0 0
0.214196 0 0
0.272028 0 0
0.353718 0 0
0.470874 0 0
0.638351 0 0
0.86651 0 0
0.000273931 0 0
0.000828082 0 0
0.00140184 0 0
0.00200854 0 0
0.00266141 0 0
0.00337353 0 0
0.00415774 0 0
0.00502661 0 0
0.00599244 0 0
0.00706725 0 0
0.00826291 0 0
0.00959125 0 0
0.0110643 0 0
0.0126948 0 0
0.0144962 0 0
0.0164841 0 0
0.0186763 0 0
0.0210945 0 0
0.0237657 0 0
0.0267235 0 0
0.0300113 0 0
0.0336851 0 0
0.0378186 0 0
0.0425095 0 0
0.0478523 0 0
0.0540173 0 0
0.0612199 0 0
0.0697455 0 0
0.07998 0 0
0.0924542 0 0
0.107909 0 0
0.127397 0 0
0.152441 0 0
0.185278 0 0
0.229251 0 0
0.289382 0 0
0.373144 0 0
0.4911 0 0
0.655866 0 0
0.874491 0 0
0.000291939 0 0
0.000882625 0 0
0.00149452 0 0
0.00214204 0 0
0.00283949 0 0
0.00360104 0 0
0.0044406 0 0
0.00537179 0 0
0.00640797 0 0
0.00756221 0 0
0.00884742 0 0
0.0102764 0 0
0.0118624 0 0
0.013619 0 0
0.015561 0 0
0.0177052 0 0
0.0200708 0 0
0.0226815 0 0
0.025566 0 0
0.0287608 0 0
0.0323125 0 0
0.0362809 0 0
0.040743 0 0
0.0457966 0 0
0.0515574 0 0
0.0581975 0 0
0.0659439 0 0
0.0750981 0 0
0.0860661 0 0
0.0994029 0 0
0.115879 0 0
0.136578 0 0
0.163056 0 0
0.197568 0 0
0.243432 0 0
0.30553 0 0
0.390928 0 0
0.50922 0 0
0.671121 0 0
0.88119 0 0
0.000308969 0 0
0.000934234 0 0
0.00158231 0 0
0.00226868 0 0
0.00300875 0 0
0.00381776 0 0
0.00471068 0 0
0.00570223 0 0
0.0068068 0 0
0.00803853 0 0
0.00941136 0 0
0.0109392 0 0
0.0126361 0 0
0.014517 0 0
0.0165977 0 0
0.018896 0 0
0.0214329 0 0
0.0242333 0 0
0.0273279 0 0
0.0307556 0 0
0.0345655 0 0
0.0388205 0 0
0.0436008 0 0
0.0490085 0 0
0.0551738 0 0
0.0622746 0 0
0.0705481 0 0
0.0803096 0 0
0.0919829 0 0
0.106144 0 0
0.123588 0 0
0.145426 0 0
0.173234 0 0
0.209274 0 0
0.256822 0 0
0.320605 0 0
0.407283 0 0
0.525563 0 0
0.684547 0 0
0.886914 0 0
0.00032497 0 0
0.000982755 0 0
0.00166495 0 0
0.00238811 0 0
0.00316874 0 0
0.00402313 0 0
0.00496736 0 0
0.00601722 0 0
0.00718817 0 0
0.00849542 0 0
0.00995395 0 0
0.0115787 0 0
0.0133848 0 0
0.0153881 0 0
0.0176056 0 0
0.0200562 0 0
0.0227621 0 0
0.0257497 0 0
0.0290514 0 0
0.0327079 0 0
0.0367709 0 0
0.041306 0 0
0.0463973 0 0
0.0521524 0 0
0.058711 0 0
0.0662591 0 0
0.0750433 0 0
0.0853916 0 0
0.0977432 0 0
0.112693 0 0
0.131056 0 0
0.153963 0 0
0.183007 0 0
0.220444 0 0
0.269494 0 0
0.334719 0 0
0.422387 0 0
0.540394 0 0
0.696474 0 0
0.891877 0 0
0.000339868 0 0
0.00102797 0 0
0.00174206 0 0
0.00249981 0 0
0.00331877 0 0
0.00421634 0 0
0.00520969 0 0
0.00631568 0 0
0.0075509 0 0
0.0089316 0 0
0.0104738 0 0
0.0121936 0 0
0.014107 0 0
0.0162309 0 0
0.0185834 0 0
0.0211845 0 0
0.0240575 0 0
0.0272299 0 0
0.0307359 0 0
0.034618 0 0
0.0389298 0 0
0.0437401 0 0
0.0491366 0 0
0.0552325 0 0
0.0621752 0 0
0.0701584 0 0
0.0794381 0 0
0.0903535 0 0
0.103358 0 0
0.119061 0 0
0.138297 0 0
0.162212 0 0
0.192404 0 0
0.231118 0 0
0.28151 0 0
0.34797 0 0
0.436388 0 0
0.553926 0 0
0.707154 0 0
0.896233 0 0
0.000353566 0 0
0.00106958 0 0
0.00181318 0 0
0.0026031 0 0
0.00345799 0 0
0.00439633 0 0
0.00543639 0 0
0.00659616 0 0
0.00789333 0 0
0.00934525 0 0
0.0109691 0 0
0.0127818 0 0
0.0148007 0 0
0.0170435 0 0
0.0195293 0 0
0.0222792 0 0
0.0253174 0 0
0.0286728 0 0
0.0323809 0 0
0.0364856 0 0
0.0410431 0 0
0.0461245 0 0
0.0518215 0 0
0.0582523 0 0
0.0655707 0 0
0.073978 0 0
0.0837388 0 0
0.0952028 0 0
0.108835 0 0
0.125261 0 0
0.145325 0 0
0.170189 0 0
0.20145 0 0
0.241334 0 0
0.292925 0 0
0.360441 0 0
0.449412 0 0
0.566335 0 0
0.716786 0 0
0.900097 0 0
0.00036595 0 0
0.00110724 0 0
0.00187771 0 0
0.00269715 0 0
0.0035853 0 0
0.00456174 0 0
0.00564587 0 0
0.00685681 0 0
0.00821337 0 0
0.00973406 0 0
0.0114371 0 0
0.0133407 0 0
0.015463 0 0
0.0178229 0 0
0.0204405 0 0
0.0233376 0 0
0.0265396 0 0
0.0300765 0 0
0.0339848 0 0
0.0383103 0 0
0.0431108 0 0
0.0484603 0 0
0.0544538 0 0
0.0612141 0 0
0.0689008 0 0
0.0777222 0 0
0.0879507 0 0
0.0999458 0 0
0.114183 0 0
0.1313 0 0
0.152154 0 0
0.17791 0 0
0.210168 0 0
0.251124 0 0
0.303787 0 0
0.372205 0 0
0.461565 0 0
0.577764 0 0
0.72553 0 0
0.903554 0 0
0.000376884 0 0
0.00114055 0 0
0.00193497 0 0
0.00278099 0 0
0.00369943 0 0
0.004711 0 0
0.00583622 0 0
0.00709537 0 0
0.00850846 0 0
0.0100952 0 0
0.0118749 0 0
0.0138669 0 0
0.0160906 0 0
0.0185657 0 0
0.0213133 0 0
0.0243563 0 0
0.0277209 0 0
0.0314381 0 0
0.0355456 0 0
0.0400905 0 0
0.0451324 0 0
0.0507476 0 0
0.0570343 0 0
0.0641195 0 0
0.0721681 0 0
0.0813944 0 0
0.0920785 0 0
0.104588 0 0
0.119409 0 0
0.137189 0 0
0.158792 0 0
0.185392 0 0
0.218579 0 0
0.260518 0 0
0.314141 0 0
0.383326 0 0
0.472938 0 0
0.588333 0 0
0.733511 0 0
0.906673 0 0
0.000386212 0 0
0.00116904 0 0
0.00198416 0 0
0.00285348 0 0
0.0037989 0 0
0.00484223 0 0
0.00600517 0 0
0.00730919 0 0
0.00877552 0 0
0.0104251 0 0
0.0122785 0 0
0.0143563 0 0
0.0166789 0 0
0.0192672 0 0
0.0221433 0 0
0.0253309 0 0
0.0288571 0 0
0.0327539 0 0
0.03706 0 0
0.0418235 0 0
0.0471059 0 0
0.0529854 0 0
0.0595631 0 0
0.0669696 0 0
0.0753744 0 0
0.0849977 0 0
0.0961262 0 0
0.109135 0 0
0.12452 0 0
0.142935 0 0
0.165253 0 0
0.192648 0 0
0.226701 0 0
0.269543 0 0
0.324025 0 0
0.393861 0 0
0.483612 0 0
0.598145 0 0
0.740833 0 0
0.909504 0 0
0.000393784 0 0
0.00119225 0 0
0.0020245 0 0
0.0029135 0 0
0.0038822 0 0
0.00495355 0 0
0.00615039 0 0
0.00749546 0 0
0.00901126 0 0
0.01072 0 0
0.0126438 0 0
0.0148041 0 0
0.0172229 0 0
0.0199222 0 0
0.0229249 0 0
0.0262559 0 0
0.029943 0 0
0.034019 0 0
0.0385236 0 0
0.0435059 0 0
0.0490287 0 0
0.0551722 0 0
0.06204 0 0
0.0697665 0 0
0.0785238 0 0
0.0885376 0 0
0.100101 0 0
0.113596 0 0
0.129526 0 0
0.148551 0 0
0.171551 0 0
0.199698 0 0
0.23456 0 0
0.278232 0 0
0.333482 0 0
0.403865 0 0
0.493659 0 0
0.607288 0 0
0.747585 0 0
0.912092 0 0
0.00039941 0 0
0.00120959 0 0
0.00205502 0 0
0.00295963 0 0
0.00394745 0 0
0.00504251 0 0
0.00626889 0 0
0.00765057 0 0
0.00921144 0 0
0.0109751 0 0
0.012965 0 0
0.0152043 0 0
0.017716 0 0
0.0205235 0 0
0.0236508 0 0
0.0271237 0 0
0.0309711 0 0
0.0352264 0 0
0.0399298 0 0
0.0451316 0 0
0.0508956 0 0
0.0573036 0 0
0.0644613 0 0
0.0725061 0 0
0.0816126 0 0
0.0920113 0 0
0.104001 0 0
0.117971 0 0
0.134428 0 0
0.154042 0 0
0.177693 0 0
0.206551 0 0
0.242169 0 0
0.286604 0 0
0.342542 0 0
0.413383 0 0
0.503139 0 0
0.615836 0 0
0.753837 0 0
0.914469 0 0
0.000402863 0 0
0.00122039 0 0
0.00207453 0 0
0.00299018 0 0
0.00399236 0 0
0.00510622 0 0
0.00635704 0 0
0.00777014 0 0
0.00937081 0 0
0.0111842 0 0
0.0132353 0 0
0.0155489 0 0
0.0181494 0 0
0.0210617 0 0
0.024311 0 0
0.0279244 0 0
0.0319313 0 0
0.0363659 0 0
0.0412691 0 0
0.0466919 0 0
0.0526985 0 0
0.0593721 0 0
0.0668198 0 0
0.0751805 0 0
0.0846333 0 0
0.0954119 0 0
0.10782 0 0
0.122252 0 0
0.139221 0 0
0.1594 0 0
0.183674 0 0
0.213206 0 0
0.249533 0 0
0.29467 0 0
0.351224 0 0
0.422445 0 0
0.512097 0 0
0.623844 0 0
0.759645 0 0
0.916662 0 0
0.000403934 0 0
0.00122401 0 0
0.00208195 0 0
0.00300353 0 0
0.00401473 0 0
0.00514179 0 0
0.0064112 0 0
0.00784963 0 0
0.0094839 0 0
0.0113408 0 0
0.013447 0 0
0.0158291 0 0
0.0185133 0 0
0.021526 0 0
0.0248941 0 0
0.0286456 0 0
0.032811 0 0
0.0374252 0 0
0.0425296 0 0
0.0481753 0 0
0.0544272 0 0
0.0613687 0 0
0.0691079 0 0
0.0777853 0 0
0.087583 0 0
0.0987379 0 0
0.111558 0 0
0.126441 0 0
0.143908 0 0
0.164633 0 0
0.189501 0 0
0.219672 0 0
0.256663 0 0
0.302449 0 0
0.359553 0 0
0.431086 0 0
0.520579 0 0
0.631368 0 0
0.765057 0 0
0.918692 0 0
0.000402408 0 0
0.00121979 0 0
0.00207612 0 0
0.00299798 0 0
0.00401224 0 0
0.00514615 0 0
0.0064274 0 0
0.00788407 0 0
0.00954456 0 0
0.0114374 0 0
0.0135913 0 0
0.0160347 0 0
0.018796 0 0
0.0219034 0 0
0.0253855 0 0
0.0292719 0 0
0.0335943 0 0
0.0383881 0 0
0.0436952 0 0
0.0495667 0 0
0.0560675 0 0
0.063281 0 0
0.0713155 0 0
0.0803126 0 0
0.0904561 0 0
0.101986 0 0
0.115212 0 0
0.13054 0 0
0.14849 0 0
0.169743 0 0
0.195182 0 0
0.225959 0 0
0.263573 0 0
0.309956 0 0
0.367554 0 0
0.439338 0 0
0.528626 0 0
0.638454 0 0
0.770117 0 0
0.920578 0 0
0.000398073 0 0
0.00120707 0 0
0.00205591 0 0
0.00297184 0 0
0.00398249 0 0
0.00511609 0 0
0.00640145 0 0
0.00786808 0 0
0.00954601 0 0
0.0114657 0 0
0.013658 0 0
0.0161537 0 0
0.0189833 0 0
0.0221777 0 0
0.0257675 0 0
0.0297841 0 0
0.0342606 0 0
0.0392334 0 0
0.0447446 0 0
0.0508454 0 0
0.0576002 0 0
0.0650917 0 0
0.0734279 0 0
0.0827501 0 0
0.0932433 0 0
0.105149 0 0
0.118781 0 0
0.134545 0 0
0.152969 0 0
0.174733 0 0
0.20072 0 0
0.232074 0 0
0.270273 0 0
0.317207 0 0
0.375246 0 0
0.447229 0 0
0.536273 0 0
0.645141 0 0
0.774861 0 0
0.922338 0 0
0.000390731 0 0
0.00118524 0 0
0.00202023 0 0
0.00292344 0 0
0.00392314 0 0
0.00504836 0 0
0.00632903 0 0
0.007796 0 0
0.00948102 0 0
0.0114166 0 0
0.0136359 0 0
0.0161722 0 0
0.0190591 0 0
0.02233 0 0
0.0260184 0 0
0.030158 0 0
0.0347838 0 0
0.0399335 0 0
0.0456498 0 0
0.0519836 0 0
0.0589986 0 0
0.0667763 0 0
0.0754232 0 0
0.0850796 0 0
0.09593 0 0
0.108216 0 0
0.122255 0 0
0.138454 0 0
0.157343 0 0
0.179605 0 0
0.20612 0 0
0.238024 0 0
0.276773 0 0
0.324217 0 0
0.382649 0 0
0.454785 0 0
0.543551 0 0
0.651466 0 0
0.77932 0 0
0.923984 0 0
0.000380205 0 0
0.00115376 0 0
0.00196811 0 0
0.00285127 0 0
0.00383195 0 0
0.00493987 0 0
0.00620587 0 0
0.00766211 0 0
0.00934202 0 0
0.0112802 0 0
0.0135124 0 0
0.0160749 0 0
0.0190044 0 0
0.0223378 0 0
0.0261119 0 0
0.0303637 0 0
0.0351308 0 0
0.0404528 0 0
0.0463733 0 0
0.0529434 0 0
0.0602255 0 0
0.0682995 0 0
0.0772696 0 0
0.0872734 0 0
0.0984932 0 0
0.11117 0 0
0.125621 0 0
0.142257 0 0
0.161607 0 0
0.184357 0 0
0.211383 0 0
0.243813 0 0
0.283082 0 0
0.330998 0 0
0.389781 0 0
0.462028 0 0
0.55049 0 0
0.65746 0 0
0.783522 0 0
0.925528 0 0
0.000366363 0 0
0.0011122 0 0
0.00189875 0 0
0.00275406 0 0
0.00370704 0 0
0.00478782 0 0
0.00602801 0 0
0.0074609 0 0
0.00912153 0 0
0.0110467 0 0
0.0132746 0 0
0.0158449 0 0
0.0187982 0 0
0.0221752 0 0
0.0260172 0 0
0.0303652 0 0
0.0352606 0 0
0.0407458 0 0
0.0468663 0 0
0.0536735 0 0
0.0612292 0 0
0.069611 0 0
0.0789198 0 0
0.0892891 0 0
0.100897 0 0
0.113981 0 0
0.128858 0 0
0.145937 0 0
0.165751 0 0
0.188984 0 0
0.216509 0 0
0.249446 0 0
0.289207 0 0
0.33756 0 0
0.396656 0 0
0.468979 0 0
0.557114 0 0
0.663151 0 0
0.78749 0 0
0.926981 0 0
0.000349124 0 0
0.0010603 0 0
0.00181165 0 0
0.00263094 0 0
0.00354697 0 0
0.00459001 0 0
0.00579211 0 0
0.00718747 0 0
0.00881254 0 0
0.0107061 0 0
0.0129092 0 0
0.0154648 0 0
0.0184176 0 0
0.0218134 0 0
0.0256984 0 0
0.0301192 0 0
0.0351223 0 0
0.0407545 0 0
0.0470646 0 0
0.0541053 0 0
0.0619382 0 0
0.0706385 0 0
0.0803038 0 0
0.0910617 0 0
0.103082 0 0
0.116599 0 0
0.131924 0 0
0.149465 0 0
0.169753 0 0
0.19347 0 0
0.22149 0 0
0.254918 0 0
0.29515 0 0
0.343912 0 0
0.403289 0 0
0.475655 0 0
0.563445 0 0
0.66856 0 0
0.791242 0 0
0.928349 0 0
0.000328499 0 0
0.000998074 0 0
0.00170675 0 0
0.00248168 0 0
0.00335117 0 0
0.00434524 0 0
0.00549605 0 0
0.00683829 0 0
0.0084095 0 0
0.0102502 0 0
0.012404 0 0
0.0149174 0 0
0.0178395 0 0
0.0212215 0 0
0.025116 0 0
0.0295762 0 0
0.0346557 0 0
0.0404079 0 0
0.0468867 0 0
0.0541484 0 0
0.0622547 0 0
0.0712786 0 0
0.0813104 0 0
0.0924638 0 0
0.104928 0 0
0.118913 0 0
0.134721 0 0
0.152754 0 0
0.173537 0 0
0.19775 0 0
0.226264 0 0
0.260176 0 0
0.300861 0 0
0.350011 0 0
0.409642 0 0
0.482031 0 0
0.569466 0 0
0.673678 0 0
0.794769 0 0
0.92962 0 0
0.000304571 0 0
0.000925751 0 0
0.00158439 0 0
0.00230661 0 0
0.0031198 0 0
0.00405331 0 0
0.00513888 0 0
0.00641122 0 0
0.00790842 0 0
0.0096723 0 0
0.0117486 0 0
0.014187 0 0
0.0170412 0 0
0.020368 0 0
0.0242272 0 0
0.0286804 0 0
0.0337901 0 0
0.0396191 0 0
0.0462298 0 0
0.0536849 0 0
0.0620497 0 0
0.0713959 0 0
0.081808 0 0
0.0933913 0 0
0.106339 0 0
0.120844 0 0
0.137188 0 0
0.155761 0 0
0.177078 0 0
0.201814 0 0
0.230833 0 0
0.265227 0 0
0.306353 0 0
0.355869 0 0
0.415732 0 0
0.488122 0 0
0.575196 0 0
0.678528 0 0
0.798095 0 0
0.930812 0 0
0.000277515 0 0
0.000843847 0 0
0.00144539 0 0
0.00210677 0 0
0.00285405 0 0
0.00371531 0 0
0.00472135 0 0
0.00590622 0 0
0.00730786 0 0
0.00896862 0 0
0.0109356 0 0
0.0132612 0 0
0.0160029 0 0
0.0192233 0 0
0.0229895 0 0
0.0273728 0 0
0.0324468 0 0
0.0382866 0 0
0.0449676 0 0
0.0525645 0 0
0.0611518 0 0
0.0708067 0 0
0.0816152 0 0
0.0936849 0 0
0.107175 0 0
0.122271 0 0
0.139234 0 0
0.158429 0 0
0.180354 0 0
0.205668 0 0
0.235228 0 0
0.270118 0 0
0.311681 0 0
0.361547 0 0
0.421619 0 0
0.493989 0 0
0.58069 0 0
0.683156 0 0
0.801256 0 0
0.931945 0 0
0.000247646 0 0
0.000753304 0 0
0.00129129 0 0
0.00188434 0 0
0.00255661 0 0
0.0033344 0 0
0.00424686 0 0
0.00532662 0 0
0.00661056 0 0
0.00814051 0 0
0.00996391 0 0
0.0121344 0 0
0.0147124 0 0
0.0177652 0 0
0.021367 0 0
0.0255986 0 0
0.0305463 0 0
0.0363005 0 0
0.0429542 0 0
0.0506009 0 0
0.0593333 0 0
0.0692441 0 0
0.0804296 0 0
0.0929991 0 0
0.10709 0 0
0.12287 0 0
0.140571 0 0
0.160522 0 0
0.183184 0 0
0.20919 0 0
0.239374 0 0
0.27481 0 0
0.316831 0 0
0.367044 0 0
0.427309 0 0
0.499643 0 0
0.585967 0 0
0.687589 0 0
0.804283 0 0
0.933037 0 0
0.000215407 0 0
0.000655463 0 0
0.00112438 0 0
0.00164252 0 0
0.00223169 0 0
0.00291579 0 0
0.00372158 0 0
0.00467941 0 0
0.00582401 0 0
0.00719541 0 0
0.0088398 0 0
0.0108104 0 0
0.0131686 0 0
0.0159844 0 0
0.0193371 0 0
0.0233159 0 0
0.0280192 0 0
0.0335541 0 0
0.0400346 0 0
0.0475797 0 0
0.0563104 0 0
0.0663481 0 0
0.0778141 0 0
0.0908327 0 0
0.105538 0 0
0.122084 0 0
0.140668 0 0
0.161568 0 0
0.185188 0 0
0.212099 0 0
0.24309 0 0
0.279202 0 0
0.321756 0 0
0.372345 0 0
0.432805 0 0
0.50509 0 0
0.591027 0 0
0.691801 0 0
0.80711 0 0
0.934023 0 0
0.000181377 0 0
0.00055208 0 0
0.000947641 0 0
0.00138567 0 0
0.00188512 0 0
0.00246694 0 0
0.00315478 0 0
0.00397576 0 0
0.00496132 0 0
0.0061482 0 0
0.00757948 0 0
0.00930578 0 0
0.0113865 0 0
0.0138913 0 0
0.0169011 0 0
0.0205098 0 0
0.0248246 0 0
0.0299669 0 0
0.0360718 0 0
0.0432867 0 0
0.0517692 0 0
0.0616832 0 0
0.0731955 0 0
0.0864724 0 0
0.101678 0 0
0.118978 0 0
0.138553 0 0
0.160632 0 0
0.185535 0 0
0.21373 0 0
0.2459 0 0
0.283003 0 0
0.326307 0 0
0.377394 0 0
0.438094 0 0
0.510348 0 0
0.595928 0 0
0.695951 0 0
0.810047 0 0
0.935179 0 0
0.000146267 0 0
0.000445324 0 0
0.000764814 0 0
0.00111926 0 0
0.00152438 0 0
0.00199764 0 0
0.00255894 0 0
0.0032313 0 0
0.00404172 0 0
0.0050221 0 0
0.00621043 0 0
0.00765206 0 0
0.00940124 0 0
0.0115229 0 0
0.0140945 0 0
0.0172083 0 0
0.0209736 0 0
0.0255185 0 0
0.0309924 0 0
0.0375664 0 0
0.0454337 0 0
0.0548077 0 0
0.0659183 0 0
0.0790054 0 0
0.0943109 0 0
0.112071 0 0
0.132513 0 0
0.155868 0 0
0.182394 0 0
0.212433 0 0