# vtk DataFile Version 2.0
Presion
ASCII

DATASET STRUCTURED_GRID
DIMENSIONS   40   40   20

POINTS   32000   double
0.0125   0.0125   0.025
0.0375   0.0125   0.025
0.0625   0.0125   0.025
0.0875   0.0125   0.025
0.1125   0.0125   0.025
0.1375   0.0125   0.025
0.1625   0.0125   0.025
0.1875   0.0125   0.025
0.2125   0.0125   0.025
0.2375   0.0125   0.025
0.2625   0.0125   0.025
0.2875   0.0125   0.025
0.3125   0.0125   0.025
0.3375   0.0125   0.025
0.3625   0.0125   0.025
0.3875   0.0125   0.025
0.4125   0.0125   0.025
0.4375   0.0125   0.025
0.4625   0.0125   0.025
0.4875   0.0125   0.025
0.5125   0.0125   0.025
0.5375   0.0125   0.025
0.5625   0.0125   0.025
0.5875   0.0125   0.025
0.6125   0.0125   0.025
0.6375   0.0125   0.025
0.6625   0.0125   0.025
0.6875   0.0125   0.025
0.7125   0.0125   0.025
0.7375   0.0125   0.025
0.7625   0.0125   0.025
0.7875   0.0125   0.025
0.8125   0.0125   0.025
0.8375   0.0125   0.025
0.8625   0.0125   0.025
0.8875   0.0125   0.025
0.9125   0.0125   0.025
0.9375   0.0125   0.025
0.9625   0.0125   0.025
0.9875   0.0125   0.025
0.0125   0.0375   0.025
0.0375   0.0375   0.025
0.0625   0.0375   0.025
0.0875   0.0375   0.025
0.1125   0.0375   0.025
0.1375   0.0375   0.025
0.1625   0.0375   0.025
0.1875   0.0375   0.025
0.2125   0.0375   0.025
0.2375   0.0375   0.025
0.2625   0.0375   0.025
0.2875   0.0375   0.025
0.3125   0.0375   0.025
0.3375   0.0375   0.025
0.3625   0.0375   0.025
0.3875   0.0375   0.025
0.4125   0.0375   0.025
0.4375   0.0375   0.025
0.4625   0.0375   0.025
0.4875   0.0375   0.025
0.5125   0.0375   0.025
0.5375   0.0375   0.025
0.5625   0.0375   0.025
0.5875   0.0375   0.025
0.6125   0.0375   0.025
0.6375   0.0375   0.025
0.6625   0.0375   0.025
0.6875   0.0375   0.025
0.7125   0.0375   0.025
0.7375   0.0375   0.025
0.7625   0.0375   0.025
0.7875   0.0375   0.025
0.8125   0.0375   0.025
0.8375   0.0375   0.025
0.8625   0.0375   0.025
0.8875   0.0375   0.025
0.9125   0.0375   0.025
0.9375   0.0375   0.025
0.9625   0.0375   0.025
0.9875   0.0375   0.025
0.0125   0.0625   0.025
0.0375   0.0625   0.025
0.0625   0.0625   0.025
0.0875   0.0625   0.025
0.1125   0.0625   0.025
0.1375   0.0625   0.025
0.1625   0.0625   0.025
0.1875   0.0625   0.025
0.2125   0.0625   0.025
0.2375   0.0625   0.025
0.2625   0.0625   0.025
0.2875   0.0625   0.025
0.3125   0.0625   0.025
0.3375   0.0625   0.025
0.3625   0.0625   0.025
0.3875   0.0625   0.025
0.4125   0.0625   0.025
0.4375   0.0625   0.025
0.4625   0.0625   0.025
0.4875   0.0625   0.025
0.5125   0.0625   0.025
0.5375   0.0625   0.025
0.5625   0.0625   0.025
0.5875   0.0625   0.025
0.6125   0.0625   0.025
0.6375   0.0625   0.025
0.6625   0.0625   0.025
0.6875   0.0625   0.025
0.7125   0.0625   0.025
0.7375   0.0625   0.025
0.7625   0.0625   0.025
0.7875   0.0625   0.025
0.8125   0.0625   0.025
0.8375   0.0625   0.025
0.8625   0.0625   0.025
0.8875   0.0625   0.025
0.9125   0.0625   0.025
0.9375   0.0625   0.025
0.9625   0.0625   0.025
0.9875   0.0625   0.025
0.0125   0.0875   0.025
0.0375   0.0875   0.025
0.0625   0.0875   0.025
0.0875   0.0875   0.025
0.1125   0.0875   0.025
0.1375   0.0875   0.025
0.1625   0.0875   0.025
0.1875   0.0875   0.025
0.2125   0.0875   0.025
0.2375   0.0875   0.025
0.2625   0.0875   0.025
0.2875   0.0875   0.025
0.3125   0.0875   0.025
0.3375   0.0875   0.025
0.3625   0.0875   0.025
0.3875   0.0875   0.025
0.4125   0.0875   0.025
0.4375   0.0875   0.025
0.4625   0.0875   0.025
0.4875   0.0875   0.025
0.5125   0.0875   0.025
0.5375   0.0875   0.025
0.5625   0.0875   0.025
0.5875   0.0875   0.025
0.6125   0.0875   0.025
0.6375   0.0875   0.025
0.6625   0.0875   0.025
0.6875   0.0875   0.025
0.7125   0.0875   0.025
0.7375   0.0875   0.025
0.7625   0.0875   0.025
0.7875   0.0875   0.025
0.8125   0.0875   0.025
0.8375   0.0875   0.025
0.8625   0.0875   0.025
0.8875   0.0875   0.025
0.9125   0.0875   0.025
0.9375   0.0875   0.025
0.9625   0.0875   0.025
0.9875   0.0875   0.025
0.0125   0.1125   0.025
0.0375   0.1125   0.025
0.0625   0.1125   0.025
0.0875   0.1125   0.025
0.1125   0.1125   0.025
0.1375   0.1125   0.025
0.1625   0.1125   0.025
0.1875   0.1125   0.025
0.2125   0.1125   0.025
0.2375   0.1125   0.025
0.2625   0.1125   0.025
0.2875   0.1125   0.025
0.3125   0.1125   0.025
0.3375   0.1125   0.025
0.3625   0.1125   0.025
0.3875   0.1125   0.025
0.4125   0.1125   0.025
0.4375   0.1125   0.025
0.4625   0.1125   0.025
0.4875   0.1125   0.025
0.5125   0.1125   0.025
0.5375   0.1125   0.025
0.5625   0.1125   0.025
0.5875   0.1125   0.025
0.6125   0.1125   0.025
0.6375   0.1125   0.025
0.6625   0.1125   0.025
0.6875   0.1125   0.025
0.7125   0.1125   0.025
0.7375   0.1125   0.025
0.7625   0.1125   0.025
0.7875   0.1125   0.025
0.8125   0.1125   0.025
0.8375   0.1125   0.025
0.8625   0.1125   0.025
0.8875   0.1125   0.025
0.9125   0.1125   0.025
0.9375   0.1125   0.025
0.9625   0.1125   0.025
0.9875   0.1125   0.025
0.0125   0.1375   0.025
0.0375   0.1375   0.025
0.0625   0.1375   0.025
0.0875   0.1375   0.025
0.1125   0.1375   0.025
0.1375   0.1375   0.025
0.1625   0.1375   0.025
0.1875   0.1375   0.025
0.2125   0.1375   0.025
0.2375   0.1375   0.025
0.2625   0.1375   0.025
0.2875   0.1375   0.025
0.3125   0.1375   0.025
0.3375   0.1375   0.025
0.3625   0.1375   0.025
0.3875   0.1375   0.025
0.4125   0.1375   0.025
0.4375   0.1375   0.025
0.4625   0.1375   0.025
0.4875   0.1375   0.025
0.5125   0.1375   0.025
0.5375   0.1375   0.025
0.5625   0.1375   0.025
0.5875   0.1375   0.025
0.6125   0.1375   0.025
0.6375   0.1375   0.025
0.6625   0.1375   0.025
0.6875   0.1375   0.025
0.7125   0.1375   0.025
0.7375   0.1375   0.025
0.7625   0.1375   0.025
0.7875   0.1375   0.025
0.8125   0.1375   0.025
0.8375   0.1375   0.025
0.8625   0.1375   0.025
0.8875   0.1375   0.025
0.9125   0.1375   0.025
0.9375   0.1375   0.025
0.9625   0.1375   0.025
0.9875   0.1375   0.025
0.0125   0.1625   0.025
0.0375   0.1625   0.025
0.0625   0.1625   0.025
0.0875   0.1625   0.025
0.1125   0.1625   0.025
0.1375   0.1625   0.025
0.1625   0.1625   0.025
0.1875   0.1625   0.025
0.2125   0.1625   0.025
0.2375   0.1625   0.025
0.2625   0.1625   0.025
0.2875   0.1625   0.025
0.3125   0.1625   0.025
0.3375   0.1625   0.025
0.3625   0.1625   0.025
0.3875   0.1625   0.025
0.4125   0.1625   0.025
0.4375   0.1625   0.025
0.4625   0.1625   0.025
0.4875   0.1625   0.025
0.5125   0.1625   0.025
0.5375   0.1625   0.025
0.5625   0.1625   0.025
0.5875   0.1625   0.025
0.6125   0.1625   0.025
0.6375   0.1625   0.025
0.6625   0.1625   0.025
0.6875   0.1625   0.025
0.7125   0.1625   0.025
0.7375   0.1625   0.025
0.7625   0.1625   0.025
0.7875   0.1625   0.025
0.8125   0.1625   0.025
0.8375   0.1625   0.025
0.8625   0.1625   0.025
0.8875   0.1625   0.025
0.9125   0.1625   0.025
0.9375   0.1625   0.025
0.9625   0.1625   0.025
0.9875   0.1625   0.025
0.0125   0.1875   0.025
0.0375   0.1875   0.025
0.0625   0.1875   0.025
0.0875   0.1875   0.025
0.1125   0.1875   0.025
0.1375   0.1875   0.025
0.1625   0.1875   0.025
0.1875   0.1875   0.025
0.2125   0.1875   0.025
0.2375   0.1875   0.025
0.2625   0.1875   0.025
0.2875   0.1875   0.025
0.3125   0.1875   0.025
0.3375   0.1875   0.025
0.3625   0.1875   0.025
0.3875   0.1875   0.025
0.4125   0.1875   0.025
0.4375   0.1875   0.025
0.4625   0.1875   0.025
0.4875   0.1875   0.025
0.5125   0.1875   0.025
0.5375   0.1875   0.025
0.5625   0.1875   0.025
0.5875   0.1875   0.025
0.6125   0.1875   0.025
0.6375   0.1875   0.025
0.6625   0.1875   0.025
0.6875   0.1875   0.025
0.7125   0.1875   0.025
0.7375   0.1875   0.025
0.7625   0.1875   0.025
0.7875   0.1875   0.025
0.8125   0.1875   0.025
0.8375   0.1875   0.025
0.8625   0.1875   0.025
0.8875   0.1875   0.025
0.9125   0.1875   0.025
0.9375   0.1875   0.025
0.9625   0.1875   0.025
0.9875   0.1875   0.025
0.0125   0.2125   0.025
0.0375   0.2125   0.025
0.0625   0.2125   0.025
0.0875   0.2125   0.025
0.1125   0.2125   0.025
0.1375   0.2125   0.025
0.1625   0.2125   0.025
0.1875   0.2125   0.025
0.2125   0.2125   0.025
0.2375   0.2125   0.025
0.2625   0.2125   0.025
0.2875   0.2125   0.025
0.3125   0.2125   0.025
0.3375   0.2125   0.025
0.3625   0.2125   0.025
0.3875   0.2125   0.025
0.4125   0.2125   0.025
0.4375   0.2125   0.025
0.4625   0.2125   0.025
0.4875   0.2125   0.025
0.5125   0.2125   0.025
0.5375   0.2125   0.025
0.5625   0.2125   0.025
0.5875   0.2125   0.025
0.6125   0.2125   0.025
0.6375   0.2125   0.025
0.6625   0.2125   0.025
0.6875   0.2125   0.025
0.7125   0.2125   0.025
0.7375   0.2125   0.025
0.7625   0.2125   0.025
0.7875   0.2125   0.025
0.8125   0.2125   0.025
0.8375   0.2125   0.025
0.8625   0.2125   0.025
0.8875   0.2125   0.025
0.9125   0.2125   0.025
0.9375   0.2125   0.025
0.9625   0.2125   0.025
0.9875   0.2125   0.025
0.0125   0.2375   0.025
0.0375   0.2375   0.025
0.0625   0.2375   0.025
0.0875   0.2375   0.025
0.1125   0.2375   0.025
0.1375   0.2375   0.025
0.1625   0.2375   0.025
0.1875   0.2375   0.025
0.2125   0.2375   0.025
0.2375   0.2375   0.025
0.2625   0.2375   0.025
0.2875   0.2375   0.025
0.3125   0.2375   0.025
0.3375   0.2375   0.025
0.3625   0.2375   0.025
0.3875   0.2375   0.025
0.4125   0.2375   0.025
0.4375   0.2375   0.025
0.4625   0.2375   0.025
0.4875   0.2375   0.025
0.5125   0.2375   0.025
0.5375   0.2375   0.025
0.5625   0.2375   0.025
0.5875   0.2375   0.025
0.6125   0.2375   0.025
0.6375   0.2375   0.025
0.6625   0.2375   0.025
0.6875   0.2375   0.025
0.7125   0.2375   0.025
0.7375   0.2375   0.025
0.7625   0.2375   0.025
0.7875   0.2375   0.025
0.8125   0.2375   0.025
0.8375   0.2375   0.025
0.8625   0.2375   0.025
0.8875   0.2375   0.025
0.9125   0.2375   0.025
0.9375   0.2375   0.025
0.9625   0.2375   0.025
0.9875   0.2375   0.025
0.0125   0.2625   0.025
0.0375   0.2625   0.025
0.0625   0.2625   0.025
0.0875   0.2625   0.025
0.1125   0.2625   0.025
0.1375   0.2625   0.025
0.1625   0.2625   0.025
0.1875   0.2625   0.025
0.2125   0.2625   0.025
0.2375   0.2625   0.025
0.2625   0.2625   0.025
[...]
POINT_DATA   32000
SCALARS Presion double
LOOKUP_TABLE   Presion

0 0 0 0 0 0 0 0 0 0 0 0 0 0 0 0 0 0 0 0 0 0 0 0 0 0 0 0 0 0 0 0 0 0 0 0 0 0 0 0 -3.11627e-10 -3.08249e-10 -3.01215e-10 -2.90367e-10 -2.7568e-10 -2.57261e-10 -2.35328e-10 -2.10193e-10 -1.82221e-10 -1.51799e-10 -1.19289e-10 -1.03793e-10 -8.87541e-11 -7.45772e-11 -6.1555e-11 -4.9862e-11 -3.95553e-11 -3.05828e-11 -2.27961e-11 -1.59634e-11 -9.78149e-12 -5.99375e-12 -2.46392e-12 1.06637e-12 4.87578e-12 9.25882e-12 1.45197e-11 2.09628e-11 2.88792e-11 3.85286e-11 5.01185e-11 6.98328e-11 9.25145e-11 1.18247e-10 1.46996e-10 1.78599e-10 2.12771e-10 2.49111e-10 2.87131e-10 3.26284e-10 -7.49229e-10 -7.40955e-10 -7.23761e-10 -6.97307e-10 -6.61583e-10 -6.169e-10 -5.63853e-10 -5.03258e-10 -4.3607e-10 -3.63285e-10 -2.85841e-10 -2.48101e-10 -2.11612e-10 -1.7734e-10 -1.45976e-10 -1.17917e-10 -9.32745e-11 -7.1898e-11 -5.34091e-11 -3.72353e-11 -2.26393e-11 -1.35171e-11 -4.96853e-12 3.64207e-12 1.29966e-11 2.38126e-11 3.68275e-11 5.27753e-11 7.2351e-11 9.6167e-11 1.247e-10 1.72815e-10 2.27973e-10 2.90306e-10 3.5965e-10 4.35529e-10 5.1716e-10 6.03494e-10 6.9327e-10 7.85102e-10 -1.44254e-09 -1.42619e-09 -1.3923e-09 -1.34033e-09 -1.27038e-09 -1.1832e-09 -1.08012e-09 -9.62885e-10 -8.33535e-10 -6.94166e-10 -5.46752e-10 -4.72796e-10 -4.01675e-10 -3.35239e-10 -2.74776e-10 -2.20987e-10 -1.74012e-10 -1.33489e-10 -9.86246e-11 -6.82719e-11 -4.09864e-11 -2.34911e-11 -6.97743e-12 9.81463e-12 2.82277e-11 4.9667e-11 7.55695e-11 1.07355e-10 1.46354e-10 1.9372e-10 2.50317e-10 3.44675e-10 4.52389e-10 5.73541e-10 7.07619e-10 8.53482e-10 1.00939e-09 1.1731e-09 1.34198e-09 1.51317e-09 -2.59004e-09 -2.55978e-09 -2.49727e-09 -2.40172e-09 -2.27358e-09 -2.11452e-09 -1.9273e-09 -1.71545e-09 -1.48303e-09 -1.23417e-09 -9.72761e-10 -8.37281e-10 -7.07837e-10 -5.8772e-10 -4.7914e-10 -3.83211e-10 -3.00014e-10 -2.28734e-10 -1.67809e-10 -1.15075e-10 -6.78838e-11 -3.67337e-11 -7.08299e-12 2.34015e-11 5.71887e-11 9.68487e-11 1.44997e-10 2.04198e-10 2.76836e-10 3.64927e-10 4.69926e-10 6.42715e-10 8.39092e-10 1.05887e-09 1.30072e-09 1.56216e-09 1.83959e-09 2.12854e-09 2.42384e-09 2.72006e-09 -4.50335e-09 -4.44901e-09 -4.3371e-09 -4.16663e-09 -3.93889e-09 -3.6574e-09 -3.32761e-09 -2.95644e-09 -2.55165e-09 -2.12116e-09 -1.67233e-09 -1.4318e-09 -1.20363e-09 -9.93468e-10 -8.04934e-10 -6.39659e-10 -4.97443e-10 -3.76536e-10 -2.73941e-10 -1.85699e-10 -1.07095e-10 -5.35932e-11 -2.18893e-12 5.12962e-11 1.11254e-10 1.82237e-10 2.68858e-10 3.75617e-10 5.06646e-10 6.65379e-10 8.54171e-10 1.16056e-09 1.50729e-09 1.89344e-09 2.31595e-09 2.76969e-09 3.24758e-09 3.74099e-09 4.24026e-09 4.73533e-09 -7.67224e-09 -7.57652e-09 -7.38001e-09 -7.08168e-09 -6.68463e-09 -6.19593e-09 -5.62609e-09 -4.9882e-09 -4.29681e-09 -3.56663e-09 -2.81127e-09 -2.39292e-09 -1.9991e-09 -1.63925e-09 -1.3191e-09 -1.04082e-09 -8.03402e-10 -6.03232e-10 -4.34691e-10 -2.90664e-10 -1.62929e-10 -7.3221e-11 1.38475e-11 1.05584e-10 2.09629e-10 3.33873e-10 4.86294e-10 6.74639e-10 9.05961e-10 1.186e-09 1.5185e-09 2.05041e-09 2.65003e-09 3.31468e-09 4.03792e-09 4.80958e-09 5.61615e-09 6.44157e-09 7.26816e-09 8.07782e-09 -1.28598e-08 -1.26938e-08 -1.23541e-08 -1.18401e-08 -1.11585e-08 -1.0323e-08 -9.35326e-09 -8.2736e-09 -7.11065e-09 -5.89117e-09 -4.63974e-09 -3.9243e-09 -3.25629e-09 -2.65111e-09 -2.11748e-09 -1.65786e-09 -1.2693e-09 -9.44584e-10 -6.73375e-10 -4.43114e-10 -2.39692e-10 -9.2267e-11 5.23828e-11 2.06779e-10 3.83956e-10 5.97358e-10 8.60561e-10 1.18673e-09 1.58775e-09 2.07314e-09 2.64875e-09 3.55629e-09 4.57581e-09 5.70106e-09 6.91909e-09 8.21047e-09 9.55016e-09 1.09089e-08 1.22552e-08 1.35572e-08 -2.12399e-08 -2.09563e-08 -2.03774e-08 -1.95042e-08 -1.83503e-08 -1.69415e-08 -1.53138e-08 -1.35112e-08 -1.15816e-08 -9.57284e-09 -7.52841e-09 -6.32382e-09 -5.20881e-09 -4.20793e-09 -3.33381e-09 -2.58829e-09 -1.96416e-09 -1.44745e-09 -1.01946e-09 -6.58405e-10 -3.40476e-10 -1.02707e-10 1.33306e-10 3.88604e-10 6.85024e-10 1.0451e-09 1.49162e-09 2.04667e-09 2.73016e-09 3.55775e-09 4.53856e-09 6.06256e-09 7.7696e-09 9.64642e-09 1.1668e-08 1.37984e-08 1.59921e-08 1.81973e-08 2.03586e-08 2.24211e-08 -3.4594e-08 -3.41158e-08 -3.31427e-08 -3.16791e-08 -2.97515e-08 -2.74068e-08 -2.47098e-08 -2.17385e-08 -1.85777e-08 -1.53113e-08 -1.20152e-08 -1.00172e-08 -8.18493e-09 -6.55643e-09 -5.14891e-09 -3.9611e-09 -2.9771e-09 -2.1705e-09 -1.5081e-09 -9.52737e-10 -4.64916e-10 -8.8441e-11 2.89915e-10 7.04811e-10 1.19218e-09 1.78921e-09 2.53365e-09 3.46223e-09 4.60802e-09 5.99676e-09 7.64272e-09 1.01635e-08 1.29804e-08 1.6067e-08 1.93767e-08 2.28441e-08 2.6389e-08 2.99205e-08 3.33437e-08 3.65658e-08 -5.55866e-08 -5.47913e-08 -5.31768e-08 -5.07554e-08 -4.75759e-08 -4.37223e-08 -3.93085e-08 -3.44706e-08 -2.93559e-08 -2.41101e-08 -1.88632e-08 -1.55975e-08 -1.26326e-08 -1.00258e-08 -7.79815e-09 -5.93982e-09 -4.41767e-09 -3.18299e-09 -2.17796e-09 -1.34023e-09 -6.05489e-10 -2.02415e-11 5.7577e-10 1.23851e-09 2.02606e-09 2.99882e-09 4.21858e-09 5.74591e-09 7.63548e-09 9.9297e-09 1.26511e-08 1.67601e-08 2.13439e-08 2.63522e-08 3.17003e-08 3.72724e-08 4.29285e-08 4.85131e-08 5.3866e-08 5.88326e-08 -8.81482e-08 -8.68424e-08 -8.4198e-08 -8.02421e-08 -7.50626e-08 -6.88056e-08 -6.16675e-08 -5.38822e-08 -4.57027e-08 -3.73778e-08 -2.91282e-08 -2.38667e-08 -1.91423e-08 -1.50378e-08 -1.15739e-08 -8.72058e-09 -6.41199e-09 -4.56019e-09 -3.06633e-09 -1.82784e-09 -7.41851e-10 1.51339e-10 1.07394e-09 2.11446e-09 3.36506e-09 4.92234e-09 6.88626e-09 9.35587e-09 1.24215e-08 1.61533e-08 2.05877e-08 2.7191e-08 3.45502e-08 4.25726e-08 5.11073e-08 5.99527e-08 6.8869e-08 7.75945e-08 8.58626e-08 9.34205e-08 -1.37996e-07 -1.35879e-07 -1.31602e-07 -1.25219e-07 -1.16882e-07 -1.06841e-07 -9.54291e-08 -8.30414e-08 -7.01065e-08 -5.70457e-08 -4.42296e-08 -3.58726e-08 -2.846e-08 -2.21055e-08 -1.6817e-08 -1.25214e-08 -9.09203e-09 -6.37365e-09 -4.20061e-09 -2.40737e-09 -8.32809e-10 5.05426e-10 1.90883e-09 3.51445e-09 5.46567e-09 7.9146e-09 1.1021e-08 1.49458e-08 1.98382e-08 2.58154e-08 3.2938e-08 4.34045e-08 5.50674e-08 6.77602e-08 8.12188e-08 9.50975e-08 1.08992e-07 1.22468e-07 1.3509e-07 1.46449e-07 -2.13336e-07 -2.09947e-07 -2.03114e-07 -1.92936e-07 -1.79675e-07 -1.63745e-07 -1.45699e-07 -1.26199e-07 -1.05961e-07 -8.56932e-08 -6.60128e-08 -5.29252e-08 -4.14764e-08 -3.18094e-08 -2.38901e-08 -1.75572e-08 -1.25748e-08 -8.67468e-09 -5.585e-09 -3.04432e-09 -8.05754e-10 1.16268e-09 3.26072e-09 5.69571e-09 8.6863e-09 1.24679e-08 1.72929e-08 2.34212e-08 3.10994e-08 4.05256e-08 5.1805e-08 6.81746e-08 8.64303e-08 1.06278e-07 1.27262e-07 1.48798e-07 1.70214e-07 1.90799e-07 2.0985e-07 2.2672e-07 -3.25787e-07 -3.20429e-07 -3.09643e-07 -2.93608e-07 -2.72754e-07 -2.47759e-07 -2.19526e-07 -1.8914e-07 -1.57793e-07 -1.26663e-07 -9.6778e-08 -7.65683e-08 -5.917e-08 -4.47347e-08 -3.31204e-08 -2.3994e-08 -1.69279e-08 -1.14695e-08 -7.18246e-09 -3.6637e-09 -5.43908e-10 2.29922e-09 5.38245e-09 9.01183e-09 1.35135e-08 1.92452e-08 2.66002e-08 3.59957e-08 4.78401e-08 6.24737e-08 8.00861e-08 1.0536e-07 1.336e-07 1.64295e-07 1.96665e-07 2.29733e-07 2.62398e-07 2.93513e-07 3.21962e-07 3.46731e-07 -4.91598e-07 -4.83228e-07 -4.66408e-07 -4.41439e-07 -4.09013e-07 -3.70213e-07 -3.26488e-07 -2.79594e-07 -2.31486e-07 -1.84127e-07 -1.3923e-07 -1.08461e-07 -8.24693e-08 -6.1345e-08 -4.46998e-08 -3.18768e-08 -2.21207e-08 -1.46868e-08 -8.89297e-09 -4.13418e-09 1.27342e-10 4.16148e-09 8.61755e-09 1.39353e-08 2.0589e-08 2.91115e-08 4.01057e-08 5.4236e-08 7.21808e-08 9.45336e-08 1.21651e-07 1.60191e-07 2.03397e-07 2.50379e-07 2.99817e-07 3.50094e-07 3.99424e-07 4.45987e-07 4.88035e-07 5.24004e-07 -7.33207e-07 -7.2029e-07 -6.9437e-07 -6.55937e-07 -6.06078e-07 -5.46482e-07 -4.79421e-07 -4.07694e-07 -3.3448e-07 -2.63045e-07 -1.96271e-07 -1.50094e-07 -1.11981e-07 -8.17654e-08 -5.85313e-08 -4.10287e-08 -2.79621e-08 -1.81409e-08 -1.0532e-08 -4.25425e-09 1.45231e-09 7.08011e-09 1.34187e-08 2.10808e-08 3.07372e-08 4.31608e-08 5.92594e-08 8.00782e-08 1.06744e-07 1.4031e-07 1.81476e-07 2.39553e-07 3.04988e-07 3.76228e-07 4.5104e-07 5.26771e-07 6.00573e-07 6.69593e-07 7.31136e-07 7.82824e-07 -1.08123e-06 -1.06153e-06 -1.02206e-06 -9.63585e-07 -8.8777e-07 -7.97181e-07 -6.953e-07 -5.86494e-07 -4.75877e-07 -3.68893e-07 -2.70485e-07 -2.02223e-07 -1.47512e-07 -1.05445e-07 -7.40165e-08 -5.09301e-08 -3.40364e-08 -2.1501e-08 -1.18166e-08 -3.74621e-09 3.75018e-09 1.14795e-08 2.03647e-08 3.12301e-08 4.49922e-08 6.27386e-08 8.57995e-08 1.15791e-07 1.54576e-07 2.04047e-07 2.6563e-07 3.5219e-07 4.50409e-07 5.57536e-07 6.69794e-07 7.82876e-07 8.92303e-07 9.9368e-07 1.08292e-06 1.15646e-06 -1.57695e-06 -1.54728e-06 -1.48787e-06 -1.39993e-06 -1.28594e-06 -1.14967e-06 -9.96324e-07 -8.3253e-07 -6.66379e-07 -5.06969e-07 -3.63039e-07 -2.63799e-07 -1.87296e-07 -1.30689e-07 -8.9813e-08 -6.06074e-08 -3.96613e-08 -2.42815e-08 -1.23716e-08 -2.26809e-09 7.4052e-09 1.78777e-08 3.01754e-08 4.53602e-08 6.46333e-08 8.94652e-08 1.21735e-07 1.63869e-07 2.18898e-07 2.90254e-07 3.80946e-07 5.0869e-07 6.55057e-07 8.15026e-07 9.8219e-07 1.14966e-06 1.31051e-06 1.45811e-06 1.58636e-06 1.69e-06 -2.27542e-06 -2.23125e-06 -2.14291e-06 -2.01221e-06 -1.84274e-06 -1.63997e-06 -1.41132e-06 -1.16652e-06 -9.18021e-07 -6.80948e-07 -4.71414e-07 -3.30067e-07 -2.26859e-07 -1.54135e-07 -1.03645e-07 -6.85966e-08 -4.39077e-08 -2.58778e-08 -1.17697e-08 5.43241e-10 1.28272e-08 2.6868e-08 4.3722e-08 6.4681e-08 9.12406e-08 1.25289e-07 1.69343e-07 2.26869e-07 3.02632e-07 4.028e-07 5.33924e-07 7.2101e-07 9.38123e-07 1.17569e-06 1.42289e-06 1.66892e-06 1.90339e-06 2.11646e-06 2.2992e-06 2.44393e-06 -3.24929e-06 -3.18431e-06 -3.05448e-06 -2.8625e-06 -2.61352e-06 -2.31515e-06 -1.97761e-06 -1.61444e-06 -1.24378e-06 -8.90149e-07 -5.84478e-07 -3.89284e-07 -2.57648e-07 -1.7042e-07 -1.12368e-07 -7.30946e-08 -4.57344e-08 -2.56691e-08 -9.61666e-09 4.98084e-09 2.03517e-08 3.90676e-08 6.20343e-08 9.06931e-08 1.26796e-07 1.72618e-07 2.31275e-07 3.07318e-07 4.07704e-07 5.43068e-07 7.27878e-07 1.00113e-06 1.32299e-06 1.67444e-06 2.03757e-06 2.39613e-06 2.735e-06 3.04001e-06 3.29825e-06 3.49865e-06 -4.59339e-06 -4.49887e-06 -4.31027e-06 -4.03162e-06 -3.67024e-06 -3.23648e-06 -2.74379e-06 -2.2096e-06 -1.65788e-06 -1.12509e-06 -6.7056e-07 -4.17628e-07 -2.66296e-07 -1.72768e-07 -1.12638e-07 -7.2431e-08 -4.42733e-08 -2.31847e-08 -5.67059e-09 1.11152e-08 2.99957e-08 5.5016e-08 8.63121e-08 1.25276e-07 1.73855e-07 2.34599e-07 3.10955e-07 4.08067e-07 5.34616e-07 7.06794e-07 9.55295e-07 1.35842e-06 1.83812e-06 2.35654e-06 2.88616e-06 3.40421e-06 3.8897e-06 4.3227e-06 4.68475e-06 4.96002e-06 -6.4303e-06 -6.29432e-06 -6.02342e-06 -5.6237e-06 -5.10562e-06 -4.48321e-06 -3.77354e-06 -2.99699e-06 -2.17982e-06 -1.36366e-06 -6.42896e-07 -3.74725e-07 -2.37719e-07 -1.55852e-07 -1.02566e-07 -6.58971e-08 -3.92214e-08 -1.82777e-08 7.34633e-11 1.86146e-08 4.07803e-08 7.50433e-08 1.17981e-07 1.70814e-07 2.35773e-07 3.15582e-07 4.13505e-07 5.3392e-07 6.84171e-07 8.80913e-07 1.17478e-06 1.79718e-06 2.5205e-06 3.28184e-06 4.04716e-06 4.78829e-06 5.47751e-06 6.08714e-06 6.59098e-06 6.96632e-06 -8.91705e-06 -8.72341e-06 -8.33838e-06 -7.7714e-06 -7.03775e-06 -6.15682e-06 -5.1504e-06 -4.04105e-06 -2.84998e-06 -1.59046e-06 -2.37897e-07 -2.23154e-07 -1.70556e-07 -1.22227e-07 -8.40712e-08 -5.45934e-08 -3.1138e-08 -1.11765e-08 7.5232e-09 2.69182e-08 4.84248e-08 9.94861e-08 1.58932e-07 2.30343e-07 3.16895e-07 4.21579e-07 5.47076e-07 6.95382e-07 8.66712e-07 1.05516e-06 1.22884e-06 2.32955e-06 3.42725e-06 4.53148e-06 5.62281e-06 6.67106e-06 7.6403e-06 8.49197e-06 9.18844e-06 9.69692e-06 -1.22531e-05 -1.19798e-05 -1.14378e-05 -1.06418e-05 -9.61492e-06 -8.38484e-06 -6.98123e-06 -5.43258e-06 -3.76295e-06 -1.9869e-06 -1.00562e-07 -1.23971e-07 -1.11163e-07 -8.7638e-08 -6.34273e-08 -4.13397e-08 -2.13354e-08 -2.33925e-09 1.70647e-08 3.83456e-08 6.28082e-08 1.31969e-07 2.12099e-07 3.07587e-07 4.22461e-07 5.60186e-07 7.23201e-07 9.12017e-07 1.12343e-06 1.34674e-06 1.55672e-06 3.10589e-06 4.66013e-06 6.21417e-06 7.74325e-06 9.20804e-06 1.05589e-05 1.17404e-05 1.26978e-05 1.33831e-05 -1.66898e-05 -1.63071e-05 -1.55503e-05 -1.44431e-05 -1.30204e-05 -1.13233e-05 -9.39412e-06 -7.27229e-06 -4.99145e-06 -2.57735e-06 -4.83302e-08 -7.01515e-08 -7.09243e-08 -6.06185e-08 -4.56519e-08 -2.89622e-08 -1.13521e-08 7.52292e-09 2.8603e-08 5.31282e-08 8.24627e-08 1.74e-07 2.80142e-07 4.06432e-07 5.58069e-07 7.39463e-07 9.53557e-07 1.20074e-06 1.47727e-06 1.77306e-06 2.07007e-06 4.17816e-06 6.31314e-06 8.45499e-06 1.05664e-05 1.2592e-05 1.44604e-05 1.60909e-05 1.74018e-05 1.83218e-05 -2.2542e-05 -2.20094e-05 -2.09598e-05 -1.94314e-05 -1.74779e-05 -1.51603e-05 -1.25401e-05 -9.6732e-06 -6.60723e-06 -3.38087e-06 -2.70991e-08 -4.34157e-08 -4.78945e-08 -4.35635e-08 -3.35026e-08 -1.9618e-08 -2.64433e-09 1.75699e-08 4.1801e-08 7.12589e-08 1.0744e-07 2.26855e-07 3.65486e-07 5.30607e-07 7.29145e-07 9.67124e-07 1.24884e-06 1.5757e-06 1.9447e-06 2.34682e-06 2.76596e-06 5.5993e-06 8.48582e-06 1.13966e-05 1.42799e-05 1.70577e-05 1.96272e-05 2.18691e-05 2.36604e-05 2.48935e-05 -3.02017e-05 -2.94636e-05 -2.80156e-05 -2.59191e-05 -2.32566e-05 -2.01191e-05 -1.65958e-05 -1.27652e-05 -8.69244e-06 -4.42946e-06 -1.95592e-08 -3.31471e-08 -3.88119e-08 -3.69335e-08 -2.86962e-08 -1.51217e-08 3.32353e-09 2.68196e-08 5.61614e-08 9.26788e-08 1.38122e-07 2.91679e-07 4.70214e-07 6.83363e-07 9.40479e-07 1.25e-06 1.6185e-06 2.04941e-06 2.54133e-06 3.08617e-06 3.66736e-06 7.43315e-06 1.12883e-05 1.52e-05 1.91016e-05 2.28859e-05 2.64056e-05 2.94832e-05 3.19318e-05 3.35858e-05 -4.01533e-05 -3.9133e-05 -3.7143e-05 -3.42816e-05 -3.06757e-05 -2.64609e-05 -2.17648e-05 -1.66966e-05 -1.13422e-05 -5.76661e-06 -2.04572e-08 -3.54334e-08 -4.27836e-08 -4.19462e-08 -3.33458e-08 -1.76563e-08 4.72718e-09 3.39776e-08 7.0951e-08 1.17189e-07 1.74836e-07 3.69299e-07 5.95826e-07 8.67104e-07 1.19571e-06 1.59342e-06 2.07019e-06 2.63263e-06 3.28203e-06 4.01187e-06 4.80496e-06 9.74922e-06 1.48376e-05 2.00403e-05 2.52766e-05 3.0404e-05 3.52133e-05 3.94406e-05 4.27977e-05 4.5024e-05 -5.29895e-05 -5.15802e-05 -4.88517e-05 -4.49619e-05 -4.01056e-05 -3.4483e-05 -2.82759e-05 -2.16324e-05 -1.4663e-05 -7.44425e-06 -2.97518e-08 -5.14206e-08 -6.24466e-08 -6.2155e-08 -5.11722e-08 -3.05563e-08 -1.0863e-09 3.71701e-08 8.50504e-08 1.44333e-07 2.17666e-07 4.60003e-07 7.42936e-07 1.08294e-06 1.4967e-06 2.00043e-06 2.60875e-06 3.33295e-06 4.17866e-06 5.14263e-06 6.20865e-06 1.26137e-05 1.92475e-05 2.60943e-05 3.30656e-05 3.99786e-05 4.6542e-05 5.23637e-05 5.69938e-05 6.00123e-05 -6.94218e-05 -6.74738e-05 -6.37378e-05 -5.84676e-05 -5.1961e-05 -4.45117e-05 -3.63749e-05 -2.77483e-05 -1.87685e-05 -9.51989e-06 -5.12843e-08 -8.73052e-08 -1.05052e-07 -1.04781e-07 -8.86206e-08 -5.90995e-08 -1.81094e-08 3.36366e-08 9.67784e-08 1.73284e-07 2.66341e-07 5.63334e-07 9.10953e-07 1.3302e-06 1.84283e-06 2.47073e-06 3.23469e-06 4.15262e-06 5.23679e-06 6.48998e-06 7.90027e-06 1.60769e-05 2.46104e-05 3.35184e-05 4.27194e-05 5.19929e-05 6.09448e-05 6.89983e-05 7.54439e-05 7.95845e-05 -9.02756e-05 -8.75784e-05 -8.24673e-05 -7.53499e-05 -6.66788e-05 -5.68802e-05 -4.6307e-05 -3.52165e-05 -2.37709e-05 -1.20531e-05 -9.38424e-08 -1.55988e-07 -1.84251e-07 -1.82257e-07 -1.56011e-07 -1.11285e-07 -5.21726e-08 1.94213e-08 1.03716e-07 2.02762e-07 3.20169e-07 6.77942e-07 1.0978e-06 1.60599e-06 2.23032e-06 2.9996e-06 3.94258e-06 5.08602e-06 6.45178e-06 8.05251e-06 9.8854e-06 2.01565e-05 3.09713e-05 4.24116e-05 5.44322e-05 6.67946e-05 7.89928e-05 9.01969e-05 9.92841e-05 0.000105063 -0.00011645 -0.000112708 -0.000105723 -9.61475e-05 -8.46639e-05 -7.18822e-05 -5.82795e-05 -4.41803e-05 -2.97653e-05 -1.50997e-05 -1.73896e-07 -2.80133e-07 -3.22557e-07 -3.13911e-07 -2.68572e-07 -1.98431e-07 -1.11299e-07 -1.08651e-08 1.02548e-07 2.30976e-07 3.78035e-07 8.01513e-07 1.29976e-06 1.90487e-06 2.6516e-06 3.57699e-06 4.7195e-06 6.11723e-06 7.80502e-06 9.8099e-06 1.21443e-05 2.48182e-05 3.82943e-05 5.27629e-05 6.82663e-05 8.45995e-05 0.00010117 0.00011684 0.000129851 0.000138111 -0.000148822 -0.00014362 -0.000134088 -0.000121268 -0.000106181 -8.96807e-05 -7.23913e-05 -5.47033e-05 -3.67991e-05 -1.86992e-05 -3.19214e-07 -4.95401e-07 -5.53264e-07 -5.26779e-07 -4.46594e-07 -3.35055e-07 -2.05569e-07 -6.40251e-08 8.89684e-08 2.5557e-07 4.38494e-07 9.30843e-07 1.51146e-06 2.21875e-06 3.09512e-06 4.18694e-06 5.54401e-06 7.21819e-06 9.26081e-06 1.1718e-05 1.46235e-05 2.99562e-05 4.6427e-05 6.43901e-05 8.40511e-05 0.000105337 0.000127672 0.000149629 0.000168563 0.00018075 -0.000188086 -0.000180825 -0.000167831 -0.000150778 -0.000131164 -0.000110147 -8.85076e-05 -6.668e-05 -4.48149e-05 -2.28472e-05 -5.69858e-07 -8.49292e-07 -9.17821e-07 -8.52625e-07 -7.12767e-07 -5.36786e-07 -3.45686e-07 -1.47512e-07 5.78577e-08 2.73566e-07 4.99871e-07 1.06199e-06 1.72611e-06 2.53716e-06 3.54563e-06 4.80786e-06 6.38618e-06 8.34828e-06 1.07651e-05 1.37064e-05 1.72318e-05 3.53822e-05 5.50763e-05 7.68896e-05 0.000101282 0.00012846 0.000158084 0.000188667 0.000216568 0.000235256 -0.000234549 -0.000224317 -0.00020659 -0.00018407 -0.000158915 -0.000132614 -0.000106064 -7.96873e-05 -5.35468e-05 -2.74361e-05 -9.66084e-07 -1.38397e-06 -1.44947e-06 -1.31489e-06 -1.08272e-06 -8.13879e-07 -5.38707e-07 -2.66865e-07 4.35259e-09 2.81388e-07 5.60229e-07 1.19044e-06 1.93585e-06 2.84791e-06 3.98506e-06 5.41375e-06 7.20924e-06 9.45608e-06 1.22473e-05 1.56799e-05 1.98418e-05 4.08284e-05 6.38096e-05 8.96274e-05 0.000119079 0.000152811 0.00019104 0.000232788 0.000273921 0.000303763 -0.000287944 -0.000273205 -0.000248911 -0.000219436 -0.00018774 -0.000155572 -0.000123824 -9.27935e-05 -6.23727e-05 -3.21525e-05 -1.50452e-06 -2.08496e-06 -2.12988e-06 -1.89674e-06 -1.54321e-06 -1.15693e-06 -7.78794e-07 -4.19733e-07 -7.27957e-08 2.75664e-07 6.17062e-07 1.31104e-06 2.13218e-06 3.13789e-06 4.39403e-06 5.97647e-06 7.97275e-06 1.04839e-05 1.36253e-05 1.75248e-05 2.22986e-05 4.59668e-05 7.20875e-05 0.00010179 0.000136253 0.000176675 0.000224112 0.000278899 0.000338088 0.000387176 -0.000347176 -0.000325106 -0.000291622 -0.000253588 -0.000214639 -0.000176481 -0.000139743 -0.000104442 -7.02041e-05 -3.63718e-05 -2.05814e-06 -2.79719e-06 -2.82193e-06 -2.49256e-06 -2.01897e-06 -1.51504e-06 -1.03299e-06 -5.86199e-07 -1.64375e-07 2.56408e-07 6.67262e-07 1.4182e-06 2.30634e-06 3.39398e-06 4.7533e-06 6.46822e-06 8.63678e-06 1.1374e-05 1.48154e-05 1.91199e-05 2.44336e-05 5.04385e-05 7.93139e-05 0.000112463 0.000151444 0.000198028 0.000254194 0.000322093 0.000402185 0.000482671 -0.00040934 -0.000374671 -0.000328901 -0.000281361 -0.000235403 -0.00019203 -0.000151276 -0.000112719 -7.56729e-05 -3.92407e-05 -2.34349e-06 -3.20603e-06 -3.25858e-06 -2.89864e-06 -2.36404e-06 -1.7882e-06 -1.23514e-06 -7.23751e-07 -2.4493e-07 2.32433e-07 7.08762e-07 1.50714e-06 2.4503e-06 3.60405e-06 5.04526e-06 6.86381e-06 9.16541e-06 1.20754e-05 1.57432e-05 2.03525e-05 2.6084e-05 5.38944e-05 8.48998e-05 0.000120725 0.000163249 0.000214751 0.000278012 0.00035698 0.000455087 0.000579015 -0.000464523 -0.000410069 -0.000351617 -0.000296565 -0.000245989 -0.000199589 -0.00015669 -0.000116473 -7.8019e-05 -4.02965e-05 -2.17633e-06 -3.12956e-06 -3.28389e-06 -2.98716e-06 -2.47792e-06 -1.90085e-06 -1.33077e-06 -7.94285e-07 -2.87222e-07 2.19036e-07 7.42069e-07 1.57523e-06 2.55793e-06 3.75822e-06 5.25548e-06 7.14277e-06 9.5299e-06 1.25477e-05 1.63525e-05 2.11381e-05 2.71183e-05 5.60488e-05 8.83544e-05 0.000125787 0.000170412 0.000224832 0.000292317 0.000378373 0.000486224 0.000650403 0 0 0 0 0 0 0 0 0 0 0 0 0 0 0 0 0 0 0 0 0 0 0 0 0 0 0 0 0 0 0 0 0 0 0 0 0 0 0 0 -3.11622e-10 -3.08245e-10 -3.0121e-10 -2.90363e-10 -2.75677e-10 -2.57257e-10 -2.35325e-10 -2.1019e-10 -1.82219e-10 -1.51798e-10 -1.19288e-10 -1.03792e-10 -8.8754e-11 -7.45774e-11 -6.15554e-11 -4.98627e-11 -3.95561e-11 -3.05837e-11 -2.27971e-11 -1.59645e-11 -9.78257e-12 -5.99495e-12 -2.46521e-12 1.06501e-12 4.87436e-12 9.25737e-12 1.45182e-11 2.09614e-11 2.88779e-11 3.85274e-11 5.01176e-11 6.9832e-11 9.2514e-11 1.18247e-10 1.46996e-10 1.786e-10 2.12773e-10 2.49114e-10 2.87134e-10 3.26