# vtk DataFile Version 2.0
Velocidades
ASCII

DATASET STRUCTURED_GRID
DIMENSIONS   40   40   20

POINTS   32000   double
0.0125   0.0125   0.025
0.0125   0.0375   0.025
0.0125   0.0625   0.025
0.0125   0.0875   0.025
0.0125   0.1125   0.025
0.0125   0.1375   0.025
0.0125   0.1625   0.025
0.0125   0.1875   0.025
0.0125   0.2125   0.025
0.0125   0.2375   0.025
0.0125   0.2625   0.025
0.0125   0.2875   0.025
0.0125   0.3125   0.025
0.0125   0.3375   0.025
0.0125   0.3625   0.025
0.0125   0.3875   0.025
0.0125   0.4125   0.025
0.0125   0.4375   0.025
0.0125   0.4625   0.025
0.0125   0.4875   0.025
0.0125   0.5125   0.025
0.0125   0.5375   0.025
0.0125   0.5625   0.025
0.0125   0.5875   0.025
0.0125   0.6125   0.025
0.0125   0.6375   0.025
0.0125   0.6625   0.025
0.0125   0.6875   0.025
0.0125   0.7125   0.025
0.0125   0.7375   0.025
0.0125   0.7625   0.025
0.0125   0.7875   0.025
0.0125   0.8125   0.025
0.0125   0.8375   0.025
0.0125   0.8625   0.025
0.0125   0.8875   0.025
0.0125   0.9125   0.025
0.0125   0.9375   0.025
0.0125   0.9625   0.025
0.0125   0.9875   0.025
0.0375   0.0125   0.025
0.0375   0.0375   0.025
0.0375   0.0625   0.025
0.0375   0.0875   0.025
0.0375   0.1125   0.025
0.0375   0.1375   0.025
0.0375   0.1625   0.025
0.0375   0.1875   0.025
0.0375   0.2125   0.025
0.0375   0.2375   0.025
0.0375   0.2625   0.025
0.0375   0.2875   0.025
0.0375   0.3125   0.025
0.0375   0.3375   0.025
0.0375   0.3625   0.025
0.0375   0.3875   0.025
0.0375   0.4125   0.025
0.0375   0.4375   0.025
0.0375   0.4625   0.025
0.0375   0.4875   0.025
0.0375   0.5125   0.025
0.0375   0.5375   0.025
0.0375   0.5625   0.025
0.0375   0.5875   0.025
0.0375   0.6125   0.025
0.0375   0.6375   0.025
0.0375   0.6625   0.025
0.0375   0.6875   0.025
0.0375   0.7125   0.025
0.0375   0.7375   0.025
0.0375   0.7625   0.025
0.0375   0.7875   0.025
0.0375   0.8125   0.025
0.0375   0.8375   0.025
0.0375   0.8625   0.025
0.0375   0.8875   0.025
0.0375   0.9125   0.025
0.0375   0.9375   0.025
0.0375   0.9625   0.025
0.0375   0.9875   0.025
0.0625   0.0125   0.025
0.0625   0.0375   0.025
0.0625   0.0625   0.025
0.0625   0.0875   0.025
0.0625   0.1125   0.025
0.0625   0.1375   0.025
0.0625   0.1625   0.025
0.0625   0.1875   0.025
0.0625   0.2125   0.025
0.0625   0.2375   0.025
0.0625   0.2625   0.025
0.0625   0.2875   0.025
0.0625   0.3125   0.025
0.0625   0.3375   0.025
0.0625   0.3625   0.025
0.0625   0.3875   0.025
0.0625   0.4125   0.025
0.0625   0.4375   0.025
0.0625   0.4625   0.025
0.0625   0.4875   0.025
0.0625   0.5125   0.025
0.0625   0.5375   0.025
0.0625   0.5625   0.025
0.0625   0.5875   0.025
0.0625   0.6125   0.025
0.0625   0.6375   0.025
0.0625   0.6625   0.025
0.0625   0.6875   0.025
0.0625   0.7125   0.025
0.0625   0.7375   0.025
0.0625   0.7625   0.025
0.0625   0.7875   0.025
0.0625   0.8125   0.025
0.0625   0.8375   0.025
0.0625   0.8625   0.025
0.0625   0.8875   0.025
0.0625   0.9125   0.025
0.0625   0.9375   0.025
0.0625   0.9625   0.025
0.0625   0.9875   0.025
0.0875   0.0125   0.025
0.0875   0.0375   0.025
0.0875   0.0625   0.025
0.0875   0.0875   0.025
0.0875   0.1125   0.025
0.0875   0.1375   0.025
0.0875   0.1625   0.025
0.0875   0.1875   0.025
0.0875   0.2125   0.025
0.0875   0.2375   0.025
0.0875   0.2625   0.025
0.0875   0.2875   0.025
0.0875   0.3125   0.025
0.0875   0.3375   0.025
0.0875   0.3625   0.025
0.0875   0.3875   0.025
0.0875   0.4125   0.025
0.0875   0.4375   0.025
0.0875   0.4625   0.025
0.0875   0.4875   0.025
0.0875   0.5125   0.025
0.0875   0.5375   0.025
0.0875   0.5625   0.025
0.0875   0.5875   0.025
0.0875   0.6125   0.025
0.0875   0.6375   0.025
0.0875   0.6625   0.025
0.0875   0.6875   0.025
0.0875   0.7125   0.025
0.0875   0.7375   0.025
0.0875   0.7625   0.025
0.0875   0.7875   0.025
0.0875   0.8125   0.025
0.0875   0.8375   0.025
0.0875   0.8625   0.025
0.0875   0.8875   0.025
0.0875   0.9125   0.025
0.0875   0.9375   0.025
0.0875   0.9625   0.025
0.0875   0.9875   0.025
0.1125   0.0125   0.025
0.1125   0.0375   0.025
0.1125   0.0625   0.025
0.1125   0.0875   0.025
0.1125   0.1125   0.025
0.1125   0.1375   0.025
0.1125   0.1625   0.025
0.1125   0.1875   0.025
0.1125   0.2125   0.025
0.1125   0.2375   0.025
0.1125   0.2625   0.025
0.1125   0.2875   0.025
0.1125   0.3125   0.025
0.1125   0.3375   0.025
0.1125   0.3625   0.025
0.1125   0.3875   0.025
0.1125   0.4125   0.025
0.1125   0.4375   0.025
0.1125   0.4625   0.025
0.1125   0.4875   0.025
0.1125   0.5125   0.025
0.1125   0.5375   0.025
0.1125   0.5625   0.025
0.1125   0.5875   0.025
0.1125   0.6125   0.025
0.1125   0.6375   0.025
0.1125   0.6625   0.025
0.1125   0.6875   0.025
0.1125   0.7125   0.025
0.1125   0.7375   0.025
0.1125   0.7625   0.025
0.1125   0.7875   0.025
0.1125   0.8125   0.025
0.1125   0.8375   0.025
0.1125   0.8625   0.025
0.1125   0.8875   0.025
0.1125   0.9125   0.025
0.1125   0.9375   0.025
0.1125   0.9625   0.025
0.1125   0.9875   0.025
0.1375   0.0125   0.025
0.1375   0.0375   0.025
0.1375   0.0625   0.025
0.1375   0.0875   0.025
0.1375   0.1125   0.025
0.1375   0.1375   0.025
0.1375   0.1625   0.025
0.1375   0.1875   0.025
0.1375   0.2125   0.025
0.1375   0.2375   0.025
0.1375   0.2625   0.025
0.1375   0.2875   0.025
0.1375   0.3125   0.025
0.1375   0.3375   0.025
0.1375   0.3625   0.025
0.1375   0.3875   0.025
0.1375   0.4125   0.025
0.1375   0.4375   0.025
0.1375   0.4625   0.025
0.1375   0.4875   0.025
0.1375   0.5125   0.025
0.1375   0.5375   0.025
0.1375   0.5625   0.025
0.1375   0.5875   0.025
0.1375   0.6125   0.025
0.1375   0.6375   0.025
0.1375   0.6625   0.025
0.1375   0.6875   0.025
0.1375   0.7125   0.025
0.1375   0.7375   0.025
0.1375   0.7625   0.025
0.1375   0.7875   0.025
0.1375   0.8125   0.025
0.1375   0.8375   0.025
0.1375   0.8625   0.025
0.1375   0.8875   0.025
0.1375   0.9125   0.025
0.1375   0.9375   0.025
0.1375   0.9625   0.025
0.1375   0.9875   0.025
0.1625   0.0125   0.025
0.1625   0.0375   0.025
0.1625   0.0625   0.025
0.1625   0.0875   0.025
0.1625   0.1125   0.025
0.1625   0.1375   0.025
0.1625   0.1625   0.025
0.1625   0.1875   0.025
0.1625   0.2125   0.025
0.1625   0.2375   0.025
0.1625   0.2625   0.025
0.1625   0.2875   0.025
0.1625   0.3125   0.025
0.1625   0.3375   0.025
0.1625   0.3625   0.025
0.1625   0.3875   0.025
0.1625   0.4125   0.025
0.1625   0.4375   0.025
0.1625   0.4625   0.025
0.1625   0.4875   0.025
0.1625   0.5125   0.025
0.1625   0.5375   0.025
0.1625   0.5625   0.025
0.1625   0.5875   0.025
0.1625   0.6125   0.025
0.1625   0.6375   0.025
0.1625   0.6625   0.025
0.1625   0.6875   0.025
0.1625   0.7125   0.025
0.1625   0.7375   0.025
0.1625   0.7625   0.025
0.1625   0.7875   0.025
0.1625   0.8125   0.025
0.1625   0.8375   0.025
0.1625   0.8625   0.025
0.1625   0.8875   0.025
0.1625   0.9125   0.025
0.1625   0.9375   0.025
0.1625   0.9625   0.025
0.1625   0.9875   0.025
0.1875   0.0125   0.025
0.1875   0.0375   0.025
0.1875   0.0625   0.025
0.1875   0.0875   0.025
0.1875   0.1125   0.025
0.1875   0.1375   0.025
0.1875   0.1625   0.025
0.1875   0.1875   0.025
0.1875   0.2125   0.025
0.1875   0.2375   0.025
0.1875   0.2625   0.025
0.1875   0.2875   0.025
0.1875   0.3125   0.025
0.1875   0.3375   0.025
0.1875   0.3625   0.025
0.1875   0.3875   0.025
0.1875   0.4125   0.025
0.1875   0.4375   0.025
0.1875   0.4625   0.025
0.1875   0.4875   0.025
0.1875   0.5125   0.025
0.1875   0.5375   0.025
0.1875   0.5625   0.025
0.1875   0.5875   0.025
0.1875   0.6125   0.025
0.1875   0.6375   0.025
0.1875   0.6625   0.025
0.1875   0.6875   0.025
0.1875   0.7125   0.025
0.1875   0.7375   0.025
0.1875   0.7625   0.025
0.1875   0.7875   0.025
0.1875   0.8125   0.025
0.1875   0.8375   0.025
0.1875   0.8625   0.025
0.1875   0.8875   0.025
0.1875   0.9125   0.025
0.1875   0.9375   0.025
0.1875   0.9625   0.025
0.1875   0.9875   0.025
0.2125   0.0125   0.025
0.2125   0.0375   0.025
0.2125   0.0625   0.025
0.2125   0.0875   0.025
0.2125   0.1125   0.025
0.2125   0.1375   0.025
0.2125   0.1625   0.025
0.2125   0.1875   0.025
0.2125   0.2125   0.025
0.2125   0.2375   0.025
0.2125   0.2625   0.025
0.2125   0.2875   0.025
0.2125   0.3125   0.025
0.2125   0.3375   0.025
0.2125   0.3625   0.025
0.2125   0.3875   0.025
0.2125   0.4125   0.025
0.2125   0.4375   0.025
0.2125   0.4625   0.025
0.2125   0.4875   0.025
0.2125   0.5125   0.025
0.2125   0.5375   0.025
0.2125   0.5625   0.025
0.2125   0.5875   0.025
0.2125   0.6125   0.025
0.2125   0.6375   0.025
0.2125   0.6625   0.025
0.2125   0.6875   0.025
0.2125   0.7125   0.025
0.2125   0.7375   0.025
0.2125   0.7625   0.025
0.2125   0.7875   0.025
0.2125   0.8125   0.025
0.2125   0.8375   0.025
0.2125   0.8625   0.025
0.2125   0.8875   0.025
0.2125   0.9125   0.025
0.2125   0.9375   0.025
0.2125   0.9625   0.025
0.2125   0.9875   0.025
0.2375   0.0125   0.025
0.2375   0.0375   0.025
0.2375   0.0625   0.025
0.2375   0.0875   0.025
0.2375   0.1125   0.025
0.2375   0.1375   0.025
0.2375   0.1625   0.025
0.2375   0.1875   0.025
0.2375   0.2125   0.025
0.2375   0.2375   0.025
0.2375   0.2625   0.025
0.2375   0.2875   0.025
0.2375   0.3125   0.025
0.2375   0.3375   0.025
0.2375   0.3625   0.025
0.2375   0.3875   0.025
0.2375   0.4125   0.025
0.2375   0.4375   0.025
0.2375   0.4625   0.025
0.2375   0.4875   0.025
0.2375   0.5125   0.025
0.2375   0.5375   0.025
0.2375   0.5625   0.025
0.2375   0.5875   0.025
0.2375   0.6125   0.025
0.2375   0.6375   0.025
0.2375   0.6625   0.025
0.2375   0.6875   0.025
0.2375   0.7125   0.025
0.2375   0.7375   0.025
0.2375   0.7625   0.025
0.2375   0.7875   0.025
0.2375   0.8125   0.025
0.2375   0.8375   0.025
0.2375   0.8625   0.025
0.2375   0.8875   0.025
0.2375   0.9125   0.025
0.2375   0.9375   0.025
0.2375   0.9625   0.025
0.2375   0.9875   0.025
0.2625   0.0125   0.025
0.2625   0.0375   0.025
0.2625   0.0625   0.025
0.2625   0.0875   0.025
0.2625   0.1125   0.025
0.2625   0.1375   0.025
0.2625   0.1625   0.025
0.2625   0.1875   0.025
0.2625   0.2125   0.025
0.2625   0.2375   0.025
0.2625   0.2625   0.025
[...]
POINT_DATA   32000
VECTORS Velocidades double

6.8155e-05 0.0012852 0
0.00026254 0.00230739 0
0.000160945 0.00188101 0
1.14891e-05 0.0017002 0
-0.000132971 0.00180484 0
-0.000263806 0.00217397 0
-0.000381553 0.00277915 0
-0.000488052 0.0035948 0
-0.000584849 0.00459914 0
-0.000672974 0.0057733 0
-0.00075299 0.00710031 0
-0.000825074 0.00856416 0
-0.000889099 0.0101491 0
-0.000944722 0.0118394 0
-0.000991473 0.0136183 0
-0.00102885 0.0154687 0
-0.00105644 0.0173727 0
-0.00107404 0.0193121 0
-0.00108179 0.0212689 0
-0.00108035 0.023226 0
-0.00107105 0.0251687 0
-0.00105614 0.027086 0
-0.00103897 0.0289727 0
-0.00102443 0.0308318 0
-0.00101935 0.0326781 0
-0.0010333 0.0345427 0
-0.00107976 0.0364797 0
-0.00117786 0.0385754 0
-0.00135538 0.0409628 0
-0.0016534 0.0438435 0
-0.00213392 0.0475218 0
-0.00289244 0.0524599 0
-0.00407889 0.0593659 0
-0.00593205 0.069339 0
-0.00883013 0.0840997 0
-0.0133259 0.106308 0
-0.0199071 0.139677 0
-0.0268494 0.1867 0
-0.0162774 0.2303 0
0.124146 0.123438 0
0.000147502 0.00277206 0
0.00060072 0.00546817 0
0.000290343 0.00542169 0
-0.000229661 0.00569869 0
-0.000781523 0.00645255 0
-0.00131074 0.00772758 0
-0.00180275 0.00951564 0
-0.00225555 0.0117877 0
-0.00267054 0.0145076 0
-0.00304945 0.0176377 0
-0.00339336 0.0211401 0
-0.00370238 0.0249769 0
-0.00397574 0.0291098 0
-0.00421198 0.0334992 0
-0.00440925 0.0381043 0
-0.00456566 0.0428826 0
-0.00467979 0.0477906 0
-0.00475114 0.0527841 0
-0.0047808 0.05782 0
-0.004772 0.0628582 0
-0.00473093 0.0678643 0
-0.00466753 0.0728131 0
-0.00459658 0.077693 0
-0.00453902 0.082512 0
-0.00452386 0.0873044 0
-0.00459083 0.0921409 0
-0.00479437 0.0971398 0
-0.00520953 0.102484 0
-0.00594074 0.108442 0
-0.00713458 0.115395 0
-0.00899802 0.123872 0
-0.0118231 0.134587 0
-0.0160165 0.148462 0
-0.0221204 0.166591 0
-0.0307624 0.190008 0
-0.0422787 0.218849 0
-0.0549472 0.249787 0
-0.0573286 0.268817 0
0.00413765 0.236182 0
0.34869 0.0998788 0
9.2897e-05 0.0039902 0
0.000491613 0.00816652 0
-0.000111462 0.00872268 0
-0.00112276 0.0097304 0
-0.00225817 0.0113229 0
-0.00339326 0.0135663 0
-0.00447711 0.0164739 0
-0.00549075 0.0200271 0
-0.00642819 0.0241904 0
-0.007288 0.0289206 0
-0.00806954 0.0341697 0
-0.00877146 0.0398873 0
-0.00939122 0.0460209 0
-0.00992525 0.0525154 0
-0.0103694 0.0593133 0
-0.0107197 0.0663547 0
-0.0109732 0.0735781 0
-0.0111293 0.080921 0
-0.0111907 0.0883221 0
-0.0111651 0.095724 0
-0.0110666 0.103076 0
-0.0109174 0.110339 0
-0.01075 0.117492 0
-0.01061 0.124534 0
-0.0105595 0.131499 0
-0.0106814 0.138459 0
-0.0110863 0.145539 0
-0.011921 0.152927 0
-0.0133795 0.160886 0
-0.0157169 0.169765 0
-0.0192622 0.179996 0
-0.0244218 0.192062 0
-0.0316481 0.206399 0
-0.0413047 0.22314 0
-0.0532309 0.241512 0
-0.065433 0.258526 0
-0.0701752 0.266318 0
-0.0424039 0.248106 0
0.0916761 0.179108 0
0.513762 0.0642584 0
-0.000111924 0.00510638 0
-0.000114699 0.0106384 0
-0.0011924 0.0117775 0
-0.00280209 0.0135305 0
-0.00461981 0.0159684 0
-0.00647096 0.019139 0
-0.00826772 0.0230568 0
-0.00996833 0.0277088 0
-0.0115538 0.0330634 0
-0.0130152 0.0390771 0
-0.0143473 0.0456991 0
-0.015545 0.0528736 0
-0.0166026 0.0605403 0
-0.0175131 0.0686352 0
-0.0182689 0.0770905 0
-0.0188632 0.0858349 0
-0.0192908 0.0947942 0
-0.0195504 0.103893 0
-0.0196463 0.113055 0
-0.0195904 0.122208 0
-0.0194053 0.131285 0
-0.0191262 0.140231 0
-0.0188045 0.149005 0
-0.0185113 0.157589 0
-0.0183416 0.165991 0
-0.0184197 0.174253 0
-0.0189061 0.182459 0
-0.0200043 0.190735 0
-0.0219687 0.199248 0
-0.0251068 0.208193 0
-0.0297683 0.217755 0
-0.0362965 0.228023 0
-0.0448905 0.238817 0
-0.0552537 0.249348 0
-0.0657392 0.257583 0
-0.0712957 0.259166 0
-0.0585968 0.24598 0
0.00483129 0.205861 0
0.190177 0.129916 0
0.620045 0.0412533 0
-0.000451958 0.00613406 0
-0.00115599 0.0128952 0
-0.00291003 0.0145358 0
-0.0052357 0.0169489 0
-0.00781247 0.0201431 0
-0.010444 0.0241318 0
-0.0130176 0.0289157 0
-0.0154719 0.0344787 0
-0.0177739 0.04079 0
-0.0199053 0.0478076 0
-0.0218538 0.0554809 0
-0.0236092 0.0637529 0
-0.0251607 0.0725606 0
-0.0264964 0.0818355 0
-0.0276044 0.0915043 0
-0.0284732 0.101488 0
-0.0290945 0.111704 0
-0.0294646 0.122067 0
-0.0295881 0.132487 0
-0.0294797 0.142878 0
-0.0291685 0.153156 0
-0.0287004 0.163246 0
-0.0281425 0.173082 0
-0.0275866 0.182614 0
-0.0271536 0.191814 0
-0.026998 0.200672 0
-0.0273121 0.209205 0
-0.0283285 0.217444 0
-0.030318 0.225425 0
-0.0335738 0.233159 0
-0.038367 0.240573 0
-0.0448372 0.247405 0
-0.0527455 0.253019 0
-0.0609389 0.256096 0
-0.0662152 0.254148 0
-0.0609697 0.242908 0
-0.0285582 0.216021 0
0.0646832 0.166715 0
0.278292 0.0954617 0
0.689583 0.0276177 0
-0.000903413 0.0070518 0
-0.00255369 0.0148926 0
-0.00516416 0.0169393 0
-0.00831836 0.0198946 0
-0.0117204 0.0237155 0
-0.015174 0.0283795 0
-0.0185565 0.0338669 0
-0.021794 0.0401527 0
-0.0248429 0.0472036 0
-0.0276756 0.0549781 0
-0.0302729 0.0634271 0
-0.0326176 0.0724946 0
-0.0346928 0.0821178 0
-0.0364805 0.0922273 0
-0.0379625 0.102747 0
-0.0391213 0.113593 0
-0.0399432 0.124677 0
-0.0404206 0.135904 0
-0.0405553 0.147174 0
-0.0403625 0.158385 0
-0.0398738 0.169435 0
-0.0391419 0.180226 0
-0.0382439 0.190664 0
-0.0372848 0.200665 0
-0.0364011 0.210152 0
-0.0357632 0.21906 0
-0.0355751 0.227329 0
-0.0360707 0.234895 0
-0.0374994 0.241667 0
-0.0400904 0.247497 0
-0.043975 0.252112 0
-0.0490232 0.255021 0
-0.0545129 0.25535 0
-0.0584769 0.251615 0
-0.056451 0.241425 0
-0.0391826 0.221272 0
0.0111765 0.186907 0
0.126027 0.135592 0
0.352304 0.0722358 0
0.737247 0.0194542 0
-0.00144184 0.00783467 0
-0.00423016 0.0165824 0
-0.00784249 0.0189415 0
-0.0119203 0.0223158 0
-0.0162018 0.0266226 0
-0.0205051 0.0318081 0
-0.0247096 0.037832 0
-0.0287376 0.0446578 0
-0.0325394 0.0522481 0
-0.0360812 0.0605609 0
-0.0393366 0.0695488 0
-0.0422818 0.0791581 0
-0.0448928 0.0893279 0
-0.0471438 0.0999898 0
-0.0490087 0.111067 0
-0.0504622 0.122473 0
-0.0514828 0.134114 0
-0.0520559 0.145887 0
-0.0521781 0.157682 0
-0.0518606 0.169382 0
-0.0511342 0.180867 0
-0.0500526 0.192015 0
-0.0486965 0.202701 0
-0.0471764 0.212805 0
-0.0456343 0.222206 0
-0.0442431 0.230783 0
-0.0432026 0.238407 0
-0.0427274 0.244931 0
-0.0430214 0.250166 0
-0.0442245 0.253849 0
-0.0463068 0.255588 0
-0.0488658 0.254775 0
-0.0507411 0.250474 0
-0.049308 0.241268 0
-0.0392318 0.225122 0
-0.0104354 0.19944 0
0.0547384 0.161751 0
0.184093 0.11189 0
0.413737 0.0564659 0
0.771633 0.0143969 0
-0.00204467 0.00846247 0
-0.00611345 0.0179278 0
-0.0108363 0.0205122 0
-0.0159095 0.0241879 0
-0.0211099 0.0288427 0
-0.0262784 0.0343978 0
-0.0313056 0.040795 0
-0.0361178 0.0479877 0
-0.0406645 0.0559334 0
-0.0449081 0.0645898 0
-0.0488173 0.0739116 0
-0.0523617 0.0838482 0
-0.0555093 0.0943417 0
-0.0582257 0.105326 0
-0.0604748 0.116724 0
-0.0622213 0.128449 0
-0.0634332 0.140403 0
-0.0640861 0.152475 0
-0.0641675 0.164544 0
-0.0636812 0.176481 0
-0.0626521 0.188145 0
-0.0611303 0.199392 0
-0.0591942 0.210069 0
-0.0569528 0.220022 0
-0.0545452 0.22909 0
-0.0521378 0.237103 0
-0.0499152 0.243878 0
-0.0480619 0.249206 0
-0.0467265 0.252831 0
-0.0459541 0.254423 0
-0.0455606 0.253533 0
-0.0449033 0.249528 0
-0.0424674 0.241516 0
-0.035152 0.228257 0
-0.0171058 0.208143 0
0.0219714 0.179403 0
0.0987819 0.140887 0
0.237309 0.0939304 0
0.465057 0.0455025 0
0.797647 0.0111305 0
-0.00269195 0.00892095 0
-0.00813898 0.0189038 0
-0.0140455 0.0216351 0
-0.0201611 0.0255041 0
-0.0263028 0.0303774 0
-0.0323401 0.0361579 0
-0.0381814 0.0427741 0
-0.0437628 0.0501711 0
-0.0490376 0.0583034 0
-0.0539682 0.0671289 0
-0.0585196 0.076605 0
-0.0626553 0.086685 0
-0.0663352 0.0973151 0
-0.0695147 0.108432 0
-0.0721464 0.11996 0
-0.074182 0.131813 0
-0.0755766 0.143888 0
-0.0762925 0.156068 0
-0.0763046 0.168224 0
-0.0756054 0.18021 0
-0.07421 0.19187 0
-0.0721601 0.203037 0
-0.0695271 0.213535 0
-0.0664132 0.223177 0
-0.0629497 0.23177 0
-0.059291 0.239108 0
-0.0556018 0.244966 0
-0.0520331 0.249095 0
-0.0486788 0.251202 0
-0.0454971 0.250926 0
-0.0421714 0.247809 0
-0.0378645 0.241247 0
-0.0307968 0.230441 0
-0.0175545 0.214366 0
0.007956 0.191819 0
0.0558658 0.161696 0
0.141572 0.123763 0
0.285493 0.0801728 0
0.508474 0.0376476 0
0.818148 0.00892603 0
-0.00336628 0.009201 0
-0.0102496 0.0194958 0
-0.0173803 0.0223037 0
-0.02456 0.0262676 0
-0.031648 0.0312398 0
-0.0385457 0.0371112 0
-0.045184 0.0438016 0
-0.0515134 0.0512515 0
-0.0574951 0.0594144 0
-0.0630939 0.0682503 0
-0.068273 0.0777206 0
-0.0729905 0.0877835 0
-0.0771974 0.0983899 0
-0.080838 0.109481 0
-0.0838512 0.120983 0
-0.0861739 0.13281 0
-0.0877449 0.144857 0
-0.08851 0.157001 0
-0.0884283 0.169102 0
-0.0874771 0.181005 0
-0.0856579 0.192536 0
-0.0830006 0.203509 0
-0.0795661 0.213725 0
-0.0754469 0.222974 0
-0.0707637 0.231036 0
-0.065657 0.237676 0
-0.0602716 0.242647 0
-0.0547276 0.245674 0
-0.0490708 0.246448 0
-0.043187 0.244607 0
-0.0366532 0.23971 0
-0.0284845 0.231208 0
-0.0167164 0.218418 0
0.00224623 0.200521 0
0.0345417 0.17666 0
0.089897 0.146246 0
0.18229 0.109653 0
0.328988 0.0694367 0
0.545714 0.0318338 0
0.834852 0.0073713 0
-0.00405239 0.00929738 0
-0.0123943 0.019696 0
-0.0207592 0.022517 0
-0.0290008 0.0264859 0
-0.0370222 0.0314465 0
-0.0447596 0.0372832 0
-0.0521698 0.0439123 0
-0.0592211 0.0512733 0
-0.0658855 0.0593218 0
-0.0721326 0.0680218 0
-0.0779251 0.0773406 0
-0.0832159 0.0872423 0
-0.0879468 0.0976843 0
-0.0920496 0.108612 0
-0.0954477 0.119957 0
-0.0980604 0.131633 0
-0.0998073 0.143532 0
-0.100615 0.155529 0
-0.100422 0.167475 0
-0.099189 0.179203 0
-0.0968996 0.190525 0
-0.0935695 0.201239 0
-0.089247 0.211126 0
-0.0840133 0.219958 0
-0.0779781 0.227493 0
-0.0712694 0.233481 0
-0.0640147 0.237656 0
-0.0563087 0.239736 0
-0.0481594 0.239411 0
-0.0393959 0.236331 0
-0.0295148 0.23009 0
-0.017425 0.220203 0
-0.00104248 0.206099 0
0.0233087 0.187146 0
0.061676 0.16277 0
0.123252 0.13276 0
0.220607 0.0978891 0
0.368289 0.0608701 0
0.578063 0.0273866 0
0.848821 0.00622706 0
-0.00473657 0.00920774 0
-0.0145273 0.0195017 0
-0.024108 0.0222773 0
-0.0333863 0.0261678 0
-0.0423108 0.0310137 0
-0.0508548 0.0366979 0
-0.0590037 0.0431378 0
-0.0667462 0.050276 0
-0.0740674 0.0580733 0
-0.0809433 0.0665004 0
-0.0873366 0.0755319 0
-0.0931954 0.0851403 0
-0.0984517 0.09529 0
-0.103023 0.105933 0
-0.106816 0.117006 0
-0.109729 0.128423 0
-0.11166 0.140077 0
-0.112513 0.15184 0
-0.112204 0.163555 0
-0.110671 0.175046 0
-0.10788 0.186113 0
-0.10383 0.196539 0
-0.0985541 0.20609 0
-0.0921236 0.214522 0
-0.0846379 0.221581 0
-0.0762152 0.227001 0
-0.0669703 0.230513 0
-0.0569801 0.231833 0
-0.0462247 0.230659 0
-0.0344924 0.226663 0
-0.0212218 0.219477 0
-0.00524987 0.208681 0
0.0155745 0.193808 0
0.0449341 0.174384 0
0.0886952 0.150057 0
0.155451 0.120895 0
0.256438 0.0879219 0
0.403882 0.0538679 0
0.606465 0.0238727 0
0.860735 0.00535 0
-0.00540618 0.0089319 0
-0.0166061 0.0189137 0
-0.0273579 0.0215886 0
-0.0376257 0.0253219 0
-0.0474062 0.0299552 0
-0.0567119 0.0353752 0
-0.0655586 0.0415042 0
-0.0739575 0.0482922 0
-0.0819081 0.0557079 0
-0.0893937 0.0637315 0
-0.0963779 0.0723471 0
-0.102804 0.0815368 0
-0.108592 0.0912742 0
-0.113646 0.101519 0
-0.117851 0.112213 0
-0.121085 0.123276 0
-0.123219 0.134601 0
-0.124132 0.146057 0
-0.123714 0.157483 0
-0.12188 0.168694 0
-0.118574 0.179481 0
-0.113776 0.189615 0
-0.107506 0.198851 0
-0.0998245 0.20693 0
-0.0908233 0.213589 0
-0.0806141 0.218557 0
-0.0693049 0.22156 0
-0.0569615 0.222321 0
-0.0435468 0.220549 0
-0.028821 0.215941 0
-0.0121842 0.208167 0
0.00757069 0.196869 0
0.032622 0.181668 0
0.0666047 0.162219 0
0.115145 0.138348 0
0.186216 0.110321 0
0.289816 0.0793144 0
0.43619 0.0479981 0
0.631609 0.0210062 0
0.871038 0.0046513 0
-0.00604899 0.00847166 0
-0.0185897 0.0179364 0
-0.0304428 0.020457 0
-0.0416325 0.0239571 0
-0.052206 0.0282841 0
-0.0622168 0.0333324 0
-0.071713 0.0390342 0
-0.080729 0.0453495 0
-0.08928 0.0522583 0
-0.097357 0.0597524 0
-0.104925 0.0678276 0
-0.11192 0.0764775 0
-0.118254 0.0856863 0
-0.12381 0.0954232 0
-0.128455 0.105638 0
-0.132039 0.116254 0
-0.134407 0.12717 0
-0.135409 0.138252 0
-0.134907 0.149339 0
-0.132788 0.160239 0
-0.128972 0.170734 0
-0.123422 0.180587 0
-0.116143 0.189543 0
-0.107186 0.197333 0
-0.0966367 0.203688 0
-0.0846055 0.208331 0
-0.0711981 0.210992 0
-0.0564769 0.211397 0
-0.0403954 0.209272 0
-0.022698 0.204335 0
-0.00276135 0.196293 0
0.0206438 0.18484 0
0.0496915 0.169672 0
0.0879292 0.150551 0
0.140708 0.127437 0
0.215379 0.100741 0
0.32081 0.071722 0
0.465561 0.0429479 0
0.653995 0.0185935 0
0.880031 0.0040738 0
-0.00665282 0.00783096 0
-0.0204384 0.0165776 0
-0.0332991 0.018891 0
-0.0453234 0.022084 0
-0.0566118 0.026014 0
-0.0672603 0.0305877 0
-0.0773501 0.03575 0
-0.0869398 0.0414748 0
-0.0960602 0.0477555 0
-0.10471 0.0545978 0
-0.112856 0.0620109 0
-0.120428 0.0700014 0
-0.127323 0.0785658 0
-0.13341 0.0876846 0
-0.138529 0.0973167 0
-0.142505 0.107394 0
-0.145151 0.11782 0
-0.146286 0.128463 0
-0.14574 0.13916 0
-0.143372 0.149718 0
-0.139076 0.159915 0
-0.132794 0.169503 0
-0.124518 0.178222 0
-0.11429 0.185796 0
-0.102192 0.191949 0
-0.0883377 0.196405 0
-0.0728343 0.198891 0
-0.0557467 0.199143 0
-0.037027 0.196898 0
-0.0164126 0.191896 0
0.00673035 0.183874 0
0.0336356 0.172569 0
0.0664488 0.157741 0
0.108601 0.139235 0
0.165146 0.117115 0
0.242831 0.0918943 0
0.349496 0.0648706 0
0.492264 0.038485 0
0.673986 0.0164989 0
0.887916 0.00357924 0
-0.00720522 0.00701623 0
-0.0221121 0.0148501 0
-0.0358639 0.0169042 0
-0.0486177 0.0197179 0
-0.0605291 0.0231634 0
-0.0717378 0.0271635 0
-0.0823584 0.0316791 0
-0.0924736 0.0367001 0
-0.10213 0.0422358 0
-0.111334 0.0483069 0
-0.120052 0.0549377 0
-0.128209 0.0621492 0
-0.135688 0.0699519 0
-0.142338 0.0783392 0
-0.147974 0.0872817 0
-0.152392 0.0967217 0
-0.155373 0.106569 0
-0.156701 0.1167 0
-0.156171 0.126953 0
-0.153611 0.137135 0
-0.148888 0.14702 0
-0.141921 0.15636 0
-0.132688 0.164884 0
-0.121223 0.172316 0
-0.10761 0.178372 0
-0.0919618 0.182775 0
-0.0743965 0.185255 0
-0.0549849 0.18555 0
-0.0336839 0.18341 0
-0.0102314 0.17859 0
0.016007 0.170852 0
0.0462549 0.159966 0
0.0826105 0.145745 0
0.128368 0.128101 0
0.188272 0.107176 0
0.268488 0.0835543 0
0.375931 0.0585385 0
0.516496 0.0344328 0
0.691839 0.0146237 0
0.894831 0.00314092 0
-0.00769339 0.00603694 0
-0.023571 0.0127731 0
-0.0380762 0.0145164 0
-0.0514377 0.016881 0
-0.0638678 0.0197588 0
-0.0755499 0.0230914 0
-0.0866317 0.0268589 0
-0.0972191 0.0310688 0
-0.107374 0.0357472 0
-0.117111 0.0409311 0
-0.126395 0.0466609 0
-0.135145 0.052973 0
-0.14323 0.0598932 0
-0.150479 0.0674298 0
-0.156682 0.0755675 0
-0.161603 0.0842615 0
-0.164987 0.0934331 0
-0.166582 0.102967 0
-0.166148 0.112708 0
-0.163475 0.122468 0
-0.158403 0.132021 0
-0.150826 0.141117 0
-0.140707 0.149485 0
-0.128072 0.156841 0
-0.113005 0.162901 0
-0.0956264 0.167384 0
-0.0760634 0.170019 0
-0.0543979 0.170548 0
-0.0305962 0.168726 0
-0.00440285 0.164322 0
0.0248082 0.157112 0
0.0582389 0.146898 0
0.0979244 0.13353 0
0.147007 0.116972 0
0.209918 0.0974264 0
0.292272 0.0755204 0
0.400148 0.0525425 0
0.538395 0.0306524 0
0.70773 0.012894 0
0.900868 0.00273943 0
-0.0081043 0.00490622 0
-0.0247759 0.0103731 0
-0.0398769 0.0117562 0
-0.0537098 0.0136061 0
-0.0665435 0.0158384 0
-0.0786041 0.0184171 0
-0.0900707 0.0213425 0
-0.101072 0.024641 0
-0.111683 0.028356 0
-0.121926 0.0325413 0
-0.131766 0.0372531 0
-0.141114 0.0425444 0
-0.149828 0.0484574 0
-0.157714 0.0550169 0
-0.164536 0.0622244 0
-0.170025 0.070051 0
-0.173893 0.0784331 0
-0.175845 0.0872683 0
-0.175603 0.0964141 0
-0.172921 0.105688 0
-0.167604 0.114872 0
-0.159522 0.123716 0
-0.148619 0.13195 0
-0.134913 0.139288 0
-0.118488 0.145442 0
-0.0994735 0.150127 0
-0.0780064 0.153071 0
-0.0541833 0.154016 0
-0.0279831 0.152719 0
0.000837366 0.148952 0
0.032889 0.142507 0
0.069342 0.133203 0
0.112156 0.12092 0
0.16431 0.105664 0
0.229925 0.0876773 0
0.314094 0.0676131 0
0.422145 0.046727 0
0.55804 0.0270315 0
0.721772 0.0112518 0
0.906084 0.00236009 0
-0.00842493 0.00364139 0
-0.0256892 0.0076861 0
-0.0412109 0.00866297 0
-0.0553668 0.00993857 0
-0.0684799 0.0114558 0
-0.0808166 0.0132035 0
-0.0925851 0.015203 0
-0.103934 0.0174994 0
-0.114953 0.0201533 0
-0.125669 0.0232342 0
-0.136048 0.0268145 0
-0.145995 0.0309634 0
-0.155354 0.0357403 0
-0.163911 0.0411886 0
-0.171405 0.0473285 0
-0.177534 0.0541511 0
-0.181971 0.0616121 0
-0.184383 0.0696273 0
-0.18445 0.0780707 0
-0.181884 0.0867735 0
-0.176454 0.0955275 0
-0.168003 0.10409 0
-0.156452 0.112194 0
-0.14181 0.119553 0
-0.124159 0.125876 0
-0.103634 0.130875 0
-0.0803876 0.134271 0
-0.0545295 0.135804 0
-0.026055 0.135226 0
0.00526318 0.132313 0
0.0400142 0.12686 0
0.0793276 0.118699 0
0.125078 0.107732 0
0.180074 0.0939909 0
0.248128 0.07775 0
0.333846 0.0596689 0
0.441887 0.040957 0
0.575463 0.0234762 0
0.734027 0.00965064 0
0.910509 0.00199135 0
-0.00864281 0.00226442 0
-0.0262762 0.00475788 0
-0.0420296 0.00528832 0
-0.0563502 0.00593859 0
-0.0696114 0.00668257 0
-0.0821157 0.00753456 0
-0.0940968 0.00853732 0
-0.105722 0.00975349 0
-0.117091 0.0112592 0
-0.128238 0.0131385 0
-0.139129 0.0154788 0
-0.149664 0.018365 0
-0.159675 0.0218743 0
-0.168931 0.0260696 0
-0.177145 0.0309929 0
-0.183984 0.0366583 0
-0.189084 0.0430458 0
-0.19207 0.0500953 0
-0.192577 0.0577031 0
-0.190275 0.0657209 0
-0.184894 0.073957 0
-0.17624 0.082181 0
-0.164213 0.0901319 0
-0.148806 0.0975271 0
-0.130097 0.104074 0
-0.108226 0.109478 0
-0.0833563 0.113455 0
-0.0556144 0.115735 0
-0.0250129 0.116064 0
0.00865585 0.114212 0
0.0459538 0.109975 0
0.0879622 0.103189 0
0.136462 0.0937691 0
0.194086 0.081767 0
0.264349 0.0674712 0
0.3514 0.051536 0
0.459303 0.0351119 0
0.590649 0.0199058 0
0.74451 0.00805155 0
0.914153 0.00162382 0
-0.00874657 0.000802085 0
-0.0265073 0.00164506 0
-0.0422924 0.00169692 0
-0.0566128 0.00168264 0
-0.0698857 0.00160932 0
-0.0824436 0.00151705 0
-0.0945414 0.00146843 0
-0.106361 0.00154175 0
-0.118013 0.00182629 0
-0.129536 0.00241856 0
-0.140899 0.00341866 0
-0.151998 0.0049263 0
-0.162655 0.00703594 0
-0.172625 0.00983104 0
-0.181599 0.0133774 0
-0.189214 0.0177161 0
-0.195069 0.0228561 0
-0.198749 0.0287674 0
-0.199842 0.0353763 0
-0.197974 0.042562 0
-0.192828 0.0501568 0
-0.184174 0.0579495 0
-0.17188 0.0656916 0
-0.155919 0.0731072 0
-0.136361 0.0799033 0
-0.113346 0.0857814 0
-0.0870462 0.0904471 0
-0.0576039 0.0936181 0
-0.0250497 0.0950299 0
0.0108012 0.0944408 0
0.0504786 0.0916397 0
0.0950089 0.0864634 0
0.146073 0.0788307 0
0.206124 0.0688022 0
0.278389 0.0566703 0
0.366596 0.0430703 0
0.474286 0.0290812 0
0.603541 0.0162486 0
0.753201 0.00642093 0
0.917007 0.00124954 0
-0.00872679 -0.000713985 0
-0.0263598 -0.00158494 0
-0.0419704 -0.00203315 0
-0.0561225 -0.00273639 0
-0.0692676 -0.0036533 0
-0.0817609 -0.00471913 0
-0.0938727 -0.00585382 0
-0.105796 -0.0069665 0
-0.11765 -0.00795803 0
-0.129481 -0.00872279 0
-0.141258 -0.00915052 0
-0.152877 -0.00912893 0
-0.164156 -0.00854734 0
-0.174839 -0.00730161 0
-0.184596 -0.00530048 0
-0.193041 -0.00247288 0
-0.19974 0.00122409 0
-0.204235 0.00579722 0
-0.206071 0.0112102 0
-0.204822 0.0173787 0
-0.200126 0.0241679 0
-0.191706 0.0313938 0
-0.179393 0.0388285 0
-0.163132 0.0462077 0
-0.142978 0.0532424 0
-0.119065 0.0596296 0
-0.0915701 0.0650646 0
-0.0606482 0.0692503 0
-0.026348 0.0719056 0
0.0114902 0.0727726 0
0.0533593 0.0716276 0
0.100225 0.0682995 0
0.153661 0.0627043 0
0.215946 0.054902 0
0.290026 0.045177 0
0.379245 0.0341316 0
0.48669 0.0227605 0
0.614043 0.0124393 0
0.760045 0.00472907 0
0.919049 0.000861696 0
-0.00857689 -0.00224785 0
-0.0258207 -0.00485497 0
-0.0410494 -0.00581149 0
-0.0548656 -0.00721025 0
-0.0677431 -0.0089761 0
-0.0800504 -0.011022 0
-0.0920674 -0.0132538 0
-0.103994 -0.0155722 0
-0.115957 -0.0178724 0
-0.128007 -0.0200434 0
-0.14012 -0.0219688 0
-0.152194 -0.0235266 0
-0.164047 -0.0245919 0
-0.175415 -0.025041 0
-0.18596 -0.0247566 0
-0.195271 -0.023635 0
-0.202888 -0.0215951 0
-0.208315 -0.0185872 0
-0.21105 -0.0146019 0
-0.21062 -0.00967776 0