# vtk DataFile Version 2.0
Presion
ASCII

DATASET STRUCTURED_GRID
DIMENSIONS   40   40   20

POINTS   32000   double
0.0125   0.0125   0.025
0.0375   0.0125   0.025
0.0625   0.0125   0.025
0.0875   0.0125   0.025
0.1125   0.0125   0.025
0.1375   0.0125   0.025
0.1625   0.0125   0.025
0.1875   0.0125   0.025
0.2125   0.0125   0.025
0.2375   0.0125   0.025
0.2625   0.0125   0.025
0.2875   0.0125   0.025
0.3125   0.0125   0.025
0.3375   0.0125   0.025
0.3625   0.0125   0.025
0.3875   0.0125   0.025
0.4125   0.0125   0.025
0.4375   0.0125   0.025
0.4625   0.0125   0.025
0.4875   0.0125   0.025
0.5125   0.0125   0.025
0.5375   0.0125   0.025
0.5625   0.0125   0.025
0.5875   0.0125   0.025
0.6125   0.0125   0.025
0.6375   0.0125   0.025
0.6625   0.0125   0.025
0.6875   0.0125   0.025
0.7125   0.0125   0.025
0.7375   0.0125   0.025
0.7625   0.0125   0.025
0.7875   0.0125   0.025
0.8125   0.0125   0.025
0.8375   0.0125   0.025
0.8625   0.0125   0.025
0.8875   0.0125   0.025
0.9125   0.0125   0.025
0.9375   0.0125   0.025
0.9625   0.0125   0.025
0.9875   0.0125   0.025
0.0125   0.0375   0.025
0.0375   0.0375   0.025
0.0625   0.0375   0.025
0.0875   0.0375   0.025
0.1125   0.0375   0.025
0.1375   0.0375   0.025
0.1625   0.0375   0.025
0.1875   0.0375   0.025
0.2125   0.0375   0.025
0.2375   0.0375   0.025
0.2625   0.0375   0.025
0.2875   0.0375   0.025
0.3125   0.0375   0.025
0.3375   0.0375   0.025
0.3625   0.0375   0.025
0.3875   0.0375   0.025
0.4125   0.0375   0.025
0.4375   0.0375   0.025
0.4625   0.0375   0.025
0.4875   0.0375   0.025
0.5125   0.0375   0.025
0.5375   0.0375   0.025
0.5625   0.0375   0.025
0.5875   0.0375   0.025
0.6125   0.0375   0.025
0.6375   0.0375   0.025
0.6625   0.0375   0.025
0.6875   0.0375   0.025
0.7125   0.0375   0.025
0.7375   0.0375   0.025
0.7625   0.0375   0.025
0.7875   0.0375   0.025
0.8125   0.0375   0.025
0.8375   0.0375   0.025
0.8625   0.0375   0.025
0.8875   0.0375   0.025
0.9125   0.0375   0.025
0.9375   0.0375   0.025
0.9625   0.0375   0.025
0.9875   0.0375   0.025
0.0125   0.0625   0.025
0.0375   0.0625   0.025
0.0625   0.0625   0.025
0.0875   0.0625   0.025
0.1125   0.0625   0.025
0.1375   0.0625   0.025
0.1625   0.0625   0.025
0.1875   0.0625   0.025
0.2125   0.0625   0.025
0.2375   0.0625   0.025
0.2625   0.0625   0.025
0.2875   0.0625   0.025
0.3125   0.0625   0.025
0.3375   0.0625   0.025
0.3625   0.0625   0.025
0.3875   0.0625   0.025
0.4125   0.0625   0.025
0.4375   0.0625   0.025
0.4625   0.0625   0.025
0.4875   0.0625   0.025
0.5125   0.0625   0.025
0.5375   0.0625   0.025
0.5625   0.0625   0.025
0.5875   0.0625   0.025
0.6125   0.0625   0.025
0.6375   0.0625   0.025
0.6625   0.0625   0.025
0.6875   0.0625   0.025
0.7125   0.0625   0.025
0.7375   0.0625   0.025
0.7625   0.0625   0.025
0.7875   0.0625   0.025
0.8125   0.0625   0.025
0.8375   0.0625   0.025
0.8625   0.0625   0.025
0.8875   0.0625   0.025
0.9125   0.0625   0.025
0.9375   0.0625   0.025
0.9625   0.0625   0.025
0.9875   0.0625   0.025
0.0125   0.0875   0.025
0.0375   0.0875   0.025
0.0625   0.0875   0.025
0.0875   0.0875   0.025
0.1125   0.0875   0.025
0.1375   0.0875   0.025
0.1625   0.0875   0.025
0.1875   0.0875   0.025
0.2125   0.0875   0.025
0.2375   0.0875   0.025
0.2625   0.0875   0.025
0.2875   0.0875   0.025
0.3125   0.0875   0.025
0.3375   0.0875   0.025
0.3625   0.0875   0.025
0.3875   0.0875   0.025
0.4125   0.0875   0.025
0.4375   0.0875   0.025
0.4625   0.0875   0.025
0.4875   0.0875   0.025
0.5125   0.0875   0.025
0.5375   0.0875   0.025
0.5625   0.0875   0.025
0.5875   0.0875   0.025
0.6125   0.0875   0.025
0.6375   0.0875   0.025
0.6625   0.0875   0.025
0.6875   0.0875   0.025
0.7125   0.0875   0.025
0.7375   0.0875   0.025
0.7625   0.0875   0.025
0.7875   0.0875   0.025
0.8125   0.0875   0.025
0.8375   0.0875   0.025
0.8625   0.0875   0.025
0.8875   0.0875   0.025
0.9125   0.0875   0.025
0.9375   0.0875   0.025
0.9625   0.0875   0.025
0.9875   0.0875   0.025
0.0125   0.1125   0.025
0.0375   0.1125   0.025
0.0625   0.1125   0.025
0.0875   0.1125   0.025
0.1125   0.1125   0.025
0.1375   0.1125   0.025
0.1625   0.1125   0.025
0.1875   0.1125   0.025
0.2125   0.1125   0.025
0.2375   0.1125   0.025
0.2625   0.1125   0.025
0.2875   0.1125   0.025
0.3125   0.1125   0.025
0.3375   0.1125   0.025
0.3625   0.1125   0.025
0.3875   0.1125   0.025
0.4125   0.1125   0.025
0.4375   0.1125   0.025
0.4625   0.1125   0.025
0.4875   0.1125   0.025
0.5125   0.1125   0.025
0.5375   0.1125   0.025
0.5625   0.1125   0.025
0.5875   0.1125   0.025
0.6125   0.1125   0.025
0.6375   0.1125   0.025
0.6625   0.1125   0.025
0.6875   0.1125   0.025
0.7125   0.1125   0.025
0.7375   0.1125   0.025
0.7625   0.1125   0.025
0.7875   0.1125   0.025
0.8125   0.1125   0.025
0.8375   0.1125   0.025
0.8625   0.1125   0.025
0.8875   0.1125   0.025
0.9125   0.1125   0.025
0.9375   0.1125   0.025
0.9625   0.1125   0.025
0.9875   0.1125   0.025
0.0125   0.1375   0.025
0.0375   0.1375   0.025
0.0625   0.1375   0.025
0.0875   0.1375   0.025
0.1125   0.1375   0.025
0.1375   0.1375   0.025
0.1625   0.1375   0.025
0.1875   0.1375   0.025
0.2125   0.1375   0.025
0.2375   0.1375   0.025
0.2625   0.1375   0.025
0.2875   0.1375   0.025
0.3125   0.1375   0.025
0.3375   0.1375   0.025
0.3625   0.1375   0.025
0.3875   0.1375   0.025
0.4125   0.1375   0.025
0.4375   0.1375   0.025
0.4625   0.1375   0.025
0.4875   0.1375   0.025
0.5125   0.1375   0.025
0.5375   0.1375   0.025
0.5625   0.1375   0.025
0.5875   0.1375   0.025
0.6125   0.1375   0.025
0.6375   0.1375   0.025
0.6625   0.1375   0.025
0.6875   0.1375   0.025
0.7125   0.1375   0.025
0.7375   0.1375   0.025
0.7625   0.1375   0.025
0.7875   0.1375   0.025
0.8125   0.1375   0.025
0.8375   0.1375   0.025
0.8625   0.1375   0.025
0.8875   0.1375   0.025
0.9125   0.1375   0.025
0.9375   0.1375   0.025
0.9625   0.1375   0.025
0.9875   0.1375   0.025
0.0125   0.1625   0.025
0.0375   0.1625   0.025
0.0625   0.1625   0.025
0.0875   0.1625   0.025
0.1125   0.1625   0.025
0.1375   0.1625   0.025
0.1625   0.1625   0.025
0.1875   0.1625   0.025
0.2125   0.1625   0.025
0.2375   0.1625   0.025
0.2625   0.1625   0.025
0.2875   0.1625   0.025
0.3125   0.1625   0.025
0.3375   0.1625   0.025
0.3625   0.1625   0.025
0.3875   0.1625   0.025
0.4125   0.1625   0.025
0.4375   0.1625   0.025
0.4625   0.1625   0.025
0.4875   0.1625   0.025
0.5125   0.1625   0.025
0.5375   0.1625   0.025
0.5625   0.1625   0.025
0.5875   0.1625   0.025
0.6125   0.1625   0.025
0.6375   0.1625   0.025
0.6625   0.1625   0.025
0.6875   0.1625   0.025
0.7125   0.1625   0.025
0.7375   0.1625   0.025
0.7625   0.1625   0.025
0.7875   0.1625   0.025
0.8125   0.1625   0.025
0.8375   0.1625   0.025
0.8625   0.1625   0.025
0.8875   0.1625   0.025
0.9125   0.1625   0.025
0.9375   0.1625   0.025
0.9625   0.1625   0.025
0.9875   0.1625   0.025
0.0125   0.1875   0.025
0.0375   0.1875   0.025
0.0625   0.1875   0.025
0.0875   0.1875   0.025
0.1125   0.1875   0.025
0.1375   0.1875   0.025
0.1625   0.1875   0.025
0.1875   0.1875   0.025
0.2125   0.1875   0.025
0.2375   0.1875   0.025
0.2625   0.1875   0.025
0.2875   0.1875   0.025
0.3125   0.1875   0.025
0.3375   0.1875   0.025
0.3625   0.1875   0.025
0.3875   0.1875   0.025
0.4125   0.1875   0.025
0.4375   0.1875   0.025
0.4625   0.1875   0.025
0.4875   0.1875   0.025
0.5125   0.1875   0.025
0.5375   0.1875   0.025
0.5625   0.1875   0.025
0.5875   0.1875   0.025
0.6125   0.1875   0.025
0.6375   0.1875   0.025
0.6625   0.1875   0.025
0.6875   0.1875   0.025
0.7125   0.1875   0.025
0.7375   0.1875   0.025
0.7625   0.1875   0.025
0.7875   0.1875   0.025
0.8125   0.1875   0.025
0.8375   0.1875   0.025
0.8625   0.1875   0.025
0.8875   0.1875   0.025
0.9125   0.1875   0.025
0.9375   0.1875   0.025
0.9625   0.1875   0.025
0.9875   0.1875   0.025
0.0125   0.2125   0.025
0.0375   0.2125   0.025
0.0625   0.2125   0.025
0.0875   0.2125   0.025
0.1125   0.2125   0.025
0.1375   0.2125   0.025
0.1625   0.2125   0.025
0.1875   0.2125   0.025
0.2125   0.2125   0.025
0.2375   0.2125   0.025
0.2625   0.2125   0.025
0.2875   0.2125   0.025
0.3125   0.2125   0.025
0.3375   0.2125   0.025
0.3625   0.2125   0.025
0.3875   0.2125   0.025
0.4125   0.2125   0.025
0.4375   0.2125   0.025
0.4625   0.2125   0.025
0.4875   0.2125   0.025
0.5125   0.2125   0.025
0.5375   0.2125   0.025
0.5625   0.2125   0.025
0.5875   0.2125   0.025
0.6125   0.2125   0.025
0.6375   0.2125   0.025
0.6625   0.2125   0.025
0.6875   0.2125   0.025
0.7125   0.2125   0.025
0.7375   0.2125   0.025
0.7625   0.2125   0.025
0.7875   0.2125   0.025
0.8125   0.2125   0.025
0.8375   0.2125   0.025
0.8625   0.2125   0.025
0.8875   0.2125   0.025
0.9125   0.2125   0.025
0.9375   0.2125   0.025
0.9625   0.2125   0.025
0.9875   0.2125   0.025
0.0125   0.2375   0.025
0.0375   0.2375   0.025
0.0625   0.2375   0.025
0.0875   0.2375   0.025
0.1125   0.2375   0.025
0.1375   0.2375   0.025
0.1625   0.2375   0.025
0.1875   0.2375   0.025
0.2125   0.2375   0.025
0.2375   0.2375   0.025
0.2625   0.2375   0.025
0.2875   0.2375   0.025
0.3125   0.2375   0.025
0.3375   0.2375   0.025
0.3625   0.2375   0.025
0.3875   0.2375   0.025
0.4125   0.2375   0.025
0.4375   0.2375   0.025
0.4625   0.2375   0.025
0.4875   0.2375   0.025
0.5125   0.2375   0.025
0.5375   0.2375   0.025
0.5625   0.2375   0.025
0.5875   0.2375   0.025
0.6125   0.2375   0.025
0.6375   0.2375   0.025
0.6625   0.2375   0.025
0.6875   0.2375   0.025
0.7125   0.2375   0.025
0.7375   0.2375   0.025
0.7625   0.2375   0.025
0.7875   0.2375   0.025
0.8125   0.2375   0.025
0.8375   0.2375   0.025
0.8625   0.2375   0.025
0.8875   0.2375   0.025
0.9125   0.2375   0.025
0.9375   0.2375   0.025
0.9625   0.2375   0.025
0.9875   0.2375   0.025
0.0125   0.2625   0.025
0.0375   0.2625   0.025
0.0625   0.2625   0.025
0.0875   0.2625   0.025
0.1125   0.2625   0.025
0.1375   0.2625   0.025
0.1625   0.2625   0.025
0.1875   0.2625   0.025
0.2125   0.2625   0.025
0.2375   0.2625   0.025
0.2625   0.2625   0.025
[...]
POINT_DATA   32000
SCALARS Presion double
LOOKUP_TABLE   Presion

0 0 0 0 0 0 0 0 0 0 0 0 0 0 0 0 0 0 0 0 0 0 0 0 0 0 0 0 0 0 0 0 0 0 0 0 0 0 0 0 -5.08292e-06 -5.04014e-06 -4.9615e-06 -4.85077e-06 -4.71037e-06 -4.54215e-06 -4.34767e-06 -4.12829e-06 -3.88519e-06 -3.61937e-06 -3.33163e-06 -3.02266e-06 -2.69262e-06 -2.34158e-06 -1.96932e-06 -1.57546e-06 -1.15944e-06 -7.20601e-07 -2.58284e-07 2.28082e-07 7.38866e-07 1.27405e-06 1.83326e-06 2.41542e-06 3.0187e-06 3.64034e-06 4.27649e-06 4.92215e-06 5.57106e-06 6.21569e-06 6.84736e-06 7.45647e-06 8.03239e-06 8.56426e-06 9.04128e-06 9.4533e-06 9.79139e-06 1.00485e-05 1.022e-05 1.03045e-05 -1.01581e-05 -1.00735e-05 -9.91687e-06 -9.69574e-06 -9.41498e-06 -9.07838e-06 -8.68917e-06 -8.25014e-06 -7.76377e-06 -7.23215e-06 -6.65691e-06 -6.03951e-06 -5.38029e-06 -4.67938e-06 -3.93637e-06 -3.15047e-06 -2.32051e-06 -1.44514e-06 -5.22967e-07 4.47226e-07 1.46627e-06 2.53423e-06 3.65046e-06 4.81295e-06 6.01816e-06 7.26068e-06 8.53296e-06 9.82507e-06 1.11246e-05 1.24165e-05 1.36833e-05 1.49058e-05 1.60627e-05 1.71318e-05 1.80915e-05 1.8921e-05 1.96022e-05 2.01207e-05 2.04671e-05 2.06381e-05 -1.52362e-05 -1.51097e-05 -1.48748e-05 -1.45427e-05 -1.41206e-05 -1.36145e-05 -1.30293e-05 -1.23695e-05 -1.16391e-05 -1.08411e-05 -9.97845e-06 -9.05321e-06 -8.06605e-06 -7.01715e-06 -5.90592e-06 -4.73106e-06 -3.49075e-06 -2.18281e-06 -8.0498e-07 6.44768e-07 2.16791e-06 3.76483e-06 5.43483e-06 7.17523e-06 8.98101e-06 1.08444e-05 1.27543e-05 1.46961e-05 1.66514e-05 1.85975e-05 2.05083e-05 2.23547e-05 2.41039e-05 2.57226e-05 2.71771e-05 2.84357e-05 2.94704e-05 3.02587e-05 3.07857e-05 3.10463e-05 -2.03273e-05 -2.01583e-05 -1.98442e-05 -1.93994e-05 -1.88339e-05 -1.8156e-05 -1.73726e-05 -1.64899e-05 -1.55136e-05 -1.44484e-05 -1.32979e-05 -1.20654e-05 -1.07519e-05 -9.3576e-06 -7.88168e-06 -6.32229e-06 -4.67678e-06 -2.94198e-06 -1.11455e-06 8.08606e-07 2.82992e-06 4.95039e-06 7.16963e-06 9.48466e-06 1.18894e-05 1.43741e-05 1.69245e-05 1.95215e-05 2.21408e-05 2.47525e-05 2.73213e-05 2.98078e-05 3.21677e-05 3.4355e-05 3.63236e-05 3.80294e-05 3.94335e-05 4.05043e-05 4.12209e-05 4.15755e-05 -2.54417e-05 -2.52292e-05 -2.48338e-05 -2.42736e-05 -2.35616e-05 -2.27082e-05 -2.17229e-05 -2.0614e-05 -1.93891e-05 -1.80546e-05 -1.66155e-05 -1.50763e-05 -1.34383e-05 -1.17019e-05 -9.86589e-06 -7.92778e-06 -5.88391e-06 -3.72987e-06 -1.46094e-06 9.27402e-07 3.4389e-06 6.07564e-06 8.83802e-06 1.17232e-05 1.47247e-05 1.78312e-05 2.10258e-05 2.42855e-05 2.75803e-05 3.08728e-05 3.41188e-05 3.7268e-05 4.02636e-05 4.30461e-05 4.55553e-05 4.77335e-05 4.9529e-05 5.09001e-05 5.18185e-05 5.22731e-05 -3.05898e-05 -3.03324e-05 -2.98529e-05 -2.91734e-05 -2.83099e-05 -2.72758e-05 -2.60833e-05 -2.47432e-05 -2.32655e-05 -2.16588e-05 -1.99298e-05 -1.80841e-05 -1.61237e-05 -1.40491e-05 -1.18587e-05 -9.54926e-06 -7.11573e-06 -4.55218e-06 -1.85213e-06 9.90793e-07 3.98214e-06 7.12561e-06 1.0423e-05 1.38723e-05 1.74673e-05 2.11957e-05 2.50388e-05 2.897e-05 3.29542e-05 3.69469e-05 4.08944e-05 4.4735e-05 4.83986e-05 5.18107e-05 5.48951e-05 5.75786e-05 5.97946e-05 6.14892e-05 6.26254e-05 6.31882e-05 -3.57833e-05 -3.54788e-05 -3.49113e-05 -3.41069e-05 -3.30853e-05 -3.18631e-05 -3.04559e-05 -2.88776e-05 -2.71413e-05 -2.52579e-05 -2.32364e-05 -2.10841e-05 -1.88036e-05 -1.63955e-05 -1.38578e-05 -1.1186e-05 -8.37364e-06 -5.4127e-06 -2.29453e-06 9.89611e-07 4.44767e-06 8.0856e-06 1.19073e-05 1.59125e-05 2.00958e-05 2.44452e-05 2.89409e-05 3.35536e-05 3.82434e-05 4.29591e-05 4.76374e-05 5.22049e-05 5.65765e-05 6.0661e-05 6.43644e-05 6.75947e-05 7.02682e-05 7.23161e-05 7.36907e-05 7.43718e-05 -4.10346e-05 -4.06803e-05 -4.00194e-05 -3.90827e-05 -3.78938e-05 -3.64737e-05 -3.48415e-05 -3.30154e-05 -3.10121e-05 -2.88458e-05 -2.65282e-05 -2.40685e-05 -2.14702e-05 -1.87341e-05 -1.58575e-05 -1.28345e-05 -9.65637e-06 -6.31293e-06 -2.79266e-06 9.16137e-07 4.82447e-06 8.94131e-06 1.32735e-05 1.78233e-05 2.25875e-05 2.75551e-05 3.27065e-05 3.80107e-05 4.34241e-05 4.88889e-05 5.43325e-05 5.96688e-05 6.47967e-05 6.96062e-05 7.39821e-05 7.78109e-05 8.09881e-05 8.34266e-05 8.50656e-05 8.58782e-05 -4.63584e-05 -4.59504e-05 -4.5189e-05 -4.411e-05 -4.27419e-05 -4.11103e-05 -3.92394e-05 -3.71525e-05 -3.48708e-05 -3.24129e-05 -2.97937e-05 -2.7025e-05 -2.41114e-05 -2.10538e-05 -1.78484e-05 -1.44873e-05 -1.09595e-05 -7.25164e-06 -3.34878e-06 7.64392e-07 5.10269e-06 9.6789e-06 1.45038e-05 1.95832e-05 2.49172e-05 3.04976e-05 3.63059e-05 4.23109e-05 4.84666e-05 5.47094e-05 6.09577e-05 6.7112e-05 7.30536e-05 7.86511e-05 8.3765e-05 8.82557e-05 9.19936e-05 9.48692e-05 9.68049e-05 9.77651e-05 -5.17714e-05 -5.13049e-05 -5.04336e-05 -4.91992e-05 -4.76359e-05 -4.5775e-05 -4.36472e-05 -4.12818e-05 -3.87064e-05 -3.59448e-05 -3.30166e-05 -2.99362e-05 -2.67098e-05 -2.33382e-05 -1.9816e-05 -1.6133e-05 -1.22749e-05 -8.2244e-06 -3.96251e-06 5.30465e-07 5.27388e-06 1.02852e-05 1.55801e-05 2.11694e-05 2.70577e-05 3.32411e-05 3.97043e-05 4.64178e-05 5.33344e-05 6.03864e-05 6.74834e-05 7.45122e-05 8.13349e-05 8.77956e-05 9.37263e-05 9.89564e-05 0.000103325 0.000106695 0.000108968 0.000110096 -5.72939e-05 -5.67624e-05 -5.57692e-05 -5.43624e-05 -5.25828e-05 -5.04693e-05 -4.80601e-05 -4.5393e-05 -4.25031e-05 -3.94217e-05 -3.61738e-05 -3.27778e-05 -2.92414e-05 -2.55648e-05 -2.17407e-05 -1.77553e-05 -1.35901e-05 -9.22312e-06 -4.63039e-06 2.12895e-07 5.3314e-06 1.07482e-05 1.64847e-05 2.25581e-05 2.89792e-05 3.57503e-05 4.28616e-05 5.02875e-05 5.79823e-05 6.58759e-05 7.38701e-05 8.18378e-05 8.96202e-05 9.70335e-05 0.000103876 0.000109939 0.000115024 0.00011896 0.000121619 0.00012294 -6.29504e-05 -6.23459e-05 -6.12151e-05 -5.96138e-05 -5.75908e-05 -5.51938e-05 -5.24712e-05 -4.9471e-05 -4.62392e-05 -4.28161e-05 -3.92344e-05 -3.55172e-05 -3.16739e-05 -2.77038e-05 -2.3596e-05 -1.93321e-05 -1.48879e-05 -1.02356e-05 -5.3455e-06 -1.86905e-07 5.27079e-06 1.10569e-05 1.71999e-05 2.37243e-05 3.06491e-05 3.79852e-05 4.57309e-05 5.38678e-05 6.23548e-05 7.11222e-05 8.0066e-05 8.90455e-05 9.78789e-05 0.00010635 0.000114218 0.000121229 0.000127136 0.000131723 0.000134831 0.000136377 -6.87717e-05 -6.80838e-05 -6.67955e-05 -6.49713e-05 -6.26694e-05 -5.99488e-05 -5.68703e-05 -5.34959e-05 -4.98851e-05 -4.60911e-05 -4.21566e-05 -3.8111e-05 -3.39653e-05 -2.97163e-05 -2.53481e-05 -2.08351e-05 -1.61458e-05 -1.12453e-05 -6.09708e-06 -6.64169e-07 5.09043e-06 1.12029e-05 1.77092e-05 2.46428e-05 3.20329e-05 3.99012e-05 4.8258e-05 5.70961e-05 6.63834e-05 7.60549e-05 8.6004e-05 9.60771e-05 0.000106068 0.000115723 0.000124753 0.000132849 0.000139706 0.000145053 0.000148686 0.000150495 -7.47961e-05 -7.40117e-05 -7.25408e-05 -7.04574e-05 -6.78313e-05 -6.47347e-05 -6.12447e-05 -5.74409e-05 -5.34015e-05 -4.91973e-05 -4.4885e-05 -4.0502e-05 -3.60607e-05 -3.1553e-05 -2.69543e-05 -2.22291e-05 -1.73359e-05 -1.22309e-05 -6.8702e-06 -1.21025e-06 4.79222e-06 1.11802e-05 1.7998e-05 2.52888e-05 3.30939e-05 4.1449e-05 5.03804e-05 5.98973e-05 6.99834e-05 8.05847e-05 9.15968e-05 0.000102855 0.000114127 0.000125115 0.000135473 0.000144822 0.000152787 0.000159026 0.000163278 0.000165398 -8.10719e-05 -8.01749e-05 -7.84897e-05 -7.61016e-05 -7.30932e-05 -6.95531e-05 -6.55781e-05 -6.12712e-05 -5.67361e-05 -5.20686e-05 -4.73453e-05 -4.26149e-05 -3.78894e-05 -3.31518e-05 -2.8363e-05 -2.34724e-05 -1.84251e-05 -1.31668e-05 -7.64565e-06 -1.81207e-06 4.38263e-06 1.09876e-05 1.80552e-05 2.56393e-05 3.37949e-05 4.25751e-05 5.20265e-05 6.21822e-05 7.30502e-05 8.45975e-05 9.67306e-05 0.000109278 0.000121976 0.000134477 0.000146362 0.000157171 0.000166436 0.00017373 0.000178717 0.000181209 -8.76601e-05 -8.66306e-05 -8.46925e-05 -8.19428e-05 -7.84789e-05 -7.44083e-05 -6.98518e-05 -6.49428e-05 -5.982e-05 -5.46157e-05 -4.94373e-05 -4.43495e-05 -3.9361e-05 -3.44364e-05 -2.9513e-05 -2.45173e-05 -1.93764e-05 -1.40238e-05 -8.40011e-06 -2.4514e-06 3.87409e-06 1.06298e-05 1.78753e-05 2.56756e-05 3.41007e-05 4.32234e-05 5.31164e-05 6.38446e-05 7.54533e-05 8.79461e-05 0.000101255 0.00011521 0.00012951 0.000143742 0.000157399 0.000169917 0.000180719 0.000189267 0.000195134 0.000198071 -9.46371e-05 -9.34514e-05 -9.12135e-05 -8.8033e-05 -8.40226e-05 -7.93106e-05 -7.40463e-05 -6.84011e-05 -6.25622e-05 -5.67168e-05 -5.10229e-05 -4.55714e-05 -4.03593e-05 -3.53151e-05 -3.03353e-05 -2.53128e-05 -2.01514e-05 -1.4771e-05 -9.1066e-06 -3.10411e-06 3.28688e-06 1.01205e-05 1.74619e-05 2.5387e-05 3.39812e-05 4.33392e-05 5.35633e-05 6.47604e-05 7.70298e-05 9.04374e-05 0.000104969 0.000120467 0.000136589 0.000152825 0.000168556 0.00018309 0.000195714 0.000205761 0.000212683 0.000216156 -0.000102098 -0.000100728 -9.81357e-05 -9.44418e-05 -8.97743e-05 -8.42822e-05 -7.81458e-05 -7.15819e-05 -6.48432e-05 -5.82021e-05 -5.19059e-05 -4.60967e-05 -4.07365e-05 -3.56809e-05 -3.07574e-05 -2.58102e-05 -2.07145e-05 -1.53783e-05 -9.73552e-06 -3.73887e-06 2.65223e-06 9.4857e-06 1.6831e-05 2.4775e-05 3.34181e-05 4.28752e-05 5.32798e-05 6.47881e-05 7.75755e-05 9.1811e-05 0.000107588 0.000124802 0.00014303 0.000161624 0.000179804 0.000196726 0.00021152 0.000223358 0.000231551 0.000235671 -0.000110159 -0.000108575 -0.000105565 -0.000101262 -9.58071e-05 -8.93663e-05 -8.2148e-05 -7.44175e-05 -6.65098e-05 -5.88288e-05 -5.17927e-05 -4.56666e-05 -4.03078e-05 -3.54185e-05 -3.07132e-05 -2.59718e-05 -2.10411e-05 -1.5822e-05 -1.02564e-05 -4.31508e-06 2.01739e-06 8.76923e-06 1.60165e-05 2.38599e-05 3.24126e-05 4.18035e-05 5.21903e-05 6.37783e-05 7.68388e-05 9.17063e-05 0.000108697 0.000127863 0.000148607 0.000170026 0.000191127 0.000210885 0.000228259 0.00024224 0.000251958 0.000256859 -0.000118962 -0.000117128 -0.000113633 -0.000108616 -0.000102227 -9.46412e-05 -8.60831e-05 -7.68554e-05 -6.73783e-05 -5.82418e-05 -5.02053e-05 -4.39089e-05 -3.88548e-05 -3.44235e-05 -3.01631e-05 -2.57877e-05 -2.11282e-05 -1.60918e-05 -1.06405e-05 -4.77908e-06 1.45616e-06 8.03893e-06 1.50733e-05 2.26853e-05 3.09962e-05 4.01338e-05 5.02579e-05 6.16005e-05 7.45265e-05 8.96077e-05 0.000107624 0.000129146 0.000153047 0.000177939 0.000202548 0.000225668 0.000246094 0.000262621 0.000274168 0.00028001 -0.000128672 -0.000126553 -0.000122501 -0.000116662 -0.000109184 -0.00010024 -9.00477e-05 -7.89066e-05 -6.72731e-05 -5.59238e-05 -4.62513e-05 -4.02872e-05 -3.61643e-05 -3.26508e-05 -2.91284e-05 -2.52963e-05 -2.10084e-05 -1.62011e-05 -1.08676e-05 -5.05876e-06 1.09533e-06 7.39405e-06 1.40764e-05 2.13193e-05 2.92402e-05 3.79377e-05 4.75306e-05 5.82127e-05 7.03623e-05 8.47788e-05 0.000103115 0.000127925 0.000156098 0.000185361 0.000214174 0.000241238 0.000265232 0.000284759 0.000298485 0.000305456 -0.000139481 -0.000137041 -0.000132361 -0.000125592 -0.000116877 -0.00010637 -9.42517e-05 -8.07452e-05 -6.61806e-05 -5.12269e-05 -3.78915e-05 -3.41338e-05 -3.21832e-05 -3.0215e-05 -2.77405e-05 -2.46067e-05 -2.07628e-05 -1.62004e-05 -1.0943e-05 -5.06596e-06 1.19724e-06 6.96243e-06 1.31032e-05 1.98449e-05 2.72585e-05 3.53725e-05 4.42072e-05 5.38044e-05 6.43122e-05 7.63171e-05 9.22877e-05 0.000123311 0.000157751 0.000192519 0.000226264 0.000257844 0.000285931 0.000308948 0.000325251 0.000333574 -0.0001516 -0.000148805 -0.00014343 -0.000135633 -0.00012555 -0.000113316 -9.90557e-05 -8.28583e-05 -6.46947e-05 -4.41285e-05 -1.91744e-05 -2.54051e-05 -2.74633e-05 -2.75407e-05 -2.62779e-05 -2.39039e-05 -2.05222e-05 -1.61914e-05 -1.09451e-05 -4.77655e-06 2.46867e-06 6.81655e-06 1.21791e-05 1.83349e-05 2.51954e-05 3.26837e-05 4.06884e-05 4.90102e-05 5.72285e-05 6.42621e-05 6.66539e-05 0.000115354 0.000158884 0.000200088 0.000239276 0.000275823 0.000308486 0.000335502 0.000354834 0.000364775 -0.000165262 -0.000162077 -0.000155943 -0.000147027 -0.000135471 -0.000121401 -0.000104919 -8.60641e-05 -6.47383e-05 -4.05417e-05 -1.25256e-05 -1.99925e-05 -2.38834e-05 -2.53797e-05 -2.51124e-05 -2.3407e-05 -2.04413e-05 -1.63199e-05 -1.11032e-05 -4.80963e-06 2.60032e-06 6.38731e-06 1.11827e-05 1.68282e-05 2.31967e-05 3.01506e-05 3.74979e-05 4.49263e-05 5.18792e-05 5.73094e-05 5.9302e-05 0.000112766 0.00016229 0.0002092 0.000253787 0.000295535 0.000333185 0.000364727 0.000387607 0.00039949 -0.000180714 -0.000177102 -0.000170142 -0.00016002 -0.000146894 -0.000130905 -0.000112171 -9.07638e-05 -6.66764e-05 -3.97941e-05 -9.95661e-06 -1.71998e-05 -2.17607e-05 -2.40621e-05 -2.44804e-05 -2.32803e-05 -2.06401e-05 -1.66816e-05 -1.14897e-05 -5.12454e-06 2.36368e-06 5.75926e-06 1.01347e-05 1.53848e-05 2.13837e-05 2.79767e-05 3.4954e-05 4.20114e-05 4.8695e-05 5.43547e-05 5.82289e-05 0.000114453 0.000168421 0.000220346 0.000270155 0.000317241 0.000360252 0.000396883 0.000423925 0.000438158 -0.000198211 -0.000194131 -0.00018627 -0.000174845 -0.000160042 -0.000142037 -0.000120991 -9.70456e-05 -7.03135e-05 -4.09032e-05 -9.00535e-06 -1.60196e-05 -2.08501e-05 -2.36008e-05 -2.44587e-05 -2.36034e-05 -2.11837e-05 -1.73194e-05 -1.21084e-05 -5.63734e-06 2.0024e-06 5.04814e-06 9.09707e-06 1.40639e-05 1.98329e-05 2.62566e-05 3.3146e-05 4.02553e-05 4.72743e-05 5.38537e-05 5.97271e-05 0.000118878 0.000176892 0.000233535 0.000288492 0.000341062 0.000389814 0.000432153 0.000464098 0.000481208 -0.000218019 -0.00021342 -0.000204567 -0.000191717 -0.000175101 -0.000154942 -0.000131462 -0.000104874 -7.53935e-05 -4.32647e-05 -8.8157e-06 -1.58228e-05 -2.08455e-05 -2.38829e-05 -2.50234e-05 -2.43852e-05 -2.2087e-05 -1.82387e-05 -1.29409e-05 -6.29155e-06 1.60463e-06 4.32792e-06 8.12169e-06 1.29063e-05 1.85764e-05 2.5002e-05 3.20275e-05 3.9471e-05 4.7135e-05 5.48395e-05 6.24976e-05 0.000125075 0.000187222 0.000248583 0.00030875 0.000366999 0.000421893 0.000470622 0.000508367 0.000529046 -0.000240411 -0.000235228 -0.000225266 -0.000210836 -0.000192227 -0.000169725 -0.000143616 -0.000114184 -8.17227e-05 -4.65507e-05 -9.04913e-06 -1.62589e-05 -2.15059e-05 -2.47706e-05 -2.61033e-05 -2.55895e-05 -2.3328e-05 -1.94187e-05 -1.396e-05 -7.04998e-06 1.20678e-06 3.64003e-06 7.24152e-06 1.19321e-05 1.7615e-05 2.41789e-05 3.15002e-05 3.94494e-05 4.79027e-05 5.6767e-05 6.6014e-05 0.000132489 0.000199019 0.000265256 0.000330795 0.000394966 0.000456416 0.000512265 0.000556879 0.00058204 -0.000265668 -0.000259816 -0.000248591 -0.000232379 -0.000211545 -0.000186452 -0.000157458 -0.000124913 -8.91662e-05 -5.05806e-05 -9.5527e-06 -1.71287e-05 -2.26572e-05 -2.61347e-05 -2.76075e-05 -2.71518e-05 -2.48577e-05 -2.08191e-05 -1.51296e-05 -7.88234e-06 8.26432e-07 3.00811e-06 6.47601e-06 1.11483e-05 1.69343e-05 2.37379e-05 3.14618e-05 4.00138e-05 4.93168e-05 5.93223e-05 7.00217e-05 0.00014078 0.000211974 0.00028331 0.000354442 0.000424804 0.000493222 0.000556933 0.000609655 0.000640499 -0.000294082 -0.000287445 -0.000274754 -0.000256496 -0.000233142 -0.000205149 -0.000172958 -0.000136982 -9.76155e-05 -5.52396e-05 -1.02457e-05 -1.83075e-05 -2.41678e-05 -2.78558e-05 -2.94345e-05 -2.8987e-05 -2.66049e-05 -2.23804e-05 -1.64026e-05 -8.75652e-06 4.75218e-07 2.44947e-06 5.84006e-06 1.05593e-05 1.65188e-05 2.36337e-05 3.18259e-05 4.103e-05 5.11988e-05 6.23101e-05 7.43668e-05 0.000149707 0.000225816 0.000302485 0.000379452 0.000456285 0.000532057 0.00060434 0.000666544 0.000704646 -0.000325953 -0.000318373 -0.00030394 -0.000283292 -0.000257042 -0.000225775 -0.000190028 -0.000150279 -0.000106952 -6.04293e-05 -1.10746e-05 -1.97013e-05 -2.59228e-05 -2.9814e-05 -3.14688e-05 -3.09887e-05 -2.8475e-05 -2.40223e-05 -1.77164e-05 -9.63202e-06 1.6549e-07 1.98344e-06 5.35243e-06 1.01749e-05 1.63616e-05 2.38347e-05 3.25302e-05 4.24018e-05 5.3424e-05 6.55949e-05 7.8931e-05 0.000159057 0.000240278 0.000322482 0.000405513 0.000489091 0.000572568 0.000654042 0.000727166 0.000774567 -0.000361588 -0.000352839 -0.000336284 -0.000312786 -0.000283168 -0.000248183 -0.000208483 -0.000164611 -0.000117007 -6.60318e-05 -1.19914e-05 -2.12196e-05 -2.78028e-05 -3.18752e-05 -3.35728e-05 -3.30242e-05 -3.03461e-05 -2.56394e-05 -1.89875e-05 -1.04546e-05 -8.52592e-08 1.63764e-06 5.04219e-06 1.00173e-05 1.64702e-05 2.43273e-05 3.35353e-05 4.4063e-05 5.59025e-05 6.90707e-05 8.36034e-05 0.000168618 0.000255058 0.00034293 0.000432207 0.000522772 0.000614262 0.000705416 0.000790828 0.000850135 -0.000401296 -0.000391043 -0.000371824 -0.000344858 -0.000311276 -0.000272056 -0.000227984 -0.00017966 -0.000127522 -7.18773e-05 -1.2939e-05 -2.27547e-05 -2.96647e-05 -3.38768e-05 -3.55775e-05 -3.49283e-05 -3.2065e-05 -2.70973e-05 -2.01081e-05 -1.11518e-05 -2.51099e-07 1.45211e-06 4.95229e-06 1.0123e-05 1.68672e-05 2.51148e-05 3.48217e-05 4.59691e-05 5.8565e-05 7.26449e-05 8.82691e-05 0.000178157 0.000269809 0.000363373 0.000458982 0.000556704 0.000656456 0.000757629 0.000856429 0.000930895 -0.000445373 -0.000433094 -0.000410413 -0.000379137 -0.000340851 -0.000296815 -0.000247958 -0.000194917 -0.000138096 -7.77109e-05 -1.3837e-05 -2.41642e-05 -3.13264e-05 -3.56168e-05 -3.72768e-05 -3.65017e-05 -3.34473e-05 -2.82337e-05 -2.09462e-05 -1.16323e-05 -2.95884e-07 1.48006e-06 5.13834e-06 1.05396e-05 1.75853e-05 2.62107e-05 3.63804e-05 4.80871e-05 6.13524e-05 7.62291e-05 9.28029e-05 0.000187412 0.00028412 0.000383247 0.000485119 0.000590035 0.000698193 0.000809581 0.000922348 0.00101589 -0.000494064 -0.000478892 -0.000451547 -0.000414823 -0.000370944 -0.000321493 -0.00026751 -0.000209621 -0.000148142 -8.31593e-05 -1.45688e-05 -2.52568e-05 -3.25589e-05 -3.68544e-05 -3.84339e-05 -3.75214e-05 -3.42902e-05 -2.8871e-05 -2.13552e-05 -1.17914e-05 -1.74822e-07 1.7821e-06 5.65862e-06 1.13129e-05 1.86525e-05 2.76221e-05 3.81965e-05 5.03788e-05 6.42012e-05 7.97287e-05 9.70682e-05 0.000196086 0.000297518 0.000401881 0.00050973 0.00062165 0.000738154 0.000859831 0.000986317 0.00110338 -0.000547458 -0.000527864 -0.000494026 -0.000450383 -0.000399956 -0.000344596 -0.000285342 -0.000222708 -0.00015686 -8.77153e-05 -1.49715e-05 -2.5794e-05 -3.31019e-05 -3.7336e-05 -3.88152e-05 -3.77787e-05 -3.44107e-05 -2.88519e-05 -2.12053e-05 -1.1533e-05 1.56256e-07 2.40734e-06 6.54877e-06 1.2458e-05 2.00618e-05 2.93206e-05 4.02213e-05 5.27759e-05 6.70228e-05 8.30306e-05 0.000100914 0.000203853 0.00030947 0.000418502 0.000531757 0.000650169 0.00077458 0.000906468 0.00104534 0.00119042 -0.000605164 -0.000578294 -0.000535299 -0.000483095 -0.000425391 -0.000364008 -0.000299749 -0.000232866 -0.000163301 -9.07832e-05 -1.48516e-05 -2.55388e-05 -3.27373e-05 -3.68812e-05 -3.82794e-05 -3.71671e-05 -3.37301e-05 -2.8118e-05 -2.0451e-05 -1.0821e-05 7.15496e-07 3.3512e-06 7.77212e-06 1.39083e-05 2.17216e-05 3.11946e-05 4.23278e-05 5.514e-05 6.96703e-05 8.59798e-05 0.00010417 0.000210346 0.000319387 0.000432258 0.000550013 0.000673988 0.00080529 0.000946932 0.0010958 0.00127214 -0.000665078 -0.000625626 -0.000570334 -0.000508589 -0.000443831 -0.0003772 -0.000308925 -0.000238853 -0.000166656 -9.1905e-05 -1.40886e-05 -2.44284e-05 -3.14837e-05 -3.5575e-05 -3.69587e-05 -3.58485e-05 -3.24254e-05 -2.68464e-05 -1.9252e-05 -9.77654e-06 1.44021e-06 4.47797e-06 9.13863e-06 1.54385e-05 2.33852e-05 3.29857e-05 4.42531e-05 5.72103e-05 7.18929e-05 8.83457e-05 0.000106635 0.000215157 0.000326642 0.000442257 0.000563264 0.000691378 0.00082788 0.000977752 0.00113399 0.00134045 -0.000717924 -0.000658687 -0.000590706 -0.00052144 -0.000452065 -0.000382429 -0.000312069 -0.000240457 -0.000167063 -9.13799e-05 -1.29732e-05 -2.29891e-05 -2.99843e-05 -3.41046e-05 -3.55449e-05 -3.44982e-05 -3.11414e-05 -2.56365e-05 -1.81404e-05 -8.8238e-06 2.08823e-06 5.40727e-06 1.02033e-05 1.65788e-05 2.45783e-05 3.42259e-05 4.55426e-05 5.85532e-05 7.32886e-05 8.9779e-05 0.000108048 0.000217824 0.000330585 0.000447628 0.000570354 0.000700664 0.00084015 0.000994496 0.00115704 0.00138221 0 0 0 0 0 0 0 0 0 0 0 0 0 0 0 0 0 0 0 0 0 0 0 0 0 0 0 0 0 0 0 0 0 0 0 0 0 0 0 0 -5.04722e-06 -5.00958e-06 -4.93662e-06 -4.83086e-06 -4.69455e-06 -4.52968e-06 -4.33796e-06 -4.12092e-06 -3.87986e-06 -3.61587e-06 -3.3298e-06 -3.02242e-06 -2.69391e-06 -2.34437e-06 -1.97362e-06 -1.58129e-06 -1.16684e-06 -7.29612e-07 -2.68954e-07 2.15715e-07 7.24779e-07 1.25825e-06 1.81579e-06 2.3964e-06 2.99832e-06 3.61888e-06 4.25437e-06 4.89989e-06 5.54935e-06 6.19535e-06 6.82932e-06 7.44178e-06 8.02216e-06 8.55959e-06 9.0432e-06 9.46268e-06 9.808