# vtk DataFile Version 2.0
Presion
ASCII

DATASET STRUCTURED_GRID
DIMENSIONS   40   40   20

POINTS   32000   double
0.0125   0.0125   0.025
0.0375   0.0125   0.025
0.0625   0.0125   0.025
0.0875   0.0125   0.025
0.1125   0.0125   0.025
0.1375   0.0125   0.025
0.1625   0.0125   0.025
0.1875   0.0125   0.025
0.2125   0.0125   0.025
0.2375   0.0125   0.025
0.2625   0.0125   0.025
0.2875   0.0125   0.025
0.3125   0.0125   0.025
0.3375   0.0125   0.025
0.3625   0.0125   0.025
0.3875   0.0125   0.025
0.4125   0.0125   0.025
0.4375   0.0125   0.025
0.4625   0.0125   0.025
0.4875   0.0125   0.025
0.5125   0.0125   0.025
0.5375   0.0125   0.025
0.5625   0.0125   0.025
0.5875   0.0125   0.025
0.6125   0.0125   0.025
0.6375   0.0125   0.025
0.6625   0.0125   0.025
0.6875   0.0125   0.025
0.7125   0.0125   0.025
0.7375   0.0125   0.025
0.7625   0.0125   0.025
0.7875   0.0125   0.025
0.8125   0.0125   0.025
0.8375   0.0125   0.025
0.8625   0.0125   0.025
0.8875   0.0125   0.025
0.9125   0.0125   0.025
0.9375   0.0125   0.025
0.9625   0.0125   0.025
0.9875   0.0125   0.025
0.0125   0.0375   0.025
0.0375   0.0375   0.025
0.0625   0.0375   0.025
0.0875   0.0375   0.025
0.1125   0.0375   0.025
0.1375   0.0375   0.025
0.1625   0.0375   0.025
0.1875   0.0375   0.025
0.2125   0.0375   0.025
0.2375   0.0375   0.025
0.2625   0.0375   0.025
0.2875   0.0375   0.025
0.3125   0.0375   0.025
0.3375   0.0375   0.025
0.3625   0.0375   0.025
0.3875   0.0375   0.025
0.4125   0.0375   0.025
0.4375   0.0375   0.025
0.4625   0.0375   0.025
0.4875   0.0375   0.025
0.5125   0.0375   0.025
0.5375   0.0375   0.025
0.5625   0.0375   0.025
0.5875   0.0375   0.025
0.6125   0.0375   0.025
0.6375   0.0375   0.025
0.6625   0.0375   0.025
0.6875   0.0375   0.025
0.7125   0.0375   0.025
0.7375   0.0375   0.025
0.7625   0.0375   0.025
0.7875   0.0375   0.025
0.8125   0.0375   0.025
0.8375   0.0375   0.025
0.8625   0.0375   0.025
0.8875   0.0375   0.025
0.9125   0.0375   0.025
0.9375   0.0375   0.025
0.9625   0.0375   0.025
0.9875   0.0375   0.025
0.0125   0.0625   0.025
0.0375   0.0625   0.025
0.0625   0.0625   0.025
0.0875   0.0625   0.025
0.1125   0.0625   0.025
0.1375   0.0625   0.025
0.1625   0.0625   0.025
0.1875   0.0625   0.025
0.2125   0.0625   0.025
0.2375   0.0625   0.025
0.2625   0.0625   0.025
0.2875   0.0625   0.025
0.3125   0.0625   0.025
0.3375   0.0625   0.025
0.3625   0.0625   0.025
0.3875   0.0625   0.025
0.4125   0.0625   0.025
0.4375   0.0625   0.025
0.4625   0.0625   0.025
0.4875   0.0625   0.025
0.5125   0.0625   0.025
0.5375   0.0625   0.025
0.5625   0.0625   0.025
0.5875   0.0625   0.025
0.6125   0.0625   0.025
0.6375   0.0625   0.025
0.6625   0.0625   0.025
0.6875   0.0625   0.025
0.7125   0.0625   0.025
0.7375   0.0625   0.025
0.7625   0.0625   0.025
0.7875   0.0625   0.025
0.8125   0.0625   0.025
0.8375   0.0625   0.025
0.8625   0.0625   0.025
0.8875   0.0625   0.025
0.9125   0.0625   0.025
0.9375   0.0625   0.025
0.9625   0.0625   0.025
0.9875   0.0625   0.025
0.0125   0.0875   0.025
0.0375   0.0875   0.025
0.0625   0.0875   0.025
0.0875   0.0875   0.025
0.1125   0.0875   0.025
0.1375   0.0875   0.025
0.1625   0.0875   0.025
0.1875   0.0875   0.025
0.2125   0.0875   0.025
0.2375   0.0875   0.025
0.2625   0.0875   0.025
0.2875   0.0875   0.025
0.3125   0.0875   0.025
0.3375   0.0875   0.025
0.3625   0.0875   0.025
0.3875   0.0875   0.025
0.4125   0.0875   0.025
0.4375   0.0875   0.025
0.4625   0.0875   0.025
0.4875   0.0875   0.025
0.5125   0.0875   0.025
0.5375   0.0875   0.025
0.5625   0.0875   0.025
0.5875   0.0875   0.025
0.6125   0.0875   0.025
0.6375   0.0875   0.025
0.6625   0.0875   0.025
0.6875   0.0875   0.025
0.7125   0.0875   0.025
0.7375   0.0875   0.025
0.7625   0.0875   0.025
0.7875   0.0875   0.025
0.8125   0.0875   0.025
0.8375   0.0875   0.025
0.8625   0.0875   0.025
0.8875   0.0875   0.025
0.9125   0.0875   0.025
0.9375   0.0875   0.025
0.9625   0.0875   0.025
0.9875   0.0875   0.025
0.0125   0.1125   0.025
0.0375   0.1125   0.025
0.0625   0.1125   0.025
0.0875   0.1125   0.025
0.1125   0.1125   0.025
0.1375   0.1125   0.025
0.1625   0.1125   0.025
0.1875   0.1125   0.025
0.2125   0.1125   0.025
0.2375   0.1125   0.025
0.2625   0.1125   0.025
0.2875   0.1125   0.025
0.3125   0.1125   0.025
0.3375   0.1125   0.025
0.3625   0.1125   0.025
0.3875   0.1125   0.025
0.4125   0.1125   0.025
0.4375   0.1125   0.025
0.4625   0.1125   0.025
0.4875   0.1125   0.025
0.5125   0.1125   0.025
0.5375   0.1125   0.025
0.5625   0.1125   0.025
0.5875   0.1125   0.025
0.6125   0.1125   0.025
0.6375   0.1125   0.025
0.6625   0.1125   0.025
0.6875   0.1125   0.025
0.7125   0.1125   0.025
0.7375   0.1125   0.025
0.7625   0.1125   0.025
0.7875   0.1125   0.025
0.8125   0.1125   0.025
0.8375   0.1125   0.025
0.8625   0.1125   0.025
0.8875   0.1125   0.025
0.9125   0.1125   0.025
0.9375   0.1125   0.025
0.9625   0.1125   0.025
0.9875   0.1125   0.025
0.0125   0.1375   0.025
0.0375   0.1375   0.025
0.0625   0.1375   0.025
0.0875   0.1375   0.025
0.1125   0.1375   0.025
0.1375   0.1375   0.025
0.1625   0.1375   0.025
0.1875   0.1375   0.025
0.2125   0.1375   0.025
0.2375   0.1375   0.025
0.2625   0.1375   0.025
0.2875   0.1375   0.025
0.3125   0.1375   0.025
0.3375   0.1375   0.025
0.3625   0.1375   0.025
0.3875   0.1375   0.025
0.4125   0.1375   0.025
0.4375   0.1375   0.025
0.4625   0.1375   0.025
0.4875   0.1375   0.025
0.5125   0.1375   0.025
0.5375   0.1375   0.025
0.5625   0.1375   0.025
0.5875   0.1375   0.025
0.6125   0.1375   0.025
0.6375   0.1375   0.025
0.6625   0.1375   0.025
0.6875   0.1375   0.025
0.7125   0.1375   0.025
0.7375   0.1375   0.025
0.7625   0.1375   0.025
0.7875   0.1375   0.025
0.8125   0.1375   0.025
0.8375   0.1375   0.025
0.8625   0.1375   0.025
0.8875   0.1375   0.025
0.9125   0.1375   0.025
0.9375   0.1375   0.025
0.9625   0.1375   0.025
0.9875   0.1375   0.025
0.0125   0.1625   0.025
0.0375   0.1625   0.025
0.0625   0.1625   0.025
0.0875   0.1625   0.025
0.1125   0.1625   0.025
0.1375   0.1625   0.025
0.1625   0.1625   0.025
0.1875   0.1625   0.025
0.2125   0.1625   0.025
0.2375   0.1625   0.025
0.2625   0.1625   0.025
0.2875   0.1625   0.025
0.3125   0.1625   0.025
0.3375   0.1625   0.025
0.3625   0.1625   0.025
0.3875   0.1625   0.025
0.4125   0.1625   0.025
0.4375   0.1625   0.025
0.4625   0.1625   0.025
0.4875   0.1625   0.025
0.5125   0.1625   0.025
0.5375   0.1625   0.025
0.5625   0.1625   0.025
0.5875   0.1625   0.025
0.6125   0.1625   0.025
0.6375   0.1625   0.025
0.6625   0.1625   0.025
0.6875   0.1625   0.025
0.7125   0.1625   0.025
0.7375   0.1625   0.025
0.7625   0.1625   0.025
0.7875   0.1625   0.025
0.8125   0.1625   0.025
0.8375   0.1625   0.025
0.8625   0.1625   0.025
0.8875   0.1625   0.025
0.9125   0.1625   0.025
0.9375   0.1625   0.025
0.9625   0.1625   0.025
0.9875   0.1625   0.025
0.0125   0.1875   0.025
0.0375   0.1875   0.025
0.0625   0.1875   0.025
0.0875   0.1875   0.025
0.1125   0.1875   0.025
0.1375   0.1875   0.025
0.1625   0.1875   0.025
0.1875   0.1875   0.025
0.2125   0.1875   0.025
0.2375   0.1875   0.025
0.2625   0.1875   0.025
0.2875   0.1875   0.025
0.3125   0.1875   0.025
0.3375   0.1875   0.025
0.3625   0.1875   0.025
0.3875   0.1875   0.025
0.4125   0.1875   0.025
0.4375   0.1875   0.025
0.4625   0.1875   0.025
0.4875   0.1875   0.025
0.5125   0.1875   0.025
0.5375   0.1875   0.025
0.5625   0.1875   0.025
0.5875   0.1875   0.025
0.6125   0.1875   0.025
0.6375   0.1875   0.025
0.6625   0.1875   0.025
0.6875   0.1875   0.025
0.7125   0.1875   0.025
0.7375   0.1875   0.025
0.7625   0.1875   0.025
0.7875   0.1875   0.025
0.8125   0.1875   0.025
0.8375   0.1875   0.025
0.8625   0.1875   0.025
0.8875   0.1875   0.025
0.9125   0.1875   0.025
0.9375   0.1875   0.025
0.9625   0.1875   0.025
0.9875   0.1875   0.025
0.0125   0.2125   0.025
0.0375   0.2125   0.025
0.0625   0.2125   0.025
0.0875   0.2125   0.025
0.1125   0.2125   0.025
0.1375   0.2125   0.025
0.1625   0.2125   0.025
0.1875   0.2125   0.025
0.2125   0.2125   0.025
0.2375   0.2125   0.025
0.2625   0.2125   0.025
0.2875   0.2125   0.025
0.3125   0.2125   0.025
0.3375   0.2125   0.025
0.3625   0.2125   0.025
0.3875   0.2125   0.025
0.4125   0.2125   0.025
0.4375   0.2125   0.025
0.4625   0.2125   0.025
0.4875   0.2125   0.025
0.5125   0.2125   0.025
0.5375   0.2125   0.025
0.5625   0.2125   0.025
0.5875   0.2125   0.025
0.6125   0.2125   0.025
0.6375   0.2125   0.025
0.6625   0.2125   0.025
0.6875   0.2125   0.025
0.7125   0.2125   0.025
0.7375   0.2125   0.025
0.7625   0.2125   0.025
0.7875   0.2125   0.025
0.8125   0.2125   0.025
0.8375   0.2125   0.025
0.8625   0.2125   0.025
0.8875   0.2125   0.025
0.9125   0.2125   0.025
0.9375   0.2125   0.025
0.9625   0.2125   0.025
0.9875   0.2125   0.025
0.0125   0.2375   0.025
0.0375   0.2375   0.025
0.0625   0.2375   0.025
0.0875   0.2375   0.025
0.1125   0.2375   0.025
0.1375   0.2375   0.025
0.1625   0.2375   0.025
0.1875   0.2375   0.025
0.2125   0.2375   0.025
0.2375   0.2375   0.025
0.2625   0.2375   0.025
0.2875   0.2375   0.025
0.3125   0.2375   0.025
0.3375   0.2375   0.025
0.3625   0.2375   0.025
0.3875   0.2375   0.025
0.4125   0.2375   0.025
0.4375   0.2375   0.025
0.4625   0.2375   0.025
0.4875   0.2375   0.025
0.5125   0.2375   0.025
0.5375   0.2375   0.025
0.5625   0.2375   0.025
0.5875   0.2375   0.025
0.6125   0.2375   0.025
0.6375   0.2375   0.025
0.6625   0.2375   0.025
0.6875   0.2375   0.025
0.7125   0.2375   0.025
0.7375   0.2375   0.025
0.7625   0.2375   0.025
0.7875   0.2375   0.025
0.8125   0.2375   0.025
0.8375   0.2375   0.025
0.8625   0.2375   0.025
0.8875   0.2375   0.025
0.9125   0.2375   0.025
0.9375   0.2375   0.025
0.9625   0.2375   0.025
0.9875   0.2375   0.025
0.0125   0.2625   0.025
0.0375   0.2625   0.025
0.0625   0.2625   0.025
0.0875   0.2625   0.025
0.1125   0.2625   0.025
0.1375   0.2625   0.025
0.1625   0.2625   0.025
0.1875   0.2625   0.025
0.2125   0.2625   0.025
0.2375   0.2625   0.025
0.2625   0.2625   0.025
[...]
POINT_DATA   32000
SCALARS Presion double
LOOKUP_TABLE   Presion

0 0 0 0 0 0 0 0 0 0 0 0 0 0 0 0 0 0 0 0 0 0 0 0 0 0 0 0 0 0 0 0 0 0 0 0 0 0 0 0 -1.94835e-06 -1.93154e-06 -1.89815e-06 -1.84868e-06 -1.78386e-06 -1.7046e-06 -1.61197e-06 -1.50713e-06 -1.39128e-06 -1.26559e-06 -1.13119e-06 -9.90648e-07 -8.43289e-07 -6.8984e-07 -5.30872e-07 -3.66805e-07 -1.97922e-07 -2.43989e-08 1.53666e-07 3.36213e-07 5.23174e-07 7.15487e-07 9.11886e-07 1.11202e-06 1.31533e-06 1.52103e-06 1.72809e-06 1.93513e-06 2.14052e-06 2.34229e-06 2.53821e-06 2.7306e-06 2.91199e-06 3.07964e-06 3.23079e-06 3.36277e-06 3.47314e-06 3.55977e-06 3.62093e-06 3.6554e-06 -3.92183e-06 -3.88786e-06 -3.82041e-06 -3.72049e-06 -3.5896e-06 -3.42964e-06 -3.24279e-06 -3.03141e-06 -2.79796e-06 -2.54486e-06 -2.27438e-06 -1.99171e-06 -1.6955e-06 -1.38722e-06 -1.06802e-06 -7.38697e-07 -3.99813e-07 -5.16787e-08 3.05547e-07 6.71784e-07 1.04694e-06 1.43293e-06 1.82728e-06 2.22931e-06 2.63797e-06 3.05171e-06 3.46844e-06 3.88547e-06 4.29946e-06 4.70648e-06 5.10199e-06 5.49055e-06 5.85715e-06 6.19616e-06 6.50194e-06 6.76906e-06 6.9925e-06 7.16789e-06 7.2917e-06 7.36141e-06 -5.94344e-06 -5.89162e-06 -5.78876e-06 -5.63646e-06 -5.43709e-06 -5.19359e-06 -4.90938e-06 -4.58817e-06 -4.23376e-06 -3.84991e-06 -3.44016e-06 -3.01236e-06 -2.56455e-06 -2.09894e-06 -1.61721e-06 -1.12057e-06 -6.09768e-07 -8.51878e-08 4.53029e-07 1.00487e-06 1.57033e-06 2.15232e-06 2.7473e-06 3.35438e-06 3.97205e-06 4.59807e-06 5.22935e-06 5.86185e-06 6.49056e-06 7.10946e-06 7.71162e-06 8.30366e-06 8.86285e-06 9.38047e-06 9.84775e-06 1.02562e-05 1.05981e-05 1.08664e-05 1.10558e-05 1.11623e-05 -8.0369e-06 -7.96617e-06 -7.82584e-06 -7.6182e-06 -7.3466e-06 -7.01522e-06 -6.62889e-06 -6.19281e-06 -5.71235e-06 -5.19275e-06 -4.63894e-06 -4.0616e-06 -3.45815e-06 -2.83157e-06 -2.1841e-06 -1.51724e-06 -8.31871e-07 -1.28348e-07 5.93335e-07 1.33338e-06 2.09197e-06 2.87316e-06 3.67253e-06 4.48908e-06 5.321e-06 6.16544e-06 7.01838e-06 7.87447e-06 8.72694e-06 9.56764e-06 1.03871e-05 1.11937e-05 1.19567e-05 1.2664e-05 1.33032e-05 1.38626e-05 1.4331e-05 1.46988e-05 1.49583e-05 1.51039e-05 -1.0227e-05 -1.01359e-05 -9.95523e-06 -9.68813e-06 -9.33911e-06 -8.91381e-06 -8.41874e-06 -7.86087e-06 -7.24736e-06 -6.5852e-06 -5.88088e-06 -5.14808e-06 -4.38366e-06 -3.5914e-06 -2.77405e-06 -1.93334e-06 -1.07015e-06 -1.84663e-07 7.23457e-07 1.6548e-06 2.60998e-06 3.5943e-06 4.60272e-06 5.63435e-06 6.68724e-06 7.75809e-06 8.84203e-06 9.93244e-06 1.10208e-05 1.20967e-05 1.31478e-05 1.41841e-05 1.51664e-05 1.60786e-05 1.69044e-05 1.76279e-05 1.82343e-05 1.87106e-05 1.90466e-05 1.92346e-05 -1.25401e-05 -1.24267e-05 -1.22018e-05 -1.18697e-05 -1.14364e-05 -1.09092e-05 -1.02967e-05 -9.60798e-06 -8.85231e-06 -8.03876e-06 -7.17565e-06 -6.2799e-06 -5.34789e-06 -4.38419e-06 -3.39201e-06 -2.37322e-06 -1.32853e-06 -2.57713e-07 8.40109e-07 1.96618e-06 3.12179e-06 4.31366e-06 5.53652e-06 6.78984e-06 8.07175e-06 9.37871e-06 1.07052e-05 1.20434e-05 1.3383e-05 1.47112e-05 1.60126e-05 1.72983e-05 1.85201e-05 1.96573e-05 2.06888e-05 2.15939e-05 2.23534e-05 2.29504e-05 2.33711e-05 2.3606e-05 -1.50046e-05 -1.48661e-05 -1.45921e-05 -1.4188e-05 -1.36615e-05 -1.30222e-05 -1.2281e-05 -1.14498e-05 -1.05404e-05 -9.56439e-06 -8.53223e-06 -7.46439e-06 -6.35681e-06 -5.21493e-06 -4.04232e-06 -2.84081e-06 -1.61071e-06 -3.51125e-07 9.39681e-07 2.26393e-06 3.6239e-06 5.028e-06 6.47114e-06 7.95349e-06 9.47361e-06 1.1028e-05 1.26107e-05 1.42129e-05 1.58225e-05 1.74241e-05 1.8999e-05 2.05588e-05 2.20457e-05 2.34336e-05 2.46954e-05 2.58049e-05 2.6737e-05 2.74702e-05 2.79867e-05 2.82741e-05 -1.7651e-05 -1.74843e-05 -1.71549e-05 -1.66696e-05 -1.60386e-05 -1.52741e-05 -1.43902e-05 -1.34019e-05 -1.23244e-05 -1.11722e-05 -9.9585e-06 -8.70762e-06 -7.41521e-06 -6.08753e-06 -4.72841e-06 -3.33938e-06 -1.92006e-06 -4.68522e-07 1.01822e-06 2.54376e-06 4.11179e-06 5.73265e-06 7.40202e-06 9.12117e-06 1.08895e-05 1.2704e-05 1.45586e-05 1.64436e-05 1.83454e-05 2.0246e-05 2.21228e-05 2.39874e-05 2.57714e-05 2.74422e-05 2.89656e-05 3.03081e-05 3.14379e-05 3.23272e-05 3.29535e-05 3.33006e-05 -2.05133e-05 -2.03142e-05 -1.99212e-05 -1.93433e-05 -1.85935e-05 -1.76874e-05 -1.66431e-05 -1.54795e-05 -1.42161e-05 -1.2871e-05 -1.14608e-05 -1.0014e-05 -8.52615e-06 -7.00435e-06 -5.45243e-06 -3.8713e-06 -2.25944e-06 -6.13432e-07 1.07144e-06 2.80061e-06 4.57968e-06 6.42127e-06 8.32245e-06 1.02862e-05 1.23132e-05 1.44014e-05 1.65453e-05 1.87347e-05 2.09546e-05 2.31843e-05 2.53973e-05 2.7604e-05 2.97247e-05 3.17185e-05 3.35427e-05 3.51545e-05 3.65136e-05 3.75844e-05 3.83381e-05 3.87542e-05 -2.36289e-05 -2.33921e-05 -2.29254e-05 -2.22406e-05 -2.13539e-05 -2.02857e-05 -1.90587e-05 -1.76973e-05 -1.6226e-05 -1.46677e-05 -1.3043e-05 -1.13854e-05 -9.69032e-06 -7.9656e-06 -6.21478e-06 -4.43764e-06 -2.63094e-06 -7.89167e-07 1.09472e-06 3.02856e-06 5.02041e-06 7.08556e-06 9.22324e-06 1.14386e-05 1.37346e-05 1.61108e-05 1.85626e-05 2.10803e-05 2.36479e-05 2.62421e-05 2.88321e-05 3.14263e-05 3.39321e-05 3.62989e-05 3.84727e-05 4.03995e-05 4.20278e-05 4.33121e-05 4.42157e-05 4.47124e-05 -2.70397e-05 -2.67586e-05 -2.62055e-05 -2.53956e-05 -2.43497e-05 -2.30935e-05 -2.16562e-05 -2.00688e-05 -1.83625e-05 -1.65663e-05 -1.47058e-05 -1.28202e-05 -1.0905e-05 -8.96857e-06 -7.0135e-06 -5.03778e-06 -3.03563e-06 -9.98666e-07 1.08318e-06 3.22081e-06 5.42532e-06 7.71509e-06 1.00923e-05 1.25652e-05 1.51395e-05 1.78175e-05 2.05966e-05 2.34685e-05 2.64168e-05 2.94163e-05 3.24314e-05 3.54676e-05 3.84181e-05 4.12197e-05 4.38044e-05 4.61034e-05 4.80512e-05 4.95896e-05 5.06713e-05 5.12633e-05 -3.07931e-05 -3.04593e-05 -2.98039e-05 -2.88462e-05 -2.76128e-05 -2.61364e-05 -2.44541e-05 -2.26057e-05 -2.06308e-05 -1.85665e-05 -1.6445e-05 -1.4312e-05 -1.2163e-05 -1.00066e-05 -7.84349e-06 -5.66883e-06 -3.47318e-06 -1.2443e-06 1.03176e-06 3.36966e-06 5.78416e-06 8.29711e-06 1.09146e-05 1.36486e-05 1.65086e-05 1.95008e-05 2.26263e-05 2.58791e-05 2.92442e-05 3.26952e-05 3.61919e-05 3.97358e-05 4.32037e-05 4.65166e-05 4.95887e-05 5.23322e-05 5.46631e-05 5.65067e-05 5.78025e-05 5.85085e-05 -3.49427e-05 -3.45459e-05 -3.37682e-05 -3.26344e-05 -3.11782e-05 -2.94409e-05 -2.74701e-05 -2.53166e-05 -2.30314e-05 -2.06623e-05 -1.82498e-05 -1.58473e-05 -1.34508e-05 -1.10676e-05 -8.69555e-06 -6.32505e-06 -3.94155e-06 -1.52767e-06 9.35346e-07 3.46664e-06 6.08516e-06 8.81656e-06 1.16716e-05 1.46668e-05 1.78168e-05 2.11329e-05 2.46216e-05 2.82818e-05 3.21019e-05 3.60557e-05 4.00997e-05 4.42298e-05 4.83042e-05 5.22238e-05 5.58795e-05 5.91586e-05 6.1953e-05 6.41666e-05 6.5722e-05 6.65653e-05 -3.95495e-05 -3.90768e-05 -3.81522e-05 -3.68071e-05 -3.50839e-05 -3.30349e-05 -3.07205e-05 -2.82062e-05 -2.55583e-05 -2.28386e-05 -2.00994e-05 -1.74032e-05 -1.4746e-05 -1.21327e-05 -9.55532e-06 -6.99724e-06 -4.43665e-06 -1.84947e-06 7.88869e-07 3.50259e-06 6.3152e-06 9.25626e-06 1.23419e-05 1.55939e-05 1.9033e-05 2.26777e-05 2.65422e-05 3.06334e-05 3.49464e-05 3.9459e-05 4.41256e-05 4.89359e-05 5.37263e-05 5.83718e-05 6.27322e-05 6.66621e-05 7.00221e-05 7.2688e-05 7.45605e-05 7.55707e-05 -4.46835e-05 -4.41191e-05 -4.30171e-05 -4.14172e-05 -3.9372e-05 -3.69472e-05 -3.42196e-05 -3.12735e-05 -2.81957e-05 -2.50682e-05 -2.19594e-05 -1.89433e-05 -1.6015e-05 -1.31739e-05 -1.04022e-05 -7.67227e-06 -4.9522e-06 -2.20943e-06 5.87419e-07 3.46794e-06 6.46022e-06 9.59743e-06 1.29013e-05 1.63996e-05 2.01201e-05 2.40904e-05 2.83355e-05 3.28746e-05 3.77152e-05 4.28443e-05 4.82187e-05 5.38217e-05 5.94636e-05 6.49848e-05 7.02035e-05 7.49309e-05 7.89859e-05 8.22085e-05 8.44708e-05 8.56854e-05 -5.04249e-05 -4.97494e-05 -4.84332e-05 -4.65249e-05 -4.40895e-05 -4.12085e-05 -3.79788e-05 -3.45093e-05 -3.09148e-05 -2.73058e-05 -2.37751e-05 -2.04118e-05 -1.72084e-05 -1.41521e-05 -1.12083e-05 -8.33291e-06 -5.47997e-06 -2.60648e-06 3.26285e-07 3.35307e-06 6.5059e-06 9.82065e-06 1.33246e-05 1.70511e-05 2.10361e-05 2.53178e-05 2.99357e-05 3.4927e-05 4.032e-05 4.61209e-05 5.22973e-05 5.88278e-05 6.54906e-05 7.20779e-05 7.83508e-05 8.40621e-05 8.89767e-05 9.28882e-05 9.56324e-05 9.70984e-05 -5.68655e-05 -5.60561e-05 -5.4481e-05 -5.21997e-05 -4.92904e-05 -4.58529e-05 -4.20078e-05 -3.78952e-05 -3.36682e-05 -2.948e-05 -2.5462e-05 -2.17258e-05 -1.82557e-05 -1.50144e-05 -1.19385e-05 -8.95861e-06 -6.0106e-06 -3.03937e-06 8.9288e-10 3.14883e-06 6.43875e-06 9.90748e-06 1.35868e-05 1.7515e-05 2.1736e-05 2.62999e-05 3.12639e-05 3.66902e-05 4.26399e-05 4.91558e-05 5.6234e-05 6.38553e-05 7.17544e-05 7.9653e-05 8.72314e-05 9.41643e-05 0.000100147 0.000104914 0.000108256 0.000110032 -6.41107e-05 -6.31403e-05 -6.12542e-05 -5.85227e-05 -5.50385e-05 -5.09203e-05 -4.63156e-05 -4.14019e-05 -3.63841e-05 -3.14805e-05 -2.68894e-05 -2.2762e-05 -1.90593e-05 -1.56934e-05 -1.25514e-05 -9.52774e-06 -6.53564e-06 -3.50784e-06 -3.9339e-07 2.84733e-06 6.24775e-06 9.84277e-06 1.36666e-05 1.77612e-05 2.21767e-05 2.69745e-05 3.22311e-05 3.80406e-05 4.45128e-05 5.17562e-05 5.98327e-05 6.87467e-05 7.8165e-05 8.7696e-05 9.6904e-05 0.000105361 0.000112673 0.000118505 0.000122588 0.000124748 -7.22808e-05 -7.11186e-05 -6.88612e-05 -6.55903e-05 -6.14119e-05 -5.64626e-05 -5.09162e-05 -4.49919e-05 -3.896e-05 -3.31382e-05 -2.78503e-05 -2.33369e-05 -1.94882e-05 -1.6109e-05 -1.3005e-05 -1.00226e-05 -7.05106e-06 -4.01447e-06 -8.61523e-07 2.44307e-06 5.92669e-06 9.61784e-06 1.35506e-05 1.77679e-05 2.23233e-05 2.72855e-05 3.27473e-05 3.88364e-05 4.5728e-05 5.36415e-05 6.27855e-05 7.32573e-05 8.45845e-05 9.6178e-05 0.000107434 0.000117794 0.000126762 0.000133915 0.000138919 0.000141553 -8.15119e-05 -8.01235e-05 -7.74277e-05 -7.35173e-05 -6.85087e-05 -6.2552e-05 -5.58411e-05 -4.86306e-05 -4.1262e-05 -3.41943e-05 -2.79976e-05 -2.31758e-05 -1.93771e-05 -1.61799e-05 -1.32684e-05 -1.0438e-05 -7.56266e-06 -4.5672e-06 -1.40895e-06 1.93488e-06 5.47759e-06 9.23454e-06 1.32376e-05 1.75286e-05 2.21594e-05 2.71976e-05 3.27398e-05 3.89356e-05 4.60279e-05 5.44017e-05 6.45826e-05 7.70107e-05 9.08254e-05 0.000105068 0.000118905 0.000131635 0.000142654 0.000151442 0.000157584 0.000160802 -9.19563e-05 -9.03048e-05 -8.70986e-05 -8.24405e-05 -7.64542e-05 -6.92947e-05 -6.11608e-05 -5.23178e-05 -4.31482e-05 -3.42601e-05 -2.66798e-05 -2.18729e-05 -1.85499e-05 -1.58546e-05 -1.33441e-05 -1.07948e-05 -8.09264e-06 -5.182e-06 -2.04134e-06 1.32899e-06 4.9163e-06 8.71003e-06 1.27435e-05 1.70579e-05 2.1698e-05 2.67164e-05 3.21883e-05 3.82447e-05 4.51463e-05 5.34454e-05 6.42788e-05 7.94445e-05 9.66835e-05 0.000114373 0.000131446 0.000147095 0.000160626 0.000171421 0.000178964 0.000182902 -0.000103782 -0.000101829 -9.80373e-05 -9.25205e-05 -8.54057e-05 -7.68444e-05 -6.70185e-05 -5.61554e-05 -4.45707e-05 -3.28307e-05 -2.24292e-05 -1.89044e-05 -1.69219e-05 -1.51803e-05 -1.33017e-05 -1.11535e-05 -8.68526e-06 -5.88464e-06 -2.76385e-06 6.43696e-07 4.28323e-06 8.08173e-06 1.2103e-05 1.6395e-05 2.09899e-05 2.59097e-05 3.11742e-05 3.68206e-05 4.29637e-05 5.00306e-05 5.97569e-05 7.98377e-05 0.000102087 0.000124234 0.000145269 0.000164432 0.000180993 0.000194227 0.000203486 0.000208307 -0.000117172 -0.000114876 -0.000110424 -0.000103938 -9.55506e-05 -8.54063e-05 -7.36587e-05 -6.04541e-05 -4.58805e-05 -2.97861e-05 -1.10482e-05 -1.41313e-05 -1.4806e-05 -1.44094e-05 -1.33069e-05 -1.162e-05 -9.40637e-06 -6.7103e-06 -3.58152e-06 -8.66981e-08 3.67148e-06 7.40936e-06 1.13661e-05 1.55985e-05 2.01205e-05 2.4914e-05 2.99227e-05 3.50263e-05 3.99576e-05 4.40183e-05 4.49535e-05 7.80629e-05 0.000107542 0.00013507 0.000160697 0.000183945 0.000204082 0.000220252 0.000231608 0.000237517 -0.000132318 -0.00012964 -0.000124449 -0.000116886 -0.000107092 -9.52143e-05 -8.13967e-05 -6.57573e-05 -4.83374e-05 -2.89966e-05 -7.24628e-06 -1.1407e-05 -1.34231e-05 -1.40246e-05 -1.35925e-05 -1.23233e-05 -1.03316e-05 -7.70062e-06 -4.50588e-06 -8.28751e-07 3.23581e-06 6.75337e-06 1.05809e-05 1.47318e-05 1.91897e-05 2.39008e-05 2.87574e-05 3.35606e-05 3.79399e-05 4.11878e-05 4.1998e-05 7.99044e-05 0.000114867 0.000147596 0.000178103 0.000205914 0.000230197 0.000249874 0.000263799 0.000271057 -0.000149425 -0.00014632 -0.000140309 -0.000131557 -0.000120225 -0.000106476 -9.04711e-05 -7.23511e-05 -5.22163e-05 -3.01039e-05 -6.02236e-06 -1.03513e-05 -1.30056e-05 -1.42475e-05 -1.431e-05 -1.33616e-05 -1.15247e-05 -8.89731e-06 -5.56769e-06 -1.62454e-06 2.83837e-06 6.09647e-06 9.77015e-06 1.3844e-05 1.82785e-05 2.29992e-05 2.78814e-05 3.27246e-05 3.72144e-05 4.08854e-05 4.31632e-05 8.46928e-05 0.00012434 0.000162087 0.000197682 0.000230509 0.000259553 0.00028342 0.000300514 0.000309468 -0.000168702 -0.000165121 -0.0001582 -0.000148138 -0.000135124 -0.000119354 -0.000101022 -8.032e-05 -5.74266e-05 -3.25225e-05 -5.84237e-06 -1.03564e-05 -1.34187e-05 -1.50957e-05 -1.55096e-05 -1.47824e-05 -1.30229e-05 -1.03289e-05 -6.79222e-06 -2.5046e-06 2.4385e-06 5.42634e-06 8.94653e-06 1.29674e-05 1.74363e-05 2.22723e-05 2.73567e-05 3.25212e-05 3.75389e-05 4.21346e-05 4.60542e-05 9.14242e-05 0.000135666 0.000178474 0.000219416 0.000257744 0.000292237 0.000321115 0.000342156 0.00035328 -0.000190367 -0.000186252 -0.000178316 -0.000166801 -0.000151938 -0.000133965 -0.000113125 -8.96624e-05 -6.38272e-05 -3.58891e-05 -6.17466e-06 -1.10373e-05 -1.44775e-05 -1.65011e-05 -1.71746e-05 -1.65872e-05 -1.48327e-05 -1.20032e-05 -8.18901e-06 -3.48121e-06 2.02517e-06 4.74065e-06 8.11994e-06 1.21212e-05 1.66855e-05 2.17338e-05 2.71626e-05 3.28411e-05 3.86142e-05 4.43181e-05 4.98216e-05 9.94446e-05 0.000148473 0.000196538 0.000243145 0.000287482 0.000328177 0.000363042 0.000389037 0.000402986 -0.000214646 -0.000209926 -0.000200848 -0.000187707 -0.000170792 -0.000150395 -0.000126815 -0.00010035 -7.13055e-05 -4.0004e-05 -6.80789e-06 -1.21748e-05 -1.6029e-05 -1.83714e-05 -1.92514e-05 -1.87435e-05 -1.69325e-05 -1.39055e-05 -9.74931e-06 -4.55123e-06 1.59827e-06 4.04443e-06 7.3014e-06 1.13188e-05 1.60344e-05 2.13738e-05 2.72499e-05 3.35639e-05 4.02102e-05 4.70871e-05 5.41127e-05 0.000108362 0.000162441 0.000216017 0.000268623 0.000319472 0.000367141 0.000409099 0.000441328 0.000459014 -0.000241775 -0.000236361 -0.000225979 -0.000210999 -0.000191783 -0.000168695 -0.000142096 -0.00011234 -7.97746e-05 -4.47516e-05 -7.64355e-06 -1.36378e-05 -1.79538e-05 -2.06114e-05 -2.16659e-05 -2.11926e-05 -1.92751e-05 -1.59985e-05 -1.14458e-05 -5.69791e-06 1.16367e-06 3.3495e-06 6.50661e-06 1.05751e-05 1.54893e-05 2.11792e-05 2.75719e-05 3.45932e-05 4.21714e-05 5.02422e-05 5.87507e-05 0.000117924 0.000177309 0.00023665 0.000295564 0.000353375 0.000408745 0.000458968 0.000499001 0.000521681 -0.000272001 -0.000265777 -0.000253883 -0.000236793 -0.000214972 -0.000188875 -0.000158937 -0.000125569 -8.91507e-05 -5.00485e-05 -8.62509e-06 -1.53361e-05 -2.01507e-05 -2.31223e-05 -2.4327e-05 -2.38525e-05 -2.17886e-05 -1.82218e-05 -1.32316e-05 -6.8909e-06 7.3258e-07 2.67562e-06 5.75966e-06 9.91262e-06 1.50638e-05 2.11461e-05 2.80977e-05 3.58633e-05 4.43965e-05 5.36607e-05 6.3624e-05 0.000127945 0.000192847 0.000258172 0.00032366 0.000388803 0.000452486 0.0005121 0.000561753 0.000591142 -0.000305587 -0.000298393 -0.000284711 -0.000265164 -0.000240361 -0.000210878 -0.000177243 -0.000139923 -9.93252e-05 -5.58098e-05 -9.7096e-06 -1.71914e-05 -2.25202e-05 -2.57945e-05 -2.71235e-05 -2.66161e-05 -2.43746e-05 -2.04899e-05 -1.5039e-05 -8.08491e-06 3.22417e-07 2.0525e-06 5.09634e-06 9.36622e-06 1.47845e-05 2.12852e-05 2.88152e-05 3.7335e-05 4.68193e-05 5.72562e-05 6.86403e-05 0.00013825 0.000208816 0.000280296 0.000352565 0.00042532 0.000497772 0.000567723 0.000628939 0.000667321 -0.000342806 -0.000334418 -0.000318568 -0.000296108 -0.000267852 -0.000234542 -0.000196819 -0.000155209 -0.000110132 -6.19222e-05 -1.08531e-05 -1.91197e-05 -2.49485e-05 -2.84972e-05 -2.99174e-05 -2.93469e-05 -2.69049e-05 -2.26896e-05 -1.67765e-05 -9.2176e-06 -4.17938e-08 1.52193e-06 4.56648e-06 8.98546e-06 1.46929e-05 2.16231e-05 2.97306e-05 3.89896e-05 4.93942e-05 6.09578e-05 7.37059e-05 0.000148654 0.000224946 0.000302669 0.000381857 0.00046242 0.000543936 0.000624882 0.000699505 0.000749828 -0.000383939 -0.000374025 -0.000355469 -0.00032948 -0.000297181 -0.000259536 -0.000217317 -0.000171103 -0.00012131 -6.82163e-05 -1.19992e-05 -2.10149e-05 -2.72938e-05 -3.10667e-05 -3.25365e-05 -3.18741e-05 -2.92187e-05 -2.46778e-05 -1.83269e-05 -1.02075e-05 -3.25935e-07 1.13908e-06 4.23446e-06 8.83412e-06 1.48442e-05 2.21999e-05 3.08631e-05 4.0821e-05 5.20865e-05 6.46981e-05 7.87159e-05 0.000158938 0.000240903 0.000324848 0.000410987 0.000499456 0.000590196 0.000682463 0.000771939 0.000837852 -0.000429263 -0.000417301 -0.000395246 -0.000364895 -0.000327821 -0.00028527 -0.000238155 -0.000187092 -0.000132457 -7.44359e-05 -1.30677e-05 -2.27341e-05 -2.93726e-05 -3.3299e-05 -3.47705e-05 -3.39924e-05 -3.11243e-05 -2.6284e-05 -1.95492e-05 -1.09546e-05 -4.86162e-07 9.71402e-07 4.17582e-06 8.98465e-06 1.52999e-05 2.30603e-05 3.2236e-05 4.28269e-05 5.48629e-05 6.84056e-05 8.35502e-05 0.000168848 0.000256282 0.00034627 0.000439234 0.000535569 0.000635555 0.00073919 0.000844222 0.000930023 -0.000479006 -0.000464135 -0.000437385 -0.00040154 -0.000358812 -0.00031077 -0.000258435 -0.000202409 -0.000142982 -8.02068e-05 -1.39415e-05 -2.40855e-05 -3.09547e-05 -3.49503e-05 -3.63788e-05 -3.54739e-05 -3.24125e-05 -2.73232e-05 -2.02896e-05 -1.13466e-05 -4.7114e-07 1.09173e-06 4.46594e-06 9.504e-06 1.61122e-05 2.42375e-05 3.38606e-05 4.49932e-05 5.7679e-05 7.19976e-05 8.80726e-05 0.000178086 0.000270605 0.000366251 0.00046569 0.00056962 0.000678674 0.000793536 0.000913773 0.00102419 -0.000533252 -0.000513946 -0.000480676 -0.000437874 -0.00038855 -0.000334536 -0.000276853 -0.00021599 -0.000152085 -8.50211e-05 -1.44577e-05 -2.48302e-05 -3.17789e-05 -3.57657e-05 -3.71251e-05 -3.61059e-05 -3.28957e-05 -2.7633e-05 -2.04125e-05 -1.12822e-05 -2.31588e-07 1.55893e-06 5.1543e-06 1.04244e-05 1.72935e-05 2.57237e-05 3.57083e-05 4.72694e-05 6.04599e-05 7.53679e-05 9.21309e-05 0.00018632 0.000283327 0.000384 0.000489267 0.000600189 0.000717758 0.000843559 0.000977397 0.00111706 -0.000591604 -0.000565012 -0.000522565 -0.000471175 -0.000414535 -0.000354451 -0.000291703 -0.000226522 -0.000158816 -8.82839e-05 -1.44232e-05 -2.47314e-05 -3.16266e-05 -3.55637e-05 -3.68665e-05 -3.57796e-05 -3.24922e-05 -2.71513e-05 -1.98685e-05 -1.07211e-05 2.54417e-07 2.37588e-06 6.21489e-06 1.16926e-05 1.87673e-05 2.74232e-05 3.76675e-05 4.95306e-05 6.30686e-05 7.83659e-05 9.55522e-05 0.000193179 0.000293848 0.000398641 0.000508745 0.000625625 0.000750569 0.000886676 0.00103136 0.0012035 -0.000651959 -0.000612777 -0.000558021 -0.00049707 -0.00043335 -0.000367985 -0.000301182 -0.000232763 -0.000162369 -8.95376e-05 -1.37178e-05 -2.37268e-05 -3.05168e-05 -3.44289e-05 -3.57341e-05 -3.46552e-05 -3.13767e-05 -2.60525e-05 -1.88143e-05 -9.78146e-06 9.27075e-07 3.41268e-06 7.46608e-06 1.30936e-05 2.02987e-05 2.90899e-05 3.94873e-05 5.15266e-05 6.52621e-05 8.07645e-05 9.81322e-05 0.000198247 0.000301529 0.000409266 0.000522858 0.00064416 0.000774643 0.00091938 0.00107193 0.00127522 -0.000705041 -0.000646071 -0.000578619 -0.000510136 -0.000441785 -0.000373397 -0.000304487 -0.000234501 -0.000162881 -8.90822e-05 -1.26325e-05 -2.23425e-05 -2.90921e-05 -3.30474e-05 -3.44182e-05 -3.34061e-05 -3.01913e-05 -2.49329e-05 -1.77787e-05 -8.88414e-06 1.54715e-06 4.29448e-06 8.47057e-06 1.4167e-05 2.14239e-05 3.0267e-05 4.07243e-05 5.28339e-05 6.66467e-05 8.22199e-05 9.96126e-05 0.000201063 0.000305718 0.000414996 0.000530438 0.000654089 0.000787733 0.000937187 0.00109622 0.00131893 0 0 0 0 0 0 0 0 0 0 0 0 0 0 0 0 0 0 0 0 0 0 0 0 0 0 0 0 0 0 0 0 0 0 0 0 0 0 0 0 -1.94752e-06 -1.93071e-06 -1.89734e-06 -1.8479e-06 -1.78312e-06 -1.70391e-06 -1.61135e-06 -1.50657e-06 -1.39079e-06 -1.26518e-06 -1.13085e-06 -9.90378e-07 -8.43088e-07 -6.89705e-07 -5.30799e-07 -3.6679e-07 -1.97961e-07 -2.44874e-08 1.53534e-07 3.36041e-07 5.22967e-07 7.1525e-07 9.11624e-07 1.11173e-06 1.31503e-06 1.52074e-06 1.72779e-06 1.93484e-06 2.14024e-06 2.34204e-06 2.53799e-06 2.73041e-06 2.91184e-06 3.07953e-06 3.23071e-06 3.36273e-06 3.47313e-06 3.55977e-06 3.62095e-06 3.655