# vtk DataFile Version 2.0
Velocidades
ASCII

DATASET STRUCTURED_GRID
DIMENSIONS   40   40   20

POINTS   32000   double
0.0125   0.0125   0.025
0.0125   0.0375   0.025
0.0125   0.0625   0.025
0.0125   0.0875   0.025
0.0125   0.1125   0.025
0.0125   0.1375   0.025
0.0125   0.1625   0.025
0.0125   0.1875   0.025
0.0125   0.2125   0.025
0.0125   0.2375   0.025
0.0125   0.2625   0.025
0.0125   0.2875   0.025
0.0125   0.3125   0.025
0.0125   0.3375   0.025
0.0125   0.3625   0.025
0.0125   0.3875   0.025
0.0125   0.4125   0.025
0.0125   0.4375   0.025
0.0125   0.4625   0.025
0.0125   0.4875   0.025
0.0125   0.5125   0.025
0.0125   0.5375   0.025
0.0125   0.5625   0.025
0.0125   0.5875   0.025
0.0125   0.6125   0.025
0.0125   0.6375   0.025
0.0125   0.6625   0.025
0.0125   0.6875   0.025
0.0125   0.7125   0.025
0.0125   0.7375   0.025
0.0125   0.7625   0.025
0.0125   0.7875   0.025
0.0125   0.8125   0.025
0.0125   0.8375   0.025
0.0125   0.8625   0.025
0.0125   0.8875   0.025
0.0125   0.9125   0.025
0.0125   0.9375   0.025
0.0125   0.9625   0.025
0.0125   0.9875   0.025
0.0375   0.0125   0.025
0.0375   0.0375   0.025
0.0375   0.0625   0.025
0.0375   0.0875   0.025
0.0375   0.1125   0.025
0.0375   0.1375   0.025
0.0375   0.1625   0.025
0.0375   0.1875   0.025
0.0375   0.2125   0.025
0.0375   0.2375   0.025
0.0375   0.2625   0.025
0.0375   0.2875   0.025
0.0375   0.3125   0.025
0.0375   0.3375   0.025
0.0375   0.3625   0.025
0.0375   0.3875   0.025
0.0375   0.4125   0.025
0.0375   0.4375   0.025
0.0375   0.4625   0.025
0.0375   0.4875   0.025
0.0375   0.5125   0.025
0.0375   0.5375   0.025
0.0375   0.5625   0.025
0.0375   0.5875   0.025
0.0375   0.6125   0.025
0.0375   0.6375   0.025
0.0375   0.6625   0.025
0.0375   0.6875   0.025
0.0375   0.7125   0.025
0.0375   0.7375   0.025
0.0375   0.7625   0.025
0.0375   0.7875   0.025
0.0375   0.8125   0.025
0.0375   0.8375   0.025
0.0375   0.8625   0.025
0.0375   0.8875   0.025
0.0375   0.9125   0.025
0.0375   0.9375   0.025
0.0375   0.9625   0.025
0.0375   0.9875   0.025
0.0625   0.0125   0.025
0.0625   0.0375   0.025
0.0625   0.0625   0.025
0.0625   0.0875   0.025
0.0625   0.1125   0.025
0.0625   0.1375   0.025
0.0625   0.1625   0.025
0.0625   0.1875   0.025
0.0625   0.2125   0.025
0.0625   0.2375   0.025
0.0625   0.2625   0.025
0.0625   0.2875   0.025
0.0625   0.3125   0.025
0.0625   0.3375   0.025
0.0625   0.3625   0.025
0.0625   0.3875   0.025
0.0625   0.4125   0.025
0.0625   0.4375   0.025
0.0625   0.4625   0.025
0.0625   0.4875   0.025
0.0625   0.5125   0.025
0.0625   0.5375   0.025
0.0625   0.5625   0.025
0.0625   0.5875   0.025
0.0625   0.6125   0.025
0.0625   0.6375   0.025
0.0625   0.6625   0.025
0.0625   0.6875   0.025
0.0625   0.7125   0.025
0.0625   0.7375   0.025
0.0625   0.7625   0.025
0.0625   0.7875   0.025
0.0625   0.8125   0.025
0.0625   0.8375   0.025
0.0625   0.8625   0.025
0.0625   0.8875   0.025
0.0625   0.9125   0.025
0.0625   0.9375   0.025
0.0625   0.9625   0.025
0.0625   0.9875   0.025
0.0875   0.0125   0.025
0.0875   0.0375   0.025
0.0875   0.0625   0.025
0.0875   0.0875   0.025
0.0875   0.1125   0.025
0.0875   0.1375   0.025
0.0875   0.1625   0.025
0.0875   0.1875   0.025
0.0875   0.2125   0.025
0.0875   0.2375   0.025
0.0875   0.2625   0.025
0.0875   0.2875   0.025
0.0875   0.3125   0.025
0.0875   0.3375   0.025
0.0875   0.3625   0.025
0.0875   0.3875   0.025
0.0875   0.4125   0.025
0.0875   0.4375   0.025
0.0875   0.4625   0.025
0.0875   0.4875   0.025
0.0875   0.5125   0.025
0.0875   0.5375   0.025
0.0875   0.5625   0.025
0.0875   0.5875   0.025
0.0875   0.6125   0.025
0.0875   0.6375   0.025
0.0875   0.6625   0.025
0.0875   0.6875   0.025
0.0875   0.7125   0.025
0.0875   0.7375   0.025
0.0875   0.7625   0.025
0.0875   0.7875   0.025
0.0875   0.8125   0.025
0.0875   0.8375   0.025
0.0875   0.8625   0.025
0.0875   0.8875   0.025
0.0875   0.9125   0.025
0.0875   0.9375   0.025
0.0875   0.9625   0.025
0.0875   0.9875   0.025
0.1125   0.0125   0.025
0.1125   0.0375   0.025
0.1125   0.0625   0.025
0.1125   0.0875   0.025
0.1125   0.1125   0.025
0.1125   0.1375   0.025
0.1125   0.1625   0.025
0.1125   0.1875   0.025
0.1125   0.2125   0.025
0.1125   0.2375   0.025
0.1125   0.2625   0.025
0.1125   0.2875   0.025
0.1125   0.3125   0.025
0.1125   0.3375   0.025
0.1125   0.3625   0.025
0.1125   0.3875   0.025
0.1125   0.4125   0.025
0.1125   0.4375   0.025
0.1125   0.4625   0.025
0.1125   0.4875   0.025
0.1125   0.5125   0.025
0.1125   0.5375   0.025
0.1125   0.5625   0.025
0.1125   0.5875   0.025
0.1125   0.6125   0.025
0.1125   0.6375   0.025
0.1125   0.6625   0.025
0.1125   0.6875   0.025
0.1125   0.7125   0.025
0.1125   0.7375   0.025
0.1125   0.7625   0.025
0.1125   0.7875   0.025
0.1125   0.8125   0.025
0.1125   0.8375   0.025
0.1125   0.8625   0.025
0.1125   0.8875   0.025
0.1125   0.9125   0.025
0.1125   0.9375   0.025
0.1125   0.9625   0.025
0.1125   0.9875   0.025
0.1375   0.0125   0.025
0.1375   0.0375   0.025
0.1375   0.0625   0.025
0.1375   0.0875   0.025
0.1375   0.1125   0.025
0.1375   0.1375   0.025
0.1375   0.1625   0.025
0.1375   0.1875   0.025
0.1375   0.2125   0.025
0.1375   0.2375   0.025
0.1375   0.2625   0.025
0.1375   0.2875   0.025
0.1375   0.3125   0.025
0.1375   0.3375   0.025
0.1375   0.3625   0.025
0.1375   0.3875   0.025
0.1375   0.4125   0.025
0.1375   0.4375   0.025
0.1375   0.4625   0.025
0.1375   0.4875   0.025
0.1375   0.5125   0.025
0.1375   0.5375   0.025
0.1375   0.5625   0.025
0.1375   0.5875   0.025
0.1375   0.6125   0.025
0.1375   0.6375   0.025
0.1375   0.6625   0.025
0.1375   0.6875   0.025
0.1375   0.7125   0.025
0.1375   0.7375   0.025
0.1375   0.7625   0.025
0.1375   0.7875   0.025
0.1375   0.8125   0.025
0.1375   0.8375   0.025
0.1375   0.8625   0.025
0.1375   0.8875   0.025
0.1375   0.9125   0.025
0.1375   0.9375   0.025
0.1375   0.9625   0.025
0.1375   0.9875   0.025
0.1625   0.0125   0.025
0.1625   0.0375   0.025
0.1625   0.0625   0.025
0.1625   0.0875   0.025
0.1625   0.1125   0.025
0.1625   0.1375   0.025
0.1625   0.1625   0.025
0.1625   0.1875   0.025
0.1625   0.2125   0.025
0.1625   0.2375   0.025
0.1625   0.2625   0.025
0.1625   0.2875   0.025
0.1625   0.3125   0.025
0.1625   0.3375   0.025
0.1625   0.3625   0.025
0.1625   0.3875   0.025
0.1625   0.4125   0.025
0.1625   0.4375   0.025
0.1625   0.4625   0.025
0.1625   0.4875   0.025
0.1625   0.5125   0.025
0.1625   0.5375   0.025
0.1625   0.5625   0.025
0.1625   0.5875   0.025
0.1625   0.6125   0.025
0.1625   0.6375   0.025
0.1625   0.6625   0.025
0.1625   0.6875   0.025
0.1625   0.7125   0.025
0.1625   0.7375   0.025
0.1625   0.7625   0.025
0.1625   0.7875   0.025
0.1625   0.8125   0.025
0.1625   0.8375   0.025
0.1625   0.8625   0.025
0.1625   0.8875   0.025
0.1625   0.9125   0.025
0.1625   0.9375   0.025
0.1625   0.9625   0.025
0.1625   0.9875   0.025
0.1875   0.0125   0.025
0.1875   0.0375   0.025
0.1875   0.0625   0.025
0.1875   0.0875   0.025
0.1875   0.1125   0.025
0.1875   0.1375   0.025
0.1875   0.1625   0.025
0.1875   0.1875   0.025
0.1875   0.2125   0.025
0.1875   0.2375   0.025
0.1875   0.2625   0.025
0.1875   0.2875   0.025
0.1875   0.3125   0.025
0.1875   0.3375   0.025
0.1875   0.3625   0.025
0.1875   0.3875   0.025
0.1875   0.4125   0.025
0.1875   0.4375   0.025
0.1875   0.4625   0.025
0.1875   0.4875   0.025
0.1875   0.5125   0.025
0.1875   0.5375   0.025
0.1875   0.5625   0.025
0.1875   0.5875   0.025
0.1875   0.6125   0.025
0.1875   0.6375   0.025
0.1875   0.6625   0.025
0.1875   0.6875   0.025
0.1875   0.7125   0.025
0.1875   0.7375   0.025
0.1875   0.7625   0.025
0.1875   0.7875   0.025
0.1875   0.8125   0.025
0.1875   0.8375   0.025
0.1875   0.8625   0.025
0.1875   0.8875   0.025
0.1875   0.9125   0.025
0.1875   0.9375   0.025
0.1875   0.9625   0.025
0.1875   0.9875   0.025
0.2125   0.0125   0.025
0.2125   0.0375   0.025
0.2125   0.0625   0.025
0.2125   0.0875   0.025
0.2125   0.1125   0.025
0.2125   0.1375   0.025
0.2125   0.1625   0.025
0.2125   0.1875   0.025
0.2125   0.2125   0.025
0.2125   0.2375   0.025
0.2125   0.2625   0.025
0.2125   0.2875   0.025
0.2125   0.3125   0.025
0.2125   0.3375   0.025
0.2125   0.3625   0.025
0.2125   0.3875   0.025
0.2125   0.4125   0.025
0.2125   0.4375   0.025
0.2125   0.4625   0.025
0.2125   0.4875   0.025
0.2125   0.5125   0.025
0.2125   0.5375   0.025
0.2125   0.5625   0.025
0.2125   0.5875   0.025
0.2125   0.6125   0.025
0.2125   0.6375   0.025
0.2125   0.6625   0.025
0.2125   0.6875   0.025
0.2125   0.7125   0.025
0.2125   0.7375   0.025
0.2125   0.7625   0.025
0.2125   0.7875   0.025
0.2125   0.8125   0.025
0.2125   0.8375   0.025
0.2125   0.8625   0.025
0.2125   0.8875   0.025
0.2125   0.9125   0.025
0.2125   0.9375   0.025
0.2125   0.9625   0.025
0.2125   0.9875   0.025
0.2375   0.0125   0.025
0.2375   0.0375   0.025
0.2375   0.0625   0.025
0.2375   0.0875   0.025
0.2375   0.1125   0.025
0.2375   0.1375   0.025
0.2375   0.1625   0.025
0.2375   0.1875   0.025
0.2375   0.2125   0.025
0.2375   0.2375   0.025
0.2375   0.2625   0.025
0.2375   0.2875   0.025
0.2375   0.3125   0.025
0.2375   0.3375   0.025
0.2375   0.3625   0.025
0.2375   0.3875   0.025
0.2375   0.4125   0.025
0.2375   0.4375   0.025
0.2375   0.4625   0.025
0.2375   0.4875   0.025
0.2375   0.5125   0.025
0.2375   0.5375   0.025
0.2375   0.5625   0.025
0.2375   0.5875   0.025
0.2375   0.6125   0.025
0.2375   0.6375   0.025
0.2375   0.6625   0.025
0.2375   0.6875   0.025
0.2375   0.7125   0.025
0.2375   0.7375   0.025
0.2375   0.7625   0.025
0.2375   0.7875   0.025
0.2375   0.8125   0.025
0.2375   0.8375   0.025
0.2375   0.8625   0.025
0.2375   0.8875   0.025
0.2375   0.9125   0.025
0.2375   0.9375   0.025
0.2375   0.9625   0.025
0.2375   0.9875   0.025
0.2625   0.0125   0.025
0.2625   0.0375   0.025
0.2625   0.0625   0.025
0.2625   0.0875   0.025
0.2625   0.1125   0.025
0.2625   0.1375   0.025
0.2625   0.1625   0.025
0.2625   0.1875   0.025
0.2625   0.2125   0.025
0.2625   0.2375   0.025
0.2625   0.2625   0.025
[...]
POINT_DATA   32000
VECTORS Velocidades double

6.50076e-05 0.00121295 0
0.000254518 0.00217083 0
0.000152296 0.00176082 0
-3.12783e-07 0.00159973 0
-0.00015007 0.00173199 0
-0.000287278 0.00213974 0
-0.000411675 0.00279579 0
-0.000524565 0.00367454 0
-0.000627114 0.0047533 0
-0.00072007 0.00601168 0
-0.000803773 0.00743068 0
-0.000878226 0.00899193 0
-0.000943177 0.0106771 0
-0.000998197 0.0124673 0
-0.00104278 0.0143433 0
-0.00107643 0.0162847 0
-0.0010988 0.0182709 0
-0.00110978 0.0202809 0
-0.0011097 0.0222942 0
-0.00109938 0.0242917 0
-0.00108041 0.0262571 0
-0.00105524 0.0281781 0
-0.00102752 0.0300488 0
-0.00100237 0.0318718 0
-0.000986856 0.0336623 0
-0.000990798 0.0354521 0
-0.00102787 0.0372961 0
-0.00111749 0.0392825 0
-0.00128778 0.0415462 0
-0.00158035 0.0442917 0
-0.00205801 0.0478278 0
-0.00281744 0.0526226 0
-0.00401009 0.0593932 0
-0.00587628 0.0692505 0
-0.00879495 0.0839292 0
-0.0133173 0.106102 0
-0.0199251 0.139489 0
-0.0268835 0.186573 0
-0.016307 0.230243 0
0.124138 0.123427 0
0.000137577 0.00265095 0
0.000575411 0.00523519 0
0.000252704 0.00521813 0
-0.000286606 0.00554827 0
-0.000863535 0.00638225 0
-0.0014207 0.00776648 0
-0.00194107 0.00969333 0
-0.00242073 0.0121326 0
-0.00285962 0.0150454 0
-0.00325835 0.0183903 0
-0.00361709 0.0221243 0
-0.00393524 0.026204 0
-0.00421153 0.0305846 0
-0.00444416 0.0352201 0
-0.00463114 0.0400626 0
-0.00477066 0.0450628 0
-0.00486156 0.0501703 0
-0.00490384 0.055335 0
-0.0048992 0.0605079 0
-0.00485171 0.065644 0
-0.00476852 0.070705 0
-0.00466061 0.0756627 0
-0.00454385 0.0805037 0
-0.00444029 0.0852354 0
-0.00438001 0.0898927 0
-0.00440381 0.0945477 0
-0.00456724 0.099322 0
-0.00494663 0.104403 0
-0.00564804 0.110064 0
-0.00682036 0.116696 0
-0.00867383 0.124839 0
-0.0115049 0.13522 0
-0.0157256 0.148781 0
-0.0218827 0.166639 0
-0.0306055 0.189851 0
-0.0422233 0.218576 0
-0.0549932 0.249494 0
-0.057441 0.268586 0
0.00402604 0.236055 0
0.348641 0.0998435 0
7.40273e-05 0.00386591 0
0.000442413 0.00793266 0
-0.000201719 0.00853578 0
-0.00126575 0.00962826 0
-0.00246212 0.0113469 0
-0.00366178 0.0137589 0
-0.00480955 0.0168763 0
-0.00588287 0.0206779 0
-0.00687285 0.025124 0
-0.00777566 0.0301654 0
-0.00858875 0.0357475 0
-0.00930929 0.0418118 0
-0.00993365 0.0482972 0
-0.0104576 0.0551397 0
-0.0108767 0.0622723 0
-0.0111872 0.069626 0
-0.0113868 0.0771303 0
-0.011476 0.0847142 0
-0.0114588 0.0923089 0
-0.0113448 0.0998502 0
-0.0111502 0.107282 0
-0.0108994 0.114562 0
-0.0106275 0.121664 0
-0.0103826 0.128589 0
-0.0102293 0.13537 0
-0.0102531 0.142082 0
-0.0105674 0.148854 0
-0.0113219 0.155881 0
-0.0127147 0.163433 0
-0.015006 0.171873 0
-0.0185315 0.181645 0
-0.0237062 0.193254 0
-0.0309923 0.207157 0
-0.0407613 0.223514 0
-0.0528537 0.241581 0
-0.0652613 0.258391 0
-0.0702101 0.266092 0
-0.0425854 0.247891 0
0.0914636 0.178974 0
0.513645 0.0642177 0
-0.000143851 0.00500393 0
-0.000201228 0.0104564 0
-0.00135978 0.0116635 0
-0.0030677 0.0135314 0
-0.00499357 0.0161347 0
-0.0069559 0.0195213 0
-0.00886071 0.0237034 0
-0.010661 0.028664 0
-0.0123332 0.0343657 0
-0.0138648 0.0407581 0
-0.0152475 0.0477823 0
-0.0164739 0.055373 0
-0.0175366 0.0634603 0
-0.0184275 0.0719697 0
-0.0191387 0.0808229 0
-0.0196638 0.0899381 0
-0.0199986 0.0992311 0
-0.0201436 0.108616 0
-0.0201053 0.11801 0
-0.0198988 0.127331 0
-0.01955 0.136508 0
-0.0190981 0.145479 0
-0.0185986 0.154201 0
-0.0181267 0.162655 0
-0.017782 0.170849 0
-0.0176933 0.178828 0
-0.0180258 0.186682 0
-0.0189887 0.194543 0
-0.0208428 0.202588 0
-0.0239039 0.211025 0
-0.0285323 0.220056 0
-0.0350842 0.229789 0
-0.0437723 0.24007 0
-0.0543109 0.250137 0
-0.0650534 0.257983 0
-0.0709268 0.25928 0
-0.0585506 0.245922 0
0.00463242 0.205743 0
0.18989 0.129825 0
0.619864 0.0412229 0
-0.000501899 0.00606684 0
-0.00129635 0.0127923 0
-0.00317901 0.0145216 0
-0.00565579 0.0170766 0
-0.00839456 0.0204683 0
-0.0111894 0.0247092 0
-0.0139197 0.0297968 0
-0.0165169 0.03571 0
-0.0189421 0.0424113 0
-0.021172 0.0498509 0
-0.0231904 0.0579693 0
-0.0249838 0.0666996 0
-0.0265391 0.0759684 0
-0.0278433 0.0856964 0
-0.0288838 0.0957992 0
-0.0296499 0.106187 0
-0.0301346 0.116767 0
-0.030337 0.127442 0
-0.0302646 0.138117 0
-0.0299367 0.148694 0
-0.029387 0.159085 0
-0.0286672 0.169208 0
-0.0278501 0.178996 0
-0.0270338 0.188396 0
-0.0263457 0.197381 0
-0.0259469 0.205945 0
-0.0260368 0.214108 0
-0.0268562 0.22191 0
-0.0286849 0.229397 0
-0.0318278 0.236592 0
-0.0365702 0.243439 0
-0.0430684 0.249695 0
-0.0511007 0.254749 0
-0.0595278 0.257306 0
-0.0651471 0.254908 0
-0.0603262 0.243312 0
-0.0283536 0.216177 0
0.064537 0.166735 0
0.277984 0.0954393 0
0.689367 0.0276058 0
-0.000976119 0.00702571 0
-0.00276371 0.0148795 0
-0.0055568 0.0170328 0
-0.00891924 0.0201522 0
-0.0125402 0.0241953 0
-0.0162116 0.0291374 0
-0.0198005 0.0349549 0
-0.0232245 0.0416167 0
-0.0264327 0.0490826 0
-0.0293916 0.0573027 0
-0.0320767 0.0662187 0
-0.0344672 0.0757647 0
-0.0365433 0.0858673 0
-0.0382856 0.0964463 0
-0.0396751 0.107415 0
-0.0406954 0.118678 0
-0.0413348 0.130138 0
-0.0415886 0.141688 0
-0.0414633 0.153221 0
-0.0409792 0.164626 0
-0.0401747 0.175796 0
-0.0391094 0.186627 0
-0.037868 0.197022 0
-0.0365639 0.206894 0
-0.035342 0.21617 0
-0.0343815 0.224786 0
-0.033896 0.232687 0
-0.0341298 0.239814 0
-0.035344 0.24609 0
-0.0377824 0.251375 0
-0.0415938 0.255415 0
-0.0466683 0.257734 0
-0.0523049 0.257481 0
-0.0565521 0.253197 0
-0.0549455 0.242516 0
-0.0381994 0.221955 0
0.0116121 0.18728 0
0.126008 0.135758 0
0.352041 0.0722882 0
0.737035 0.0194625 0
-0.00154125 0.0078506 0
-0.00452302 0.0166593 0
-0.00837668 0.0191389 0
-0.0127221 0.0226938 0
-0.0172802 0.02724 0
-0.0218553 0.0327201 0
-0.0263149 0.0390887 0
-0.0305715 0.0463033 0
-0.0345669 0.0543188 0
-0.0382602 0.0630848 0
-0.0416193 0.0725449 0
-0.0446161 0.0826355 0
-0.0472232 0.0932857 0
-0.0494132 0.104416 0
-0.0511595 0.11594 0
-0.0524377 0.127761 0
-0.0532289 0.139775 0
-0.0535225 0.151869 0
-0.0533203 0.163924 0
-0.0526402 0.175818 0
-0.0515207 0.187422 0
-0.0500245 0.198611 0
-0.0482416 0.209257 0
-0.0462927 0.219239 0
-0.0443301 0.228436 0
-0.0425378 0.236731 0
-0.0411269 0.243998 0
-0.0403249 0.250098 0
-0.0403499 0.25485 0
-0.0413587 0.258003 0
-0.0433418 0.259176 0
-0.0459201 0.257781 0
-0.0479575 0.252901 0
-0.0468473 0.243139 0
-0.0372543 0.226484 0
-0.00906455 0.20036 0
0.0554658 0.162314 0
0.184268 0.112187 0
0.413584 0.0565858 0
0.771464 0.0144234 0
-0.00217371 0.00851797 0
-0.00649899 0.018088 0
-0.011525 0.0208024 0
-0.0169257 0.0246695 0
-0.0224594 0.0295734 0
-0.0279516 0.0354307 0
-0.0332801 0.0421775 0
-0.03836 0.0497603 0
-0.0431314 0.0581293 0
-0.0475491 0.0672337 0
-0.0515754 0.0770195 0
-0.0551748 0.0874267 0
-0.058312 0.0983878 0
-0.0609506 0.109827 0
-0.0630541 0.121657 0
-0.0645885 0.133782 0
-0.0655247 0.146093 0
-0.0658429 0.158472 0
-0.065537 0.170791 0
-0.0646185 0.182911 0
-0.0631216 0.194688 0
-0.0611068 0.205972 0
-0.0586636 0.21661 0
-0.0559128 0.226445 0
-0.053006 0.235318 0
-0.0501223 0.243062 0
-0.0474598 0.249498 0
-0.0452173 0.254423 0
-0.0435598 0.25759 0
-0.0425514 0.258678 0
-0.0420312 0.257251 0
-0.0413824 0.252689 0
-0.0391172 0.244118 0
-0.0321547 0.230316 0
-0.0146425 0.209695 0
0.0237595 0.180501 0
0.0998465 0.141598 0
0.237737 0.0943314 0
0.465071 0.0456759 0
0.797552 0.0111711 0
-0.00285249 0.00901138 0
-0.00862354 0.0191363 0
-0.0148966 0.0220028 0
-0.0213987 0.0260682 0
-0.0279281 0.0311935 0
-0.034338 0.0372759 0
-0.0405231 0.0442375 0
-0.0464074 0.0520164 0
-0.0519345 0.0605597 0
-0.0570583 0.0698173 0
-0.0617371 0.0797384 0
-0.0659292 0.0902675 0
-0.0695905 0.101342 0
-0.0726745 0.112889 0
-0.0751334 0.124824 0
-0.0769205 0.137052 0
-0.0779941 0.149461 0
-0.0783219 0.161926 0
-0.0778861 0.174311 0
-0.0766883 0.186464 0
-0.0747539 0.198224 0
-0.0721367 0.20942 0
-0.068921 0.219874 0
-0.0652226 0.229401 0
-0.0611868 0.237807 0
-0.0569823 0.244889 0
-0.0527888 0.250429 0
-0.0487734 0.254182 0
-0.0450478 0.255863 0
-0.0415913 0.25512 0
-0.0381119 0.251505 0
-0.0338009 0.244425 0
-0.0269075 0.233098 0
-0.0140389 0.216511 0
0.0108998 0.193476 0
0.0580826 0.162905 0
0.143002 0.124573 0
0.286214 0.080645 0
0.508697 0.0378573 0
0.81815 0.00897581 0
-0.0035592 0.00932028 0
-0.0108362 0.0197868 0
-0.0183965 0.0227312 0
-0.0260199 0.0268909 0
-0.0335467 0.0321115 0
-0.0408617 0.038277 0
-0.0478817 0.0453006 0
-0.0545451 0.0531158 0
-0.0608025 0.0616688 0
-0.0666102 0.0709122 0
-0.0719243 0.0807996 0
-0.0766971 0.0912813 0
-0.0808759 0.1023 0
-0.0844027 0.113789 0
-0.0872162 0.125666 0
-0.0892548 0.137835 0
-0.0904611 0.150185 0
-0.0907871 0.162586 0
-0.0901999 0.174891 0
-0.0886871 0.186939 0
-0.0862623 0.198551 0
-0.0829687 0.20954 0
-0.0788819 0.219705 0
-0.0741094 0.228838 0
-0.0687877 0.236718 0
-0.063073 0.243118 0
-0.0571264 0.247792 0
-0.0510852 0.250473 0
-0.0450143 0.250859 0
-0.0388215 0.248594 0
-0.0321101 0.243248 0
-0.0239249 0.23428 0
-0.0123312 0.221018 0
0.00624477 0.202654 0
0.0379435 0.178341 0
0.0925366 0.147498 0
0.184098 0.110511 0
0.330028 0.0699463 0
0.546172 0.0320626 0
0.834964 0.00742564 0
-0.00427773 0.00943854 0
-0.0130831 0.0200302 0
-0.0219389 0.0229851 0
-0.0306781 0.0271443 0
-0.0391852 0.0323435 0
-0.0473799 0.0384599 0
-0.055205 0.0454027 0
-0.0626165 0.0531048 0
-0.0695761 0.0615148 0
-0.0760444 0.0705902 0
-0.0819767 0.0802911 0
-0.0873201 0.0905746 0
-0.0920125 0.101391 0
-0.095983 0.112678 0
-0.0991549 0.124359 0
-0.101449 0.13634 0
-0.10279 0.148508 0
-0.10311 0.160728 0
-0.102357 0.172848 0
-0.100504 0.184694 0
-0.0975467 0.196076 0
-0.093517 0.206789 0
-0.0884789 0.216616 0
-0.0825306 0.225328 0
-0.0757987 0.232687 0
-0.0684284 0.238447 0
-0.0605643 0.242349 0
-0.0523193 0.244115 0
-0.043721 0.243442 0
-0.0346213 0.239989 0
-0.0245434 0.233353 0
-0.0124263 0.22306 0
0.00378394 0.208544 0
0.0277425 0.18918 0
0.0655001 0.164398 0
0.126294 0.133994 0
0.222787 0.0987477 0
0.369654 0.0613857 0
0.578769 0.0276187 0
0.849048 0.00628184 0
-0.00499361 0.00936322 0
-0.0153156 0.0198625 0
-0.0254454 0.0227662 0
-0.0352708 0.0268365 0
-0.0447229 0.0319055 0
-0.0537591 0.0378487 0
-0.0623511 0.0445763 0
-0.0704757 0.0520247 0
-0.0781075 0.0601485 0
-0.0852136 0.0689125 0
-0.0917493 0.0782852 0
-0.0976567 0.0882328 0
-0.102863 0.0987135 0
-0.107284 0.109673 0
-0.110826 0.121039 0
-0.113388 0.132721 0
-0.114873 0.144606 0
-0.115192 0.156556 0
-0.114273 0.168413 0
-0.112065 0.179994 0
-0.10855 0.191097 0
-0.103742 0.201504 0
-0.0976944 0.210983 0
-0.0904956 0.219291 0
-0.0822638 0.226178 0
-0.0731351 0.231385 0
-0.0632426 0.234647 0
-0.0526813 0.235687 0
-0.0414515 0.234209 0
-0.0293637 0.229892 0
-0.0158831 0.222372 0
0.000123821 0.211235 0
0.0207791 0.196017 0
0.049746 0.176245 0
0.0928949 0.151568 0
0.158862 0.122057 0
0.258972 0.0887392 0
0.405564 0.0543616 0
0.607415 0.0240944 0
0.861072 0.00540179 0
-0.00569347 0.00909388 0
-0.0174886 0.0192844 0
-0.0288429 0.0220781 0
-0.0397021 0.0259764 0
-0.0500465 0.0308121 0
-0.0598735 0.0364643 0
-0.0691864 0.042849 0
-0.0779846 0.0499105 0
-0.0862575 0.057612 0
-0.0939797 0.0659288 0
-0.101107 0.07484 0
-0.107576 0.0843224 0
-0.113304 0.094344 0
-0.11819 0.104859 0
-0.12212 0.115803 0
-0.124972 0.127088 0
-0.126623 0.138603 0
-0.126961 0.15021 0
-0.125886 0.161744 0
-0.123326 0.173016 0
-0.119244 0.183816 0
-0.113637 0.193913 0
-0.106546 0.203064 0
-0.0980511 0.211016 0
-0.0882633 0.217508 0
-0.0773138 0.222276 0
-0.065329 0.225054 0
-0.0523931 0.225569 0
-0.0384883 0.22354 0
-0.0233968 0.218665 0
-0.00654371 0.210621 0
0.0132502 0.19905 0
0.0381359 0.183575 0
0.0717305 0.163847 0
0.119665 0.139688 0
0.189953 0.111364 0
0.292671 0.0800549 0
0.438169 0.0484469 0
0.632788 0.0212065 0
0.871476 0.0046974 0
-0.00636438 0.00863227 0
-0.0195589 0.0182998 0
-0.0320618 0.020927 0
-0.0438807 0.024573 0
-0.0550479 0.0290767 0
-0.0656036 0.0343256 0
-0.0755837 0.0402457 0
-0.0850121 0.0467925 0
-0.0938939 0.0539418 0
-0.102212 0.0616813 0
-0.109922 0.0700029 0
-0.116956 0.078896 0
-0.123218 0.0883401 0
-0.128591 0.0982995 0
-0.132938 0.108718 0
-0.136112 0.119514 0
-0.137965 0.13058 0
-0.138352 0.141778 0
-0.137149 0.15294 0
-0.13426 0.163873 0
-0.129622 0.174358 0
-0.123218 0.184157 0
-0.115076 0.193018 0
-0.105267 0.200678 0
-0.0939006 0.206872 0
-0.0811046 0.211331 0
-0.0670043 0.213792 0
-0.0516798 0.213988 0
-0.0351031 0.211651 0
-0.0170387 0.206504 0
0.00311357 0.198256 0
0.0265575 0.186599 0
0.0554427 0.171229 0
0.0933006 0.151899 0
0.145487 0.128563 0
0.219389 0.101629 0
0.323945 0.0723577 0
0.467802 0.0433334 0
0.655377 0.0187639 0
0.880555 0.00411224 0
-0.00699348 0.00798255 0
-0.0214842 0.0169174 0
-0.0350346 0.0193222 0
-0.0477189 0.0226383 0
-0.0596242 0.0267149 0
-0.0708351 0.0314526 0
-0.0814217 0.0367915 0
-0.0914328 0.0427017 0
-0.10089 0.0491738 0
-0.109783 0.0562105 0
-0.118071 0.0638183 0
-0.125676 0.0720007 0
-0.132492 0.0807505 0
-0.138381 0.0900439 0
-0.143183 0.0998348 0
-0.146724 0.11005 0
-0.148824 0.120587 0
-0.149309 0.131311 0
-0.148025 0.142054 0
-0.144846 0.15262 0
-0.139687 0.162785 0
-0.132512 0.172306 0
-0.123338 0.180922 0
-0.112229 0.188365 0
-0.0992915 0.194365 0
-0.0846573 0.198653 0
-0.0684538 0.200966 0
-0.0507625 0.201046 0
-0.0315524 0.198636 0
-0.0105787 0.19348 0
0.0127723 0.185315 0
0.0397121 0.173875 0
0.0723648 0.158915 0
0.114148 0.140271 0
0.170119 0.117997 0
0.247057 0.0926007 0
0.352861 0.0653807 0
0.494724 0.038794 0
0.675537 0.0166334 0
0.888508 0.0036087 0
-0.00756767 0.00715158 0
-0.0232224 0.0151508 0
-0.0376955 0.0172784 0
-0.051132 0.0201888 0
-0.0636767 0.0237472 0
-0.0754593 0.0278709 0
-0.0865849 0.0325177 0
-0.097127 0.0376749 0
-0.107123 0.0433502 0
-0.116572 0.0495626 0
-0.125432 0.0563351 0
-0.133619 0.0636865 0
-0.141011 0.0716245 0
-0.147451 0.0801391 0
-0.152755 0.0891965 0
-0.156718 0.0987343 0
-0.159126 0.108658 0
-0.159774 0.118837 0
-0.158472 0.129109 0
-0.155065 0.139277 0
-0.149443 0.149115 0
-0.141551 0.158375 0
-0.131392 0.166793 0
-0.119025 0.174096 0
-0.104557 0.18001 0
-0.0881242 0.184265 0
-0.0698613 0.186598 0
-0.0498554 0.186758 0
-0.028078 0.184499 0
-0.00428184 0.179578 0
0.0221505 0.171757 0
0.0524244 0.160804 0
0.0886201 0.14652 0
0.13402 0.128807 0
0.193372 0.107796 0
0.272868 0.0840618 0
0.37947 0.0589095 0
0.519127 0.0346568 0
0.69352 0.0147188 0
0.895472 0.0031607 0
-0.00807348 0.00614957 0
-0.0247318 0.0130206 0
-0.0399804 0.0148173 0
-0.0540391 0.0172495 0
-0.0671118 0.020203 0
-0.0793737 0.0236162 0
-0.0909641 0.0274668 0
-0.101981 0.0317614 0
-0.112478 0.036526 0
-0.122461 0.0417973 0
-0.131886 0.0476153 0
-0.140665 0.0540154 0
-0.148659 0.0610217 0
-0.155691 0.0686397 0
-0.161549 0.0768504 0
-0.165998 0.0856048 0
-0.168788 0.0948195 0
-0.169678 0.104374 0
-0.168442 0.114112 0
-0.164892 0.12384 0
-0.158891 0.133334 0
-0.150363 0.142345 0
-0.139296 0.150605 0
-0.125744 0.15784 0
-0.109816 0.16377 0
-0.0916556 0.168125 0
-0.071406 0.170643 0
-0.0491641 0.171073 0
-0.024908 0.169177 0
0.00160588 0.164723 0
0.0309911 0.157489 0
0.0644353 0.147268 0
0.10396 0.133901 0
0.152696 0.11734 0
0.21508 0.0977743 0
0.296743 0.0758204 0
0.403801 0.0527674 0
0.541143 0.0307872 0
0.709499 0.0129481 0
0.901537 0.00274936 0
-0.00849726 0.00499063 0
-0.0259712 0.0105557 0
-0.0418278 0.01197 0
-0.0563641 0.0138561 0
-0.0698426 0.016125 0
-0.0824833 0.018739 0
-0.0944585 0.021698 0
-0.105889 0.0250288 0
-0.116843 0.0287761 0
-0.127333 0.0329946 0
-0.137316 0.0377417 0
-0.146694 0.0430701 0
-0.155315 0.0490214 0
-0.162981 0.0556185 0
-0.169451 0.0628596 0
-0.174456 0.0707123 0
-0.177713 0.0791086 0
-0.178939 0.0879419 0
-0.177872 0.0970661 0
-0.174288 0.106296 0
-0.168019 0.115414 0
-0.158964 0.124172 0
-0.147097 0.132304 0
-0.132467 0.13953 0
-0.115182 0.145571 0
-0.0953948 0.150152 0
-0.0732594 0.153009 0
-0.0488849 0.153891 0
-0.0222593 0.15256 0
0.00685268 0.148792 0
0.0390537 0.142375 0
0.0755041 0.133121 0
0.118154 0.120899 0
0.169973 0.1057 0
0.235084 0.0877553 0
0.318592 0.0677054 0
0.425851 0.0468051 0
0.56085 0.027077 0
0.723585 0.0112654 0
0.906761 0.00236044 0
-0.00882543 0.00369337 0
-0.0269015 0.00779463 0
-0.0431809 0.00877925 0
-0.0580377 0.010058 0
-0.0717912 0.0115717 0
-0.0847034 0.0133086 0
-0.096977 0.0152917 0
-0.108754 0.0175681 0
-0.120116 0.0202007 0
-0.131081 0.0232616 0
-0.141607 0.0268253 0
-0.151586 0.030962 0
-0.160855 0.0357313 0
-0.169192 0.0411756 0
-0.176331 0.0473128 0
-0.18197 0.0541306 0
-0.185787 0.0615809 0
-0.187459 0.0695756 0
-0.186683 0.0779847 0
-0.183196 0.0866375 0
-0.176796 0.095325 0
-0.167356 0.103807 0
-0.154831 0.111818 0
-0.139261 0.119081 0
-0.120757 0.125312 0
-0.0994749 0.130231 0
-0.0755836 0.13357 0
-0.0492046 0.135074 0
-0.0203388 0.134502 0
0.0112372 0.131631 0
0.0461087 0.126253 0
0.0854004 0.118192 0
0.13098 0.107339 0
0.185651 0.0937115 0
0.253224 0.0775689 0
0.338311 0.0595607 0
0.445587 0.0408933 0
0.57828 0.0234357 0
0.735841 0.00962573 0
0.911174 0.00198278 0
-0.00904502 0.00228123 0
-0.027487 0.00478651 0
-0.0439897 0.00530042 0
-0.0590005 0.00592042 0
-0.0728914 0.00662028 0
-0.0859619 0.00741596 0
-0.0984415 0.00835306 0
-0.110491 0.00949779 0
-0.122203 0.0109301 0
-0.133602 0.0127378 0
-0.144645 0.0150112 0
-0.155219 0.0178378 0
-0.165146 0.0212957 0
-0.174188 0.0254478 0
-0.182051 0.0303347 0
-0.1884 0.035968 0
-0.192875 0.0423239 0
-0.195113 0.0493387 0
-0.194766 0.0569052 0
-0.191531 0.0648723 0
-0.185167 0.0730473 0
-0.175514 0.0812011 0
-0.162508 0.0890761 0
-0.146175 0.0963954 0
-0.126623 0.102874 0
-0.104014 0.108226 0
-0.0785279 0.112176 0
-0.0502993 0.114461 0
-0.0193441 0.114832 0
0.0145455 0.11306 0
0.0519322 0.108938 0
0.0938969 0.102296 0
0.142218 0.0930362 0
0.199523 0.0811959 0
0.269325 0.0670497 0
0.355774 0.0512411 0
0.462939 0.0349163 0
0.59342 0.019786 0
0.746284 0.00799161 0
0.914788 0.00160732 0
-0.00914435 0.000782703 0
-0.0276978 0.00159165 0
-0.0442137 0.00160268 0
-0.0592058 0.00152513 0
-0.0730918 0.00136819 0
-0.0862025 0.0011754 0
-0.0987894 0.00101373 0
-0.111029 0.00096634 0
-0.123023 0.00112751 0
-0.134802 0.00159853 0
-0.146323 0.00248376 0
-0.157471 0.00388629 0
-0.168056 0.00590284 0
-0.177823 0.00861781 0
-0.186454 0.0120966 0
-0.193586 0.0163785 0
-0.19882 0.0214695 0
-0.201751 0.0273364 0
-0.201987 0.0339018 0
-0.199179 0.0410418 0
-0.193044 0.0485872 0
-0.183386 0.0563269 0
-0.170113 0.0640149 0
-0.153231 0.07138 0
-0.132843 0.0781358 0
-0.109112 0.0839917 0
-0.0822253 0.0886612 0
-0.0523323 0.0918691 0
-0.0194635 0.0933556 0
0.0165696 0.0928802 0
0.0563023 0.0902293 0
0.100765 0.0852325 0
0.151638 0.0777976 0
0.211375 0.067972 0
0.283196 0.0560341 0
0.370827 0.0426083 0
0.477806 0.0287678 0
0.606218 0.0160587 0
0.754898 0.00633069 0
0.917597 0.00122641 0
-0.00911386 -0.000768796 0
-0.0275113 -0.00171865 0
-0.0438247 -0.00223119 0
-0.058623 -0.00302921 0
-0.0723594 -0.00406714 0
-0.0853885 -0.00527511 0
-0.0979777 -0.00656738 0
-0.110315 -0.00784711 0
-0.122511 -0.00900916 0
-0.134601 -0.00994212 0
-0.146546 -0.0105305 0
-0.158226 -0.0106574 0
-0.169449 -0.0102088 0
-0.179943 -0.00907835 0
-0.189375 -0.00717407 0
-0.19735 -0.00442558 0
-0.203439 -0.000791988 0
-0.207193 0.00373048 0
-0.208175 0.00910204 0
-0.205988 0.0152349 0
-0.200302 0.0219919 0
-0.190879 0.029188 0
-0.177589 0.0365962 0
-0.160417 0.0439556 0
-0.139446 0.0509821 0
-0.11484 0.0573796 0
-0.0867878 0.0628503 0
-0.0554506 0.0671036 0
-0.0208749 0.0698629 0
0.0171069 0.0708721 0
0.0589972 0.0699053 0
0.105769 0.0667853 0
0.159003 0.0614182 0
0.220972 0.0538518 0
0.294621 0.0443575 0
0.383287 0.0335268 0
0.490048 0.022347 0
0.616583 0.0121905 0
0.761634 0.00461402 0
0.919582 0.000833335 0
-0.00894705 -0.00233544 0
-0.0269152 -0.00506313 0
-0.04281 -0.00610585 0
-0.0572404 -0.00762838 0
-0.0706827 -0.00954943 0
-0.0835055 -0.0117754 0
-0.0959857 -0.0142056 0
-0.108319 -0.0167337 0
-0.120622 -0.019248 0
-0.132937 -0.0216312 0
-0.145228 -0.0237604 0
-0.157379 -0.0255082 0
-0.169193 -0.0267449 0
-0.180395 -0.0273432 0
-0.190635 -0.0271836 0
-0.199498 -0.0261621 0
-0.206524 -0.0241984 0
-0.211226 -0.0212449 0
-0.213121 -0.0172957 0