# vtk DataFile Version 2.0
Presion
ASCII

DATASET STRUCTURED_GRID
DIMENSIONS   40   40   20

POINTS   32000   double
0.0125   0.0125   0.025
0.0375   0.0125   0.025
0.0625   0.0125   0.025
0.0875   0.0125   0.025
0.1125   0.0125   0.025
0.1375   0.0125   0.025
0.1625   0.0125   0.025
0.1875   0.0125   0.025
0.2125   0.0125   0.025
0.2375   0.0125   0.025
0.2625   0.0125   0.025
0.2875   0.0125   0.025
0.3125   0.0125   0.025
0.3375   0.0125   0.025
0.3625   0.0125   0.025
0.3875   0.0125   0.025
0.4125   0.0125   0.025
0.4375   0.0125   0.025
0.4625   0.0125   0.025
0.4875   0.0125   0.025
0.5125   0.0125   0.025
0.5375   0.0125   0.025
0.5625   0.0125   0.025
0.5875   0.0125   0.025
0.6125   0.0125   0.025
0.6375   0.0125   0.025
0.6625   0.0125   0.025
0.6875   0.0125   0.025
0.7125   0.0125   0.025
0.7375   0.0125   0.025
0.7625   0.0125   0.025
0.7875   0.0125   0.025
0.8125   0.0125   0.025
0.8375   0.0125   0.025
0.8625   0.0125   0.025
0.8875   0.0125   0.025
0.9125   0.0125   0.025
0.9375   0.0125   0.025
0.9625   0.0125   0.025
0.9875   0.0125   0.025
0.0125   0.0375   0.025
0.0375   0.0375   0.025
0.0625   0.0375   0.025
0.0875   0.0375   0.025
0.1125   0.0375   0.025
0.1375   0.0375   0.025
0.1625   0.0375   0.025
0.1875   0.0375   0.025
0.2125   0.0375   0.025
0.2375   0.0375   0.025
0.2625   0.0375   0.025
0.2875   0.0375   0.025
0.3125   0.0375   0.025
0.3375   0.0375   0.025
0.3625   0.0375   0.025
0.3875   0.0375   0.025
0.4125   0.0375   0.025
0.4375   0.0375   0.025
0.4625   0.0375   0.025
0.4875   0.0375   0.025
0.5125   0.0375   0.025
0.5375   0.0375   0.025
0.5625   0.0375   0.025
0.5875   0.0375   0.025
0.6125   0.0375   0.025
0.6375   0.0375   0.025
0.6625   0.0375   0.025
0.6875   0.0375   0.025
0.7125   0.0375   0.025
0.7375   0.0375   0.025
0.7625   0.0375   0.025
0.7875   0.0375   0.025
0.8125   0.0375   0.025
0.8375   0.0375   0.025
0.8625   0.0375   0.025
0.8875   0.0375   0.025
0.9125   0.0375   0.025
0.9375   0.0375   0.025
0.9625   0.0375   0.025
0.9875   0.0375   0.025
0.0125   0.0625   0.025
0.0375   0.0625   0.025
0.0625   0.0625   0.025
0.0875   0.0625   0.025
0.1125   0.0625   0.025
0.1375   0.0625   0.025
0.1625   0.0625   0.025
0.1875   0.0625   0.025
0.2125   0.0625   0.025
0.2375   0.0625   0.025
0.2625   0.0625   0.025
0.2875   0.0625   0.025
0.3125   0.0625   0.025
0.3375   0.0625   0.025
0.3625   0.0625   0.025
0.3875   0.0625   0.025
0.4125   0.0625   0.025
0.4375   0.0625   0.025
0.4625   0.0625   0.025
0.4875   0.0625   0.025
0.5125   0.0625   0.025
0.5375   0.0625   0.025
0.5625   0.0625   0.025
0.5875   0.0625   0.025
0.6125   0.0625   0.025
0.6375   0.0625   0.025
0.6625   0.0625   0.025
0.6875   0.0625   0.025
0.7125   0.0625   0.025
0.7375   0.0625   0.025
0.7625   0.0625   0.025
0.7875   0.0625   0.025
0.8125   0.0625   0.025
0.8375   0.0625   0.025
0.8625   0.0625   0.025
0.8875   0.0625   0.025
0.9125   0.0625   0.025
0.9375   0.0625   0.025
0.9625   0.0625   0.025
0.9875   0.0625   0.025
0.0125   0.0875   0.025
0.0375   0.0875   0.025
0.0625   0.0875   0.025
0.0875   0.0875   0.025
0.1125   0.0875   0.025
0.1375   0.0875   0.025
0.1625   0.0875   0.025
0.1875   0.0875   0.025
0.2125   0.0875   0.025
0.2375   0.0875   0.025
0.2625   0.0875   0.025
0.2875   0.0875   0.025
0.3125   0.0875   0.025
0.3375   0.0875   0.025
0.3625   0.0875   0.025
0.3875   0.0875   0.025
0.4125   0.0875   0.025
0.4375   0.0875   0.025
0.4625   0.0875   0.025
0.4875   0.0875   0.025
0.5125   0.0875   0.025
0.5375   0.0875   0.025
0.5625   0.0875   0.025
0.5875   0.0875   0.025
0.6125   0.0875   0.025
0.6375   0.0875   0.025
0.6625   0.0875   0.025
0.6875   0.0875   0.025
0.7125   0.0875   0.025
0.7375   0.0875   0.025
0.7625   0.0875   0.025
0.7875   0.0875   0.025
0.8125   0.0875   0.025
0.8375   0.0875   0.025
0.8625   0.0875   0.025
0.8875   0.0875   0.025
0.9125   0.0875   0.025
0.9375   0.0875   0.025
0.9625   0.0875   0.025
0.9875   0.0875   0.025
0.0125   0.1125   0.025
0.0375   0.1125   0.025
0.0625   0.1125   0.025
0.0875   0.1125   0.025
0.1125   0.1125   0.025
0.1375   0.1125   0.025
0.1625   0.1125   0.025
0.1875   0.1125   0.025
0.2125   0.1125   0.025
0.2375   0.1125   0.025
0.2625   0.1125   0.025
0.2875   0.1125   0.025
0.3125   0.1125   0.025
0.3375   0.1125   0.025
0.3625   0.1125   0.025
0.3875   0.1125   0.025
0.4125   0.1125   0.025
0.4375   0.1125   0.025
0.4625   0.1125   0.025
0.4875   0.1125   0.025
0.5125   0.1125   0.025
0.5375   0.1125   0.025
0.5625   0.1125   0.025
0.5875   0.1125   0.025
0.6125   0.1125   0.025
0.6375   0.1125   0.025
0.6625   0.1125   0.025
0.6875   0.1125   0.025
0.7125   0.1125   0.025
0.7375   0.1125   0.025
0.7625   0.1125   0.025
0.7875   0.1125   0.025
0.8125   0.1125   0.025
0.8375   0.1125   0.025
0.8625   0.1125   0.025
0.8875   0.1125   0.025
0.9125   0.1125   0.025
0.9375   0.1125   0.025
0.9625   0.1125   0.025
0.9875   0.1125   0.025
0.0125   0.1375   0.025
0.0375   0.1375   0.025
0.0625   0.1375   0.025
0.0875   0.1375   0.025
0.1125   0.1375   0.025
0.1375   0.1375   0.025
0.1625   0.1375   0.025
0.1875   0.1375   0.025
0.2125   0.1375   0.025
0.2375   0.1375   0.025
0.2625   0.1375   0.025
0.2875   0.1375   0.025
0.3125   0.1375   0.025
0.3375   0.1375   0.025
0.3625   0.1375   0.025
0.3875   0.1375   0.025
0.4125   0.1375   0.025
0.4375   0.1375   0.025
0.4625   0.1375   0.025
0.4875   0.1375   0.025
0.5125   0.1375   0.025
0.5375   0.1375   0.025
0.5625   0.1375   0.025
0.5875   0.1375   0.025
0.6125   0.1375   0.025
0.6375   0.1375   0.025
0.6625   0.1375   0.025
0.6875   0.1375   0.025
0.7125   0.1375   0.025
0.7375   0.1375   0.025
0.7625   0.1375   0.025
0.7875   0.1375   0.025
0.8125   0.1375   0.025
0.8375   0.1375   0.025
0.8625   0.1375   0.025
0.8875   0.1375   0.025
0.9125   0.1375   0.025
0.9375   0.1375   0.025
0.9625   0.1375   0.025
0.9875   0.1375   0.025
0.0125   0.1625   0.025
0.0375   0.1625   0.025
0.0625   0.1625   0.025
0.0875   0.1625   0.025
0.1125   0.1625   0.025
0.1375   0.1625   0.025
0.1625   0.1625   0.025
0.1875   0.1625   0.025
0.2125   0.1625   0.025
0.2375   0.1625   0.025
0.2625   0.1625   0.025
0.2875   0.1625   0.025
0.3125   0.1625   0.025
0.3375   0.1625   0.025
0.3625   0.1625   0.025
0.3875   0.1625   0.025
0.4125   0.1625   0.025
0.4375   0.1625   0.025
0.4625   0.1625   0.025
0.4875   0.1625   0.025
0.5125   0.1625   0.025
0.5375   0.1625   0.025
0.5625   0.1625   0.025
0.5875   0.1625   0.025
0.6125   0.1625   0.025
0.6375   0.1625   0.025
0.6625   0.1625   0.025
0.6875   0.1625   0.025
0.7125   0.1625   0.025
0.7375   0.1625   0.025
0.7625   0.1625   0.025
0.7875   0.1625   0.025
0.8125   0.1625   0.025
0.8375   0.1625   0.025
0.8625   0.1625   0.025
0.8875   0.1625   0.025
0.9125   0.1625   0.025
0.9375   0.1625   0.025
0.9625   0.1625   0.025
0.9875   0.1625   0.025
0.0125   0.1875   0.025
0.0375   0.1875   0.025
0.0625   0.1875   0.025
0.0875   0.1875   0.025
0.1125   0.1875   0.025
0.1375   0.1875   0.025
0.1625   0.1875   0.025
0.1875   0.1875   0.025
0.2125   0.1875   0.025
0.2375   0.1875   0.025
0.2625   0.1875   0.025
0.2875   0.1875   0.025
0.3125   0.1875   0.025
0.3375   0.1875   0.025
0.3625   0.1875   0.025
0.3875   0.1875   0.025
0.4125   0.1875   0.025
0.4375   0.1875   0.025
0.4625   0.1875   0.025
0.4875   0.1875   0.025
0.5125   0.1875   0.025
0.5375   0.1875   0.025
0.5625   0.1875   0.025
0.5875   0.1875   0.025
0.6125   0.1875   0.025
0.6375   0.1875   0.025
0.6625   0.1875   0.025
0.6875   0.1875   0.025
0.7125   0.1875   0.025
0.7375   0.1875   0.025
0.7625   0.1875   0.025
0.7875   0.1875   0.025
0.8125   0.1875   0.025
0.8375   0.1875   0.025
0.8625   0.1875   0.025
0.8875   0.1875   0.025
0.9125   0.1875   0.025
0.9375   0.1875   0.025
0.9625   0.1875   0.025
0.9875   0.1875   0.025
0.0125   0.2125   0.025
0.0375   0.2125   0.025
0.0625   0.2125   0.025
0.0875   0.2125   0.025
0.1125   0.2125   0.025
0.1375   0.2125   0.025
0.1625   0.2125   0.025
0.1875   0.2125   0.025
0.2125   0.2125   0.025
0.2375   0.2125   0.025
0.2625   0.2125   0.025
0.2875   0.2125   0.025
0.3125   0.2125   0.025
0.3375   0.2125   0.025
0.3625   0.2125   0.025
0.3875   0.2125   0.025
0.4125   0.2125   0.025
0.4375   0.2125   0.025
0.4625   0.2125   0.025
0.4875   0.2125   0.025
0.5125   0.2125   0.025
0.5375   0.2125   0.025
0.5625   0.2125   0.025
0.5875   0.2125   0.025
0.6125   0.2125   0.025
0.6375   0.2125   0.025
0.6625   0.2125   0.025
0.6875   0.2125   0.025
0.7125   0.2125   0.025
0.7375   0.2125   0.025
0.7625   0.2125   0.025
0.7875   0.2125   0.025
0.8125   0.2125   0.025
0.8375   0.2125   0.025
0.8625   0.2125   0.025
0.8875   0.2125   0.025
0.9125   0.2125   0.025
0.9375   0.2125   0.025
0.9625   0.2125   0.025
0.9875   0.2125   0.025
0.0125   0.2375   0.025
0.0375   0.2375   0.025
0.0625   0.2375   0.025
0.0875   0.2375   0.025
0.1125   0.2375   0.025
0.1375   0.2375   0.025
0.1625   0.2375   0.025
0.1875   0.2375   0.025
0.2125   0.2375   0.025
0.2375   0.2375   0.025
0.2625   0.2375   0.025
0.2875   0.2375   0.025
0.3125   0.2375   0.025
0.3375   0.2375   0.025
0.3625   0.2375   0.025
0.3875   0.2375   0.025
0.4125   0.2375   0.025
0.4375   0.2375   0.025
0.4625   0.2375   0.025
0.4875   0.2375   0.025
0.5125   0.2375   0.025
0.5375   0.2375   0.025
0.5625   0.2375   0.025
0.5875   0.2375   0.025
0.6125   0.2375   0.025
0.6375   0.2375   0.025
0.6625   0.2375   0.025
0.6875   0.2375   0.025
0.7125   0.2375   0.025
0.7375   0.2375   0.025
0.7625   0.2375   0.025
0.7875   0.2375   0.025
0.8125   0.2375   0.025
0.8375   0.2375   0.025
0.8625   0.2375   0.025
0.8875   0.2375   0.025
0.9125   0.2375   0.025
0.9375   0.2375   0.025
0.9625   0.2375   0.025
0.9875   0.2375   0.025
0.0125   0.2625   0.025
0.0375   0.2625   0.025
0.0625   0.2625   0.025
0.0875   0.2625   0.025
0.1125   0.2625   0.025
0.1375   0.2625   0.025
0.1625   0.2625   0.025
0.1875   0.2625   0.025
0.2125   0.2625   0.025
0.2375   0.2625   0.025
0.2625   0.2625   0.025
[...]
POINT_DATA   32000
SCALARS Presion double
LOOKUP_TABLE   Presion

0 0 0 0 0 0 0 0 0 0 0 0 0 0 0 0 0 0 0 0 0 0 0 0 0 0 0 0 0 0 0 0 0 0 0 0 0 0 0 0 -0.00376354 -0.00419973 -0.00480003 -0.00535299 -0.00580344 -0.0061359 -0.0063475 -0.00644087 -0.00642165 -0.00629723 -0.00607551 -0.00576587 -0.00537659 -0.00491605 -0.00439234 -0.00381328 -0.00318648 -0.00251942 -0.00181952 -0.00109422 -0.000350127 0.000403251 0.00115876 0.00190815 0.00264276 0.00335345 0.00403051 0.0046635 0.00524119 0.00575152 0.00618183 0.00651766 0.0067448 0.00684829 0.00681315 0.00662495 0.00627151 0.00574902 0.00509009 0.0045054 -0.00467354 -0.0047613 -0.00507919 -0.00545573 -0.00580464 -0.00608367 -0.00627268 -0.00636331 -0.00635395 -0.00624702 -0.00604673 -0.00576052 -0.00539483 -0.00495695 -0.00445427 -0.00389421 -0.00328411 -0.00263132 -0.00194318 -0.00122715 -0.000489236 0.000259988 0.00101381 0.0017639 0.00250154 0.00321756 0.00390223 0.00454527 0.00513579 0.00566231 0.00611345 0.00647599 0.0067384 0.00688951 0.00692018 0.00682544 0.00660903 0.00629418 0.0059516 0.00577145 -0.00506684 -0.00511741 -0.00532486 -0.00559959 -0.00587512 -0.00610855 -0.00627416 -0.0063578 -0.00635292 -0.00625808 -0.00607419 -0.00580699 -0.00546102 -0.0050424 -0.00455769 -0.00401373 -0.00341747 -0.00277597 -0.00209642 -0.00138611 -0.000650464 9.90748e-05 0.000856254 0.00161275 0.00235983 0.00308832 0.00378852 0.00445025 0.00506284 0.00561523 0.006097 0.00649563 0.00680151 0.00700595 0.00710322 0.00709295 0.00698414 0.006803 0.0066075 0.00650924 -0.00522522 -0.00533046 -0.0055213 -0.00575613 -0.00599269 -0.00619726 -0.00634594 -0.00642338 -0.00642082 -0.00633447 -0.00616284 -0.00591037 -0.00557994 -0.00517654 -0.00470589 -0.00417419 -0.00358789 -0.00295372 -0.00227855 -0.00156948 -0.000831309 -7.61792e-05 0.000690117 0.0014593 0.00222266 0.00297099 0.00369457 0.0043832 0.00502622 0.0056127 0.0061327 0.00657374 0.00692713 0.0071851 0.00734306 0.00740133 0.00736805 0.00726335 0.00712497 0.00701128 -0.00529177 -0.0054705 -0.00568743 -0.00592197 -0.00614807 -0.00634147 -0.00648271 -0.00655783 -0.00655788 -0.00647813 -0.00631564 -0.00607408 -0.00575505 -0.0053626 -0.00490168 -0.00437783 -0.00379703 -0.00316557 -0.00248999 -0.0017771 -0.00103111 -0.000264678 0.000516841 0.00130524 0.0020918 0.00286728 0.00362183 0.00434506 0.0050261 0.00565376 0.00621809 0.00670601 0.00710879 0.00741844 0.00762981 0.00774194 0.00775971 0.00769585 0.0075723 0.00741805 -0.0053399 -0.00558927 -0.00584908 -0.00610561 -0.00634121 -0.00653826 -0.00668156 -0.00675941 -0.00676379 -0.00668998 -0.00653441 -0.00630053 -0.00598904 -0.0056033 -0.00514764 -0.00462704 -0.00404697 -0.00341331 -0.00273222 -0.00201021 -0.00125085 -0.000467237 0.000335717 0.00114988 0.00196655 0.00277633 0.00356918 0.00433435 0.00506049 0.00573585 0.00634996 0.00688856 0.0073422 0.00770181 0.00796077 0.00811594 0.0081686 0.00812524 0.0079974 0.00779889 -0.00540844 -0.00572126 -0.00602925 -0.00631937 -0.00657724 -0.00678891 -0.00694228 -0.00702779 -0.00703868 -0.00697085 -0.00682065 -0.00659173 -0.00628428 -0.00590125 -0.00544648 -0.00492451 -0.00434038 -0.00369954 -0.0030078 -0.0022713 -0.00149299 -0.000686322 0.000144244 0.000990672 0.00184422 0.00269537 0.00353372 0.00434804 0.00512627 0.00585576 0.00652516 0.00711853 0.00762517 0.0080343 0.00833738 0.00852879 0.00860649 0.00857233 0.00843144 0.00819007 -0.00551889 -0.00588894 -0.00624617 -0.0065757 -0.00686359 -0.00709746 -0.00726699 -0.00736426 -0.00738374 -0.00732216 -0.00717616 -0.00694989 -0.00664334 -0.00625926 -0.00580124 -0.00527346 -0.0046806 -0.00402773 -0.00332028 -0.00256404 -0.00176132 -0.000925842 -6.16032e-05 0.000823471 0.00172063 0.00262014 0.00351124 0.00438204 0.00521959 0.00601006 0.00674086 0.00739397 0.00795695 0.00841694 0.00876307 0.0089872 0.0090844 0.00905314 0.00889478 0.008612 -0.00568395 -0.00610734 -0.00651383 -0.00688585 -0.0072085 -0.00746958 -0.00765959 -0.00777169 -0.00780137 -0.00774624 -0.00760342 -0.00737772 -0.00706922 -0.00668067 -0.00621553 -0.00567776 -0.00507175 -0.00440223 -0.00367426 -0.00289325 -0.00206085 -0.001191 -0.0002872 0.000642786 0.00159021 0.00254517 0.00349643 0.00443138 0.00533601 0.00619503 0.00699436 0.00771343 0.00833766 0.00885167 0.00924202 0.00949793 0.00961189 0.00957994 0.00940127 0.00907724 -0.00591195 -0.00638718 -0.0068433 -0.00725988 -0.00762036 -0.00791196 -0.00812538 -0.00825437 -0.00829528 -0.00824653 -0.00810583 -0.00787878 -0.0075657 -0.00716951 -0.00669368 -0.00614205 -0.00551879 -0.00482831 -0.00407531 -0.00326481 -0.00239774 -0.00148823 -0.000539184 0.000441849 0.00144618 0.00246376 0.0034829 0.00449018 0.00547037 0.00640655 0.00728279 0.00807554 0.00876765 0.0093408 0.00977855 0.0100673 0.0101972 0.0101624 0.00996095 0.00959421 -0.00620927 -0.00673689 -0.00724393 -0.00770701 -0.00810762 -0.00843203 -0.00867075 -0.00881788 -0.00887045 -0.00882767 -0.00868788 -0.00845758 -0.00813744 -0.00773068 -0.00724088 -0.00667185 -0.00602757 -0.00531219 -0.00453004 -0.0036857 -0.00277933 -0.00182517 -0.000825448 0.000212599 0.00128045 0.00236796 0.00346304 0.00455143 0.00561659 0.00663971 0.00760274 0.00847863 0.00924719 0.00988656 0.0103768 0.0107014 0.0108478 0.0108086 0.0105816 0.0101691 -0.00658171 -0.00716402 -0.0077243 -0.00823613 -0.00867896 -0.0090379 -0.00930312 -0.00946897 -0.00953308 -0.00949548 -0.00935519 -0.00911968 -0.00879008 -0.00837 -0.00786321 -0.00727356 -0.0066049 -0.00586109 -0.00504608 -0.00416399 -0.00321409 -0.0022107 -0.00115521 -5.44102e-05 0.00108348 0.00224836 0.00342781 0.00460676 0.00576727 0.00688846 0.00794985 0.0089203 0.00977598 0.0104908 0.0110408 0.0114057 0.0115702 0.0115257 0.0112699 0.0108068 -0.0070353 -0.00767612 -0.00829299 -0.00885636 -0.00934355 -0.00973847 -0.0100309 -0.0102155 -0.0102906 -0.010257 -0.0101145 -0.00987175 -0.00953032 -0.00909432 -0.00856779 -0.00795463 -0.00725859 -0.00648326 -0.00563219 -0.00470894 -0.0037118 -0.00265506 -0.00153914 -0.000370179 0.000844093 0.0020938 0.00336635 0.00464597 0.00591327 0.00714511 0.00831832 0.00939696 0.0103529 0.0111549 0.011774 0.0121856 0.0123711 0.0123203 0.0120316 0.0115114 -0.00757683 -0.00828131 -0.00895917 -0.0095775 -0.0101114 -0.0105436 -0.0108637 -0.0110667 -0.0111516 -0.0111204 -0.0109739 -0.0107216 -0.010366 -0.00991157 -0.00936275 -0.00872353 -0.00799753 -0.00718809 -0.00629826 -0.00533103 -0.00428354 -0.00316997 -0.00198952 -0.000747481 0.000549167 0.00189104 0.00326562 0.00465656 0.00604311 0.00739975 0.0087003 0.00990326 0.0109753 0.0118791 0.0125795 0.0130462 0.0132568 0.0131991 0.0128722 0.0122862 -0.00821415 -0.00898876 -0.00973306 -0.0104104 -0.0109937 -0.0114645 -0.0118123 -0.0120327 -0.012126 -0.0120953 -0.0119424 -0.0116782 -0.011306 -0.0108308 -0.0102573 -0.00958981 -0.00883173 -0.00798609 -0.00705545 -0.0060421 -0.00494189 -0.00376875 -0.00252045 -0.00120112 0.000183314 0.00162432 0.0031098 0.00462314 0.00614235 0.0076395 0.00908517 0.0104314 0.0116388 0.0126625 0.0134594 0.0139924 0.0142337 0.0141686 0.0137971 0.0131339 -0.00895652 -0.00980911 -0.0106264 -0.0113676 -0.0120031 -0.0125136 -0.0128889 -0.0131255 -0.0132251 -0.0131924 -0.0130305 -0.0127518 -0.0123604 -0.011862 -0.0112619 -0.0105642 -0.00977234 -0.00888901 -0.0079162 -0.0068554 -0.00570099 -0.00446654 -0.00314807 -0.00174824 -0.000271507 0.0012749 0.00287977 0.00452666 0.00619271 0.0078476 0.00945857 0.0109703 0.0123361 0.0135019 0.0144149 0.0150287 0.0153085 0.0152359 0.0148119 0.0140566 -0.00981487 -0.0107548 -0.0116528 -0.0124634 -0.0131542 -0.0137055 -0.0141074 -0.0143583 -0.0144615 -0.0144237 -0.0142498 -0.0139537 -0.0135405 -0.0130167 -0.0123879 -0.0116585 -0.0108317 -0.00990987 -0.00889431 -0.00778565 -0.00657668 -0.00528037 -0.00389073 -0.00240858 -0.000836388 0.000820479 0.00255236 0.00434364 0.00617106 0.00800229 0.0098012 0.0115042 0.0130561 0.0143915 0.0154452 0.0161589 0.016488 0.0164087 0.0159222 0.0150558 -0.0108021 -0.0118407 -0.0128284 -0.0137145 -0.014464 -0.0150566 -0.0154838 -0.0157461 -0.0158495 -0.015803 -0.0156133 -0.0152966 -0.0148587 -0.0143072 -0.0136481 -0.0128858 -0.0120234 -0.0110629 -0.0100049 -0.00884911 -0.00758652 -0.00622933 -0.00476923 -0.00320477 -0.00153588 0.000234666 0.00209961 0.00404505 0.00604823 0.00807535 0.0100872 0.0120112 0.0137822 0.0153211 0.0165471 0.0173858 0.0177794 0.0176955 0.0171348 0.0161325 -0.0119338 -0.0130843 -0.0141723 -0.0151407 -0.015952 -0.0165859 -0.0170361 -0.017306 -0.0174049 -0.017345 -0.0171354 -0.0167941 -0.0163286 -0.0157471 -0.015056 -0.01426 -0.013362 -0.0123635 -0.0112644 -0.0100634 -0.00874975 -0.00733452 -0.00580683 -0.00416252 -0.00239835 -0.000513598 0.00148793 0.00359531 0.00578753 0.00803041 0.0102824 0.0124612 0.0144907 0.0162751 0.0177136 0.0187108 0.0191902 0.0191068 0.018458 0.0172881 -0.0132282 -0.0145068 -0.0157073 -0.0167655 -0.0176413 -0.0183155 -0.0187848 -0.019057 -0.0191455 -0.0190663 -0.0188315 -0.0184614 -0.0179648 -0.0173508 -0.0166264 -0.0157962 -0.0148631 -0.013828 -0.0126903 -0.0114475 -0.0100871 -0.00861883 -0.00702911 -0.00531055 -0.00345605 -0.00146039 0.000677438 0.00295114 0.00534326 0.00782094 0.0103415 0.0128135 0.015148 0.0172296 0.0189323 0.020133 0.0207288 0.0206556 0.0199038 0.018526 -0.0147081 -0.0161341 -0.0174612 -0.0186171 -0.0195593 -0.0202708 -0.0207534 -0.0210203 -0.0210907 -0.0209848 -0.0207185 -0.0203143 -0.0197826 -0.0191335 -0.0183743 -0.0175098 -0.0165426 -0.0154733 -0.0143005 -0.0130208 -0.01162 -0.0101064 -0.00846343 -0.00668012 -0.00474482 -0.00264669 -0.000378274 0.00206088 0.00465939 0.00738838 0.0102062 0.0130133 0.0157076 0.0181503 0.020184 0.0216486 0.0224049 0.0223598 0.0214897 0.0198543 -0.0164011 -0.017998 -0.0194679 -0.0207292 -0.0217381 -0.0224816 -0.0229685 -0.0232199 -0.0232617 -0.0231198 -0.022814 -0.0223694 -0.021798 -0.0211107 -0.0203152 -0.0194163 -0.0184164 -0.0173158 -0.0161126 -0.0148024 -0.0133699 -0.0118214 -0.0101376 -0.0083037 -0.00630278 -0.00411724 -0.00173131 0.00086485 0.00366934 0.00666102 0.0098027 0.0129899 0.0161071 0.0189891 0.0214396 0.0232502 0.0242306 0.0242446 0.023244 0.0212907 -0.018342 -0.0201386 -0.0217696 -0.0231433 -0.0242161 -0.0249822 -0.0254604 -0.025682 -0.0256815 -0.0254915 -0.0251364 -0.0246437 -0.0240268 -0.0232975 -0.0224637 -0.0215301 -0.0204991 -0.0193706 -0.0181424 -0.0168096 -0.015356 -0.0137859 -0.0120776 -0.0102123 -0.00816752 -0.00591763 -0.00343659 -0.000702043 0.00229787 0.00555506 0.009042 0.0126546 0.0162658 0.0196818 0.0226589 0.024926 0.0262223 0.0263474 0.0252117 0.0228704 -0.0205757 -0.0226065 -0.0244188 -0.02591 -0.0270394 -0.0278128 -0.0282631 -0.0284352 -0.0283744 -0.0281209 -0.027704 -0.0271532 -0.0264836 -0.0257072 -0.0248321 -0.0238629 -0.0228019 -0.0216489 -0.0204015 -0.0190547 -0.0175923 -0.0160164 -0.0143035 -0.0124312 -0.0103709 -0.00808854 -0.0055456 -0.00270382 0.000467561 0.00398039 0.00782422 0.0119041 0.0160862 0.0201476 0.0237898 0.026661 0.0284039 0.0287242 0.0274644 0.0246579 -0.0231603 -0.0254677 -0.0274827 -0.0290922 -0.0302633 -0.0310197 -0.0314145 -0.0315102 -0.0313652 -0.031028 -0.0305333 -0.0299119 -0.02918 -0.0283497 -0.0274288 -0.0264217 -0.0253306 -0.0241555 -0.0228942 -0.0215419 -0.0200837 -0.0185191 -0.0168238 -0.0149726 -0.0129313 -0.0106564 -0.00809552 -0.00519122 -0.00188805 0.00185403 0.00605153 0.0106314 0.0154619 0.0202956 0.0247723 0.0284405 0.0308132 0.0314598 0.0301151 0.0267641 -0.0261736 -0.0288089 -0.0310479 -0.0327684 -0.0339542 -0.0346562 -0.034956 -0.0349384 -0.0346774 -0.0342304 -0.0336372 -0.0329289 -0.0321221 -0.0312283 -0.0302545 -0.029205 -0.0280817 -0.026885 -0.0256132 -0.0242624 -0.02282 -0.0212832 -0.0196282 -0.0178276 -0.0158424 -0.01362 -0.0110933 -0.00818263 -0.00480247 -0.000875553 0.00365349 0.00875022 0.0143003 0.0200418 0.0255524 0.0302617 0.0335135 0.0346839 0.033339 0.0293716 -0.0297207 -0.0327461 -0.0352268 -0.0370373 -0.0381914 -0.0387824 -0.0389305 -0.0387493 -0.0383303 -0.0377398 -0.0370216 -0.0362051 -0.0353065 -0.0343357 -0.0332986 -0.0321985 -0.0310376 -0.0298163 -0.0285343 -0.0271886 -0.0257705 -0.0242745 -0.022679 -0.0209555 -0.0190612 -0.0169353 -0.0144958 -0.0116395 -0.00824608 -0.00419288 0.000626966 0.00623754 0.0125629 0.0193463 0.0261118 0.0321577 0.0366155 0.0385948 0.0374036 0.0327697 -0.0339466 -0.0374371 -0.0401681 -0.0420228 -0.0430688 -0.0434632 -0.0433795 -0.0429664 -0.042334 -0.0415562 -0.0406788 -0.0397268 -0.0387143 -0.0376484 -0.0365328 -0.03537 -0.0341614 -0.0329083 -0.0316112 -0.0302691 -0.0288778 -0.027429 -0.0259044 -0.0242754 -0.0224968 -0.0205006 -0.018191 -0.0154406 -0.0120928 -0.0079731 -0.00291252 0.00319176 0.0103277 0.0182732 0.0265218 0.0342416 0.0403145 0.0434966 0.0427128 0.037405 -0.0390552 -0.0431005 -0.0460695 -0.0478802 -0.0486939 -0.0487642 -0.0483358 -0.0475985 -0.0466806 -0.0456597 -0.0445798 -0.043458 -0.0423035 -0.041119 -0.0399051 -0.0386622 -0.0373913 -0.0360939 -0.0347714 -0.0334245 -0.0320547 -0.0306494 -0.0291947 -0.0276624 -0.0260052 -0.0241494 -0.0219861 -0.0193656 -0.0160946 -0.0119454 -0.00668087 -0.000103077 0.00786523 0.017073 0.0270231 0.036778 0.044951 0.049856 0.049869 0.0439525 -0.0453408 -0.0500454 -0.0531961 -0.0548011 -0.0551837 -0.0547413 -0.0538108 -0.0526268 -0.0513309 -0.0499974 -0.0486622 -0.0473289 -0.0459989 -0.0446678 -0.0433315 -0.0419877 -0.0406357 -0.0392769 -0.0379133 -0.0365466 -0.0351839 -0.0338068 -0.0324052 -0.030951 -0.0293944 -0.0276553 -0.025613 -0.0230966 -0.019879 -0.0156814 -0.0101997 -0.00313271 0.00570394 0.016267 0.0281219 0.0402785 0.0510987 0.0583837 0.0597621 0.0534183 -0.0532419 -0.0587189 -0.0619043 -0.0630148 -0.0626516 -0.0614213 -0.0597736 -0.0579841 -0.0561955 -0.0544663 -0.0528147 -0.0512232 -0.049681 -0.0481736 -0.0466899 -0.0452232 -0.0437705 -0.0423316 -0.0409081 -0.0395016 -0.0381242 -0.0367485 -0.0353672 -0.0339497 -0.0324416 -0.0307546 -0.028755 -0.0262508 -0.0229838 -0.018629 -0.0128224 -0.0051624 0.00464725 0.016697 0.0306703 0.0456047 0.0596756 0.0701479 0.073697 0.0672915 -0.0634442 -0.0697856 -0.0726721 -0.0727792 -0.071179 -0.0687682 -0.066118 -0.0635253 -0.0611091 -0.058892 -0.0568598 -0.0549647 -0.0531768 -0.0514676 -0.0498163 -0.0482098 -0.0466409 -0.0451065 -0.043606 -0.0421393 -0.0407217 -0.0393128 -0.0379059 -0.0364641 -0.0349239 -0.0331849 -0.031096 -0.0284422 -0.0249335 -0.0202024 -0.0138339 -0.00533499 0.00569288 0.0194813 0.0358749 0.0540307 0.0720535 0.0867195 0.0935756 0.0877839 -0.0770862 -0.084262 -0.0861278 -0.0843472 -0.0807602 -0.0766276 -0.0726145 -0.068988 -0.0658 -0.063006 -0.0605389 -0.0583074 -0.0562548 -0.0543331 -0.0525084 -0.0507585 -0.04907 -0.0474351 -0.045849 -0.0443074 -0.0428269 -0.0413494 -0.0398656 -0.0383272 -0.0366566 -0.0347343 -0.0323858 -0.0293664 -0.0253498 -0.0199235 -0.012624 -0.00287275 0.00981861 0.0258167 0.0451501 0.0671814 0.0901002 0.110325 0.122162 0.118228 -0.0962037 -0.103741 -0.103057 -0.0978803 -0.0912025 -0.0846408 -0.0788433 -0.0739451 -0.0698592 -0.0664283 -0.0635046 -0.0609371 -0.0586324 -0.0565168 -0.0545394 -0.0526664 -0.0508762 -0.0491542 -0.0474897 -0.0458717 -0.0443158 -0.0427425 -0.041136 -0.0394322 -0.0375329 -0.0352933 -0.0325072 -0.0288918 -0.0240748 -0.0175884 -0.00890932 0.00263503 0.0176302 0.0365838 0.0597295 0.0867186 0.11602 0.143926 0.163455 0.163779 -0.124741 -0.130734 -0.124315 -0.113251 -0.101944 -0.0921061 -0.0841007 -0.0777486 -0.0727133 -0.0686619 -0.0653304 -0.0624897 -0.0599995 -0.057755 -0.0556854 -0.0537438 -0.0518988 -0.0501285 -0.0484149 -0.0467391 -0.0451127 -0.0434343 -0.0416782 -0.0397609 -0.0375596 -0.0348987 -0.0315341 -0.027137 -0.0212784 -0.01342 -0.00295446 0.0109152 0.0289194 0.0517665 0.0799734 0.113618 0.15175 0.190989 0.223137 0.232658 -0.170978 -0.169061 -0.150432 -0.129581 -0.111686 -0.0977303 -0.0872562 -0.0794655 -0.073613 -0.0691116 -0.0655452 -0.0625928 -0.0600617 -0.0578154 -0.0557639 -0.0538483 -0.052029 -0.0502775 -0.0485694 -0.0468784 -0.0452098 -0.0434439 -0.0415433 -0.0394046 -0.0368796 -0.033761 -0.0297659 -0.0245167 -0.0175228 -0.00816479 0.00427531 0.0207578 0.0422446 0.0697849 0.104392 0.146894 0.197522 0.254349 0.308788 0.338416 -0.253491 -0.223579 -0.180211 -0.143974 -0.117532 -0.0991591 -0.0865521 -0.0778305 -0.071659 -0.0671405 -0.0636974 -0.0609272 -0.0585952 -0.0565435 -0.054672 -0.0529164 -0.0512343 -0.0495947 -0.0479705 -0.0463312 -0.0446745 -0.0428728 -0.0408766 -0.038566 -0.0357725 -0.0322632 -0.027723 -0.0217338 -0.0137516 -0.0030824 0.0111085 0.0299572 0.054732 0.0869942 0.128607 0.181795 0.24917 0.332919 0.428458 0.504433 -0.414689 -0.295768 -0.205053 -0.1478 -0.113281 -0.0924148 -0.0795319 -0.0713373 -0.0659261 -0.0621808 -0.0594433 -0.0572927 -0.0554931 -0.0538947 -0.0524068 -0.0509742 -0.0495623 -0.048146 -0.0467021 -0.0452025 -0.0436373 -0.0418888 -0.0398959 -0.0375322 -0.0346197 -0.0309134 -0.0260829 -0.0196909 -0.0111667 0.000224291 0.0153971 0.0356045 0.0623851 0.0978291 0.144876 0.207918 0.293917 0.414157 0.582103 0.774735 -0.753751 -0.345925 -0.187967 -0.120768 -0.0889111 -0.0725515 -0.0636829 -0.0586757 -0.0557285 -0.0538876 -0.0526312 -0.0516496 -0.0507809 -0.0499314 -0.0490516 -0.048117 -0.0471157 -0.0460404 -0.044882 -0.043624 -0.0422534 -0.0406808 -0.0388389 -0.0366092 -0.0338212 -0.0302384 -0.0255409 -0.0193043 -0.0109742 0.000165184 0.0150238 0.0348274 0.0611575 0.0962445 0.143517 0.208971 0.304747 0.457926 0.726346 1.22547 0 0 0 0 0 0 0 0 0 0 0 0 0 0 0 0 0 0 0 0 0 0 0 0 0 0 0 0 0 0 0 0 0 0 0 0 0 0 0 0 -0.0037203 -0.00416969 -0.00472669 -0.00520367 -0.00556427 -0.00580554 -0.00593239 -0.0059519 -0.00587193 -0.00570062 -0.00544613 -0.00511642 -0.00471917 -0.00426181 -0.00375157 -0.00319551 -0.00260065 -0.00197397 -0.00132255 -0.000653568 2.55477e-05 0.000707227 0.00138382 0.00204734 0.00268957 0.00330197 0.00387571 0.00440159 0.00487006 0.00527121 0.00559479 0.00583035 0.00596748 0.0059959 0.0059059 0.00568888 0.00533894 0.00485885 0.00428658 0.00381687 -0.0046403 -0.00474236 -0.00502304 -0.00532394 -0.00557582 -0.00575062 -0.00583829 -0.00583698 -0.00574886 -0.00557816 -0.00533028 -0.00501115 -0.00462695 -0.00418406 -0.00368895 -0.00314819 -0.00256844 -0.00195649 -0.00131933 -0.000664112 1.66797e-06 0.00067035 0.00133422 0.00198518 0.00261487 0.00321472 0.00377591 0.00428948 0.00474634 0.00513742 0.00545379 0.005687 0.00582956 0.00587547 0.00582133 0.00566841 0.00542703 0.00512654 0.00483886 0.00472728 -0.00508922 -0.00513506 -0.00529768 -0.005492 -0.0056636 -0.00578235 -0.00583313 -0.00580943 -0.00570968 -0.00553519 -0.00528912 -0.00497565 -0.00459956 -0.00416618 -0.0036812 -0.0031506 -0.00258063 -0.00197783 -0.00134899 -0.000701182 -4.19467e-05 0.000621002 0.0012799 0.00192653 0.00255239 0.00314882 0.00370699 0.00421804 0.00467321 0.00506406 0.00538265 0.0056221 0.00577722 0.00584514 0.00582677 0.00572895 0.00556813 0.00537655 0.00521098 0.00515795 -0.00533341 -0.00540928 -0.00553836 -0.0056811 -0.00580357 -0.00588254 -0.00590396 -0.0058603 -0.00574835 -0.00556775 -0.00532013 -0.0050083 -0.0046359 -0.00420732 -0.00372751 -0.00320188 -0.00263625 -0.00203681 -0.00141018 -0.000763299 -0.000103725 0.000560778 0.00122239 0.00187272 0.00250313 0.00310476 0.00366866 0.00418595 0.00464801 0.00504673 0.00537484 0.00562646 0.00579792 0.00588824 0.00590049 0.00584328 0.00573277 0.00559477 0.00546506 0.00538298 -0.00550366 -0.00562948 -0.00576364 -0.00588916 -0.00598701 -0.00604177 -0.00604278 -0.00598349 -0.00586058 -0.005673 -0.00542155 -0.00510814 -0.00473554 -0.00430738 -0.00382797 -0.00330217 -0.00273538 -0.00213347 -0.00150284 -0.000850325 -0.000183471 0.000489894 0.00116185 0.00182383 0.00246692 0.00308201 0.0036599 0.00419151 0.00466809 0.00508163 0.00542509 0.00569312 0.00588276 0.00599388 0.00603009 0.0059996 0.00591576 0.00579682 0.00566351 0.00553239 -0.00566593 -0.00584196 -0.00599716 -0.00612472 -0.00621463 -0.00625752 -0.00624623 -0.00617598 -0.00604406 -0.00584948 -0.00559269 -0.0052751 -0.00489889 -0.00446711 -0.00398353 -0.00345255 -0.00287917 -0.00226897 -0.00162813 -0.000963366 -0.000282245 0.000407324 0.00109729 0.00177882 0.00244267 0.00307935 0.00367925 0.00423286 0.00473113 0.00516578 0.00552966 0.00581742 0.00602627 0.0