# vtk DataFile Version 2.0
Velocidades
ASCII

DATASET STRUCTURED_GRID
DIMENSIONS   40   40   20

POINTS   32000   double
0.0125   0.0125   0.025
0.0125   0.0375   0.025
0.0125   0.0625   0.025
0.0125   0.0875   0.025
0.0125   0.1125   0.025
0.0125   0.1375   0.025
0.0125   0.1625   0.025
0.0125   0.1875   0.025
0.0125   0.2125   0.025
0.0125   0.2375   0.025
0.0125   0.2625   0.025
0.0125   0.2875   0.025
0.0125   0.3125   0.025
0.0125   0.3375   0.025
0.0125   0.3625   0.025
0.0125   0.3875   0.025
0.0125   0.4125   0.025
0.0125   0.4375   0.025
0.0125   0.4625   0.025
0.0125   0.4875   0.025
0.0125   0.5125   0.025
0.0125   0.5375   0.025
0.0125   0.5625   0.025
0.0125   0.5875   0.025
0.0125   0.6125   0.025
0.0125   0.6375   0.025
0.0125   0.6625   0.025
0.0125   0.6875   0.025
0.0125   0.7125   0.025
0.0125   0.7375   0.025
0.0125   0.7625   0.025
0.0125   0.7875   0.025
0.0125   0.8125   0.025
0.0125   0.8375   0.025
0.0125   0.8625   0.025
0.0125   0.8875   0.025
0.0125   0.9125   0.025
0.0125   0.9375   0.025
0.0125   0.9625   0.025
0.0125   0.9875   0.025
0.0375   0.0125   0.025
0.0375   0.0375   0.025
0.0375   0.0625   0.025
0.0375   0.0875   0.025
0.0375   0.1125   0.025
0.0375   0.1375   0.025
0.0375   0.1625   0.025
0.0375   0.1875   0.025
0.0375   0.2125   0.025
0.0375   0.2375   0.025
0.0375   0.2625   0.025
0.0375   0.2875   0.025
0.0375   0.3125   0.025
0.0375   0.3375   0.025
0.0375   0.3625   0.025
0.0375   0.3875   0.025
0.0375   0.4125   0.025
0.0375   0.4375   0.025
0.0375   0.4625   0.025
0.0375   0.4875   0.025
0.0375   0.5125   0.025
0.0375   0.5375   0.025
0.0375   0.5625   0.025
0.0375   0.5875   0.025
0.0375   0.6125   0.025
0.0375   0.6375   0.025
0.0375   0.6625   0.025
0.0375   0.6875   0.025
0.0375   0.7125   0.025
0.0375   0.7375   0.025
0.0375   0.7625   0.025
0.0375   0.7875   0.025
0.0375   0.8125   0.025
0.0375   0.8375   0.025
0.0375   0.8625   0.025
0.0375   0.8875   0.025
0.0375   0.9125   0.025
0.0375   0.9375   0.025
0.0375   0.9625   0.025
0.0375   0.9875   0.025
0.0625   0.0125   0.025
0.0625   0.0375   0.025
0.0625   0.0625   0.025
0.0625   0.0875   0.025
0.0625   0.1125   0.025
0.0625   0.1375   0.025
0.0625   0.1625   0.025
0.0625   0.1875   0.025
0.0625   0.2125   0.025
0.0625   0.2375   0.025
0.0625   0.2625   0.025
0.0625   0.2875   0.025
0.0625   0.3125   0.025
0.0625   0.3375   0.025
0.0625   0.3625   0.025
0.0625   0.3875   0.025
0.0625   0.4125   0.025
0.0625   0.4375   0.025
0.0625   0.4625   0.025
0.0625   0.4875   0.025
0.0625   0.5125   0.025
0.0625   0.5375   0.025
0.0625   0.5625   0.025
0.0625   0.5875   0.025
0.0625   0.6125   0.025
0.0625   0.6375   0.025
0.0625   0.6625   0.025
0.0625   0.6875   0.025
0.0625   0.7125   0.025
0.0625   0.7375   0.025
0.0625   0.7625   0.025
0.0625   0.7875   0.025
0.0625   0.8125   0.025
0.0625   0.8375   0.025
0.0625   0.8625   0.025
0.0625   0.8875   0.025
0.0625   0.9125   0.025
0.0625   0.9375   0.025
0.0625   0.9625   0.025
0.0625   0.9875   0.025
0.0875   0.0125   0.025
0.0875   0.0375   0.025
0.0875   0.0625   0.025
0.0875   0.0875   0.025
0.0875   0.1125   0.025
0.0875   0.1375   0.025
0.0875   0.1625   0.025
0.0875   0.1875   0.025
0.0875   0.2125   0.025
0.0875   0.2375   0.025
0.0875   0.2625   0.025
0.0875   0.2875   0.025
0.0875   0.3125   0.025
0.0875   0.3375   0.025
0.0875   0.3625   0.025
0.0875   0.3875   0.025
0.0875   0.4125   0.025
0.0875   0.4375   0.025
0.0875   0.4625   0.025
0.0875   0.4875   0.025
0.0875   0.5125   0.025
0.0875   0.5375   0.025
0.0875   0.5625   0.025
0.0875   0.5875   0.025
0.0875   0.6125   0.025
0.0875   0.6375   0.025
0.0875   0.6625   0.025
0.0875   0.6875   0.025
0.0875   0.7125   0.025
0.0875   0.7375   0.025
0.0875   0.7625   0.025
0.0875   0.7875   0.025
0.0875   0.8125   0.025
0.0875   0.8375   0.025
0.0875   0.8625   0.025
0.0875   0.8875   0.025
0.0875   0.9125   0.025
0.0875   0.9375   0.025
0.0875   0.9625   0.025
0.0875   0.9875   0.025
0.1125   0.0125   0.025
0.1125   0.0375   0.025
0.1125   0.0625   0.025
0.1125   0.0875   0.025
0.1125   0.1125   0.025
0.1125   0.1375   0.025
0.1125   0.1625   0.025
0.1125   0.1875   0.025
0.1125   0.2125   0.025
0.1125   0.2375   0.025
0.1125   0.2625   0.025
0.1125   0.2875   0.025
0.1125   0.3125   0.025
0.1125   0.3375   0.025
0.1125   0.3625   0.025
0.1125   0.3875   0.025
0.1125   0.4125   0.025
0.1125   0.4375   0.025
0.1125   0.4625   0.025
0.1125   0.4875   0.025
0.1125   0.5125   0.025
0.1125   0.5375   0.025
0.1125   0.5625   0.025
0.1125   0.5875   0.025
0.1125   0.6125   0.025
0.1125   0.6375   0.025
0.1125   0.6625   0.025
0.1125   0.6875   0.025
0.1125   0.7125   0.025
0.1125   0.7375   0.025
0.1125   0.7625   0.025
0.1125   0.7875   0.025
0.1125   0.8125   0.025
0.1125   0.8375   0.025
0.1125   0.8625   0.025
0.1125   0.8875   0.025
0.1125   0.9125   0.025
0.1125   0.9375   0.025
0.1125   0.9625   0.025
0.1125   0.9875   0.025
0.1375   0.0125   0.025
0.1375   0.0375   0.025
0.1375   0.0625   0.025
0.1375   0.0875   0.025
0.1375   0.1125   0.025
0.1375   0.1375   0.025
0.1375   0.1625   0.025
0.1375   0.1875   0.025
0.1375   0.2125   0.025
0.1375   0.2375   0.025
0.1375   0.2625   0.025
0.1375   0.2875   0.025
0.1375   0.3125   0.025
0.1375   0.3375   0.025
0.1375   0.3625   0.025
0.1375   0.3875   0.025
0.1375   0.4125   0.025
0.1375   0.4375   0.025
0.1375   0.4625   0.025
0.1375   0.4875   0.025
0.1375   0.5125   0.025
0.1375   0.5375   0.025
0.1375   0.5625   0.025
0.1375   0.5875   0.025
0.1375   0.6125   0.025
0.1375   0.6375   0.025
0.1375   0.6625   0.025
0.1375   0.6875   0.025
0.1375   0.7125   0.025
0.1375   0.7375   0.025
0.1375   0.7625   0.025
0.1375   0.7875   0.025
0.1375   0.8125   0.025
0.1375   0.8375   0.025
0.1375   0.8625   0.025
0.1375   0.8875   0.025
0.1375   0.9125   0.025
0.1375   0.9375   0.025
0.1375   0.9625   0.025
0.1375   0.9875   0.025
0.1625   0.0125   0.025
0.1625   0.0375   0.025
0.1625   0.0625   0.025
0.1625   0.0875   0.025
0.1625   0.1125   0.025
0.1625   0.1375   0.025
0.1625   0.1625   0.025
0.1625   0.1875   0.025
0.1625   0.2125   0.025
0.1625   0.2375   0.025
0.1625   0.2625   0.025
0.1625   0.2875   0.025
0.1625   0.3125   0.025
0.1625   0.3375   0.025
0.1625   0.3625   0.025
0.1625   0.3875   0.025
0.1625   0.4125   0.025
0.1625   0.4375   0.025
0.1625   0.4625   0.025
0.1625   0.4875   0.025
0.1625   0.5125   0.025
0.1625   0.5375   0.025
0.1625   0.5625   0.025
0.1625   0.5875   0.025
0.1625   0.6125   0.025
0.1625   0.6375   0.025
0.1625   0.6625   0.025
0.1625   0.6875   0.025
0.1625   0.7125   0.025
0.1625   0.7375   0.025
0.1625   0.7625   0.025
0.1625   0.7875   0.025
0.1625   0.8125   0.025
0.1625   0.8375   0.025
0.1625   0.8625   0.025
0.1625   0.8875   0.025
0.1625   0.9125   0.025
0.1625   0.9375   0.025
0.1625   0.9625   0.025
0.1625   0.9875   0.025
0.1875   0.0125   0.025
0.1875   0.0375   0.025
0.1875   0.0625   0.025
0.1875   0.0875   0.025
0.1875   0.1125   0.025
0.1875   0.1375   0.025
0.1875   0.1625   0.025
0.1875   0.1875   0.025
0.1875   0.2125   0.025
0.1875   0.2375   0.025
0.1875   0.2625   0.025
0.1875   0.2875   0.025
0.1875   0.3125   0.025
0.1875   0.3375   0.025
0.1875   0.3625   0.025
0.1875   0.3875   0.025
0.1875   0.4125   0.025
0.1875   0.4375   0.025
0.1875   0.4625   0.025
0.1875   0.4875   0.025
0.1875   0.5125   0.025
0.1875   0.5375   0.025
0.1875   0.5625   0.025
0.1875   0.5875   0.025
0.1875   0.6125   0.025
0.1875   0.6375   0.025
0.1875   0.6625   0.025
0.1875   0.6875   0.025
0.1875   0.7125   0.025
0.1875   0.7375   0.025
0.1875   0.7625   0.025
0.1875   0.7875   0.025
0.1875   0.8125   0.025
0.1875   0.8375   0.025
0.1875   0.8625   0.025
0.1875   0.8875   0.025
0.1875   0.9125   0.025
0.1875   0.9375   0.025
0.1875   0.9625   0.025
0.1875   0.9875   0.025
0.2125   0.0125   0.025
0.2125   0.0375   0.025
0.2125   0.0625   0.025
0.2125   0.0875   0.025
0.2125   0.1125   0.025
0.2125   0.1375   0.025
0.2125   0.1625   0.025
0.2125   0.1875   0.025
0.2125   0.2125   0.025
0.2125   0.2375   0.025
0.2125   0.2625   0.025
0.2125   0.2875   0.025
0.2125   0.3125   0.025
0.2125   0.3375   0.025
0.2125   0.3625   0.025
0.2125   0.3875   0.025
0.2125   0.4125   0.025
0.2125   0.4375   0.025
0.2125   0.4625   0.025
0.2125   0.4875   0.025
0.2125   0.5125   0.025
0.2125   0.5375   0.025
0.2125   0.5625   0.025
0.2125   0.5875   0.025
0.2125   0.6125   0.025
0.2125   0.6375   0.025
0.2125   0.6625   0.025
0.2125   0.6875   0.025
0.2125   0.7125   0.025
0.2125   0.7375   0.025
0.2125   0.7625   0.025
0.2125   0.7875   0.025
0.2125   0.8125   0.025
0.2125   0.8375   0.025
0.2125   0.8625   0.025
0.2125   0.8875   0.025
0.2125   0.9125   0.025
0.2125   0.9375   0.025
0.2125   0.9625   0.025
0.2125   0.9875   0.025
0.2375   0.0125   0.025
0.2375   0.0375   0.025
0.2375   0.0625   0.025
0.2375   0.0875   0.025
0.2375   0.1125   0.025
0.2375   0.1375   0.025
0.2375   0.1625   0.025
0.2375   0.1875   0.025
0.2375   0.2125   0.025
0.2375   0.2375   0.025
0.2375   0.2625   0.025
0.2375   0.2875   0.025
0.2375   0.3125   0.025
0.2375   0.3375   0.025
0.2375   0.3625   0.025
0.2375   0.3875   0.025
0.2375   0.4125   0.025
0.2375   0.4375   0.025
0.2375   0.4625   0.025
0.2375   0.4875   0.025
0.2375   0.5125   0.025
0.2375   0.5375   0.025
0.2375   0.5625   0.025
0.2375   0.5875   0.025
0.2375   0.6125   0.025
0.2375   0.6375   0.025
0.2375   0.6625   0.025
0.2375   0.6875   0.025
0.2375   0.7125   0.025
0.2375   0.7375   0.025
0.2375   0.7625   0.025
0.2375   0.7875   0.025
0.2375   0.8125   0.025
0.2375   0.8375   0.025
0.2375   0.8625   0.025
0.2375   0.8875   0.025
0.2375   0.9125   0.025
0.2375   0.9375   0.025
0.2375   0.9625   0.025
0.2375   0.9875   0.025
0.2625   0.0125   0.025
0.2625   0.0375   0.025
0.2625   0.0625   0.025
0.2625   0.0875   0.025
0.2625   0.1125   0.025
0.2625   0.1375   0.025
0.2625   0.1625   0.025
0.2625   0.1875   0.025
0.2625   0.2125   0.025
0.2625   0.2375   0.025
0.2625   0.2625   0.025
[...]
POINT_DATA   32000
VECTORS Velocidades double

6.50327e-05 0.00121352 0
0.000254582 0.00217191 0
0.000152364 0.00176176 0
-2.21888e-07 0.00160052 0
-0.00014994 0.00173257 0
-0.0002871 0.00214002 0
-0.000411447 0.00279568 0
-0.000524287 0.00367395 0
-0.000626793 0.00475216 0
-0.000719712 0.0060099 0
-0.000803387 0.0074282 0
-0.000877822 0.0089887 0
-0.000942766 0.0106731 0
-0.000997791 0.0124626 0
-0.00104239 0.0143378 0
-0.00107607 0.0162785 0
-0.00109848 0.0182641 0
-0.00110951 0.0202735 0
-0.00110949 0.0222864 0
-0.00109924 0.0242837 0
-0.00108033 0.0262489 0
-0.00105525 0.0281699 0
-0.00102761 0.0300406 0
-0.00100253 0.0318639 0
-0.000987101 0.0336549 0
-0.000991117 0.0354452 0
-0.00102826 0.03729 0
-0.00111794 0.0392771 0
-0.00128829 0.0415417 0
-0.0015809 0.0442883 0
-0.00205858 0.0478254 0
-0.00281801 0.0526213 0
-0.00401061 0.059393 0
-0.0058767 0.0692512 0
-0.00879522 0.0839305 0
-0.0133174 0.106104 0
-0.019925 0.13949 0
-0.0268833 0.186574 0
-0.0163068 0.230244 0
0.124138 0.123427 0
0.000137655 0.00265191 0
0.000575612 0.00523704 0
0.000252996 0.00521975 0
-0.00028617 0.00554949 0
-0.00086291 0.00638286 0
-0.00141987 0.00776626 0
-0.00194002 0.00969205 0
-0.00241947 0.01213 0
-0.00285818 0.0150414 0
-0.00325677 0.0183846 0
-0.00361539 0.0221169 0
-0.00393347 0.0261947 0
-0.00420974 0.0305735 0
-0.00444239 0.0352071 0
-0.00462945 0.0400478 0
-0.00476911 0.0450463 0
-0.00486019 0.0501523 0
-0.00490268 0.0553157 0
-0.0048983 0.0604875 0
-0.00485111 0.0656229 0
-0.00476824 0.0706835 0
-0.00466067 0.0756411 0
-0.00454425 0.0804825 0
-0.00444104 0.0852148 0
-0.00438109 0.0898731 0
-0.00440521 0.0945295 0
-0.00456895 0.0993055 0
-0.0049486 0.104388 0
-0.00565024 0.110052 0
-0.00682273 0.116686 0
-0.00867627 0.124831 0
-0.0115073 0.135215 0
-0.0157278 0.148778 0
-0.0218845 0.166638 0
-0.0306067 0.189852 0
-0.0422237 0.218578 0
-0.0549928 0.249496 0
-0.0574401 0.268588 0
0.00402689 0.236056 0
0.348642 0.0998438 0
7.41736e-05 0.00386691 0
0.000442797 0.00793455 0
-0.000201025 0.00853732 0
-0.00126466 0.00962915 0
-0.00246057 0.0113468 0
-0.00365974 0.0137575 0
-0.00480702 0.0168734 0
-0.00587989 0.0206731 0
-0.00686947 0.025117 0
-0.00777195 0.0301561 0
-0.00858481 0.0357356 0
-0.0093052 0.0417973 0
-0.00992953 0.0482801 0
-0.0104536 0.0551199 0
-0.0108729 0.0622499 0
-0.0111837 0.0696013 0
-0.0113837 0.0771034 0
-0.0114733 0.0846855 0
-0.0114568 0.0922788 0
-0.0113435 0.099819 0
-0.0111495 0.10725 0
-0.0108995 0.11453 0
-0.0106284 0.121632 0
-0.0103843 0.128558 0
-0.0102318 0.13534 0
-0.0102563 0.142054 0
-0.0105713 0.148829 0
-0.0113264 0.155858 0
-0.0127197 0.163414 0
-0.0150113 0.171857 0
-0.018537 0.181633 0
-0.0237116 0.193244 0
-0.0309972 0.207151 0
-0.0407655 0.223511 0
-0.0528566 0.24158 0
-0.0652626 0.258392 0
-0.0702098 0.266094 0
-0.042584 0.247893 0
0.0914652 0.178975 0
0.513646 0.0642181 0
-0.000143606 0.00500477 0
-0.000200564 0.0104579 0
-0.0013585 0.0116645 0
-0.00306569 0.0135316 0
-0.00499073 0.0161336 0
-0.00695222 0.0195185 0
-0.00885621 0.0236987 0
-0.0106557 0.0286569 0
-0.0123273 0.0343559 0
-0.0138584 0.0407455 0
-0.0152407 0.0477666 0
-0.0164669 0.0553542 0
-0.0175295 0.0634383 0
-0.0184205 0.0719446 0
-0.0191321 0.0807948 0
-0.0196577 0.0899071 0
-0.0199933 0.0991976 0
-0.0201391 0.108581 0
-0.0201018 0.117972 0
-0.0198965 0.127293 0
-0.0195489 0.136468 0
-0.0190983 0.145439 0
-0.0186001 0.154162 0
-0.0181296 0.162616 0
-0.0177862 0.170812 0
-0.0176988 0.178794 0
-0.0180324 0.18665 0
-0.0189963 0.194514 0
-0.0208512 0.202563 0
-0.023913 0.211004 0
-0.0285416 0.220038 0
-0.0350933 0.229776 0
-0.0437808 0.240061 0
-0.0543181 0.250131 0
-0.0650587 0.25798 0
-0.0709296 0.259279 0
-0.058551 0.245923 0
0.00463389 0.205744 0
0.189892 0.129825 0
0.619865 0.0412231 0
-0.00050152 0.00606742 0
-0.00129529 0.0127933 0
-0.00317697 0.0145218 0
-0.0056526 0.0170757 0
-0.00839015 0.020466 0
-0.0111838 0.024705 0
-0.0139129 0.0297903 0
-0.016509 0.0357008 0
-0.0189332 0.0423992 0
-0.0211623 0.0498356 0
-0.0231802 0.0579507 0
-0.0249733 0.0666775 0
-0.0265286 0.0759427 0
-0.0278331 0.0856673 0
-0.0288741 0.0957668 0
-0.029641 0.106152 0
-0.0301268 0.116729 0
-0.0303304 0.127402 0
-0.0302595 0.138074 0
-0.0299332 0.14865 0
-0.0293853 0.15904 0
-0.0286674 0.169163 0
-0.0278523 0.178951 0
-0.027038 0.188353 0
-0.0263518 0.197339 0
-0.0259548 0.205905 0
-0.0260464 0.214071 0
-0.0268672 0.221876 0
-0.0286972 0.229367 0
-0.031841 0.236566 0
-0.0365838 0.243417 0
-0.0430817 0.249677 0
-0.0511132 0.254735 0
-0.0595386 0.257297 0
-0.0651553 0.254903 0
-0.0603312 0.243309 0
-0.0283552 0.216176 0
0.0645381 0.166735 0
0.277987 0.0954395 0
0.689369 0.0276059 0
-0.00097557 0.00702598 0
-0.00276212 0.0148797 0
-0.00555383 0.0170322 0
-0.0089147 0.0201504 0
-0.012534 0.0241918 0
-0.0162037 0.0291319 0
-0.0197911 0.0349468 0
-0.0232137 0.0416058 0
-0.0264207 0.0490686 0
-0.0293786 0.0572853 0
-0.032063 0.0661978 0
-0.0344532 0.0757401 0
-0.0365293 0.0858391 0
-0.0382719 0.0964146 0
-0.0396621 0.107379 0
-0.0406835 0.11864 0
-0.0413242 0.130097 0
-0.0415798 0.141644 0
-0.0414564 0.153175 0
-0.0409745 0.164579 0
-0.0401724 0.175748 0
-0.0391096 0.186579 0
-0.0378708 0.196974 0
-0.0365692 0.206847 0
-0.0353499 0.216125 0
-0.0343919 0.224743 0
-0.0339086 0.232646 0
-0.0341443 0.239777 0
-0.0353602 0.246056 0
-0.0377998 0.251346 0
-0.0416118 0.25539 0
-0.0466861 0.257713 0
-0.0523216 0.257465 0
-0.0565668 0.253185 0
-0.054957 0.242508 0
-0.038207 0.22195 0
0.0116087 0.187277 0
0.126008 0.135757 0
0.352043 0.0722877 0
0.737037 0.0194625 0
-0.0015405 0.00785055 0
-0.00452082 0.0166589 0
-0.00837266 0.0191375 0
-0.012716 0.0226911 0
-0.0172721 0.0272355 0
-0.0218451 0.0327134 0
-0.0263027 0.0390794 0
-0.0305576 0.0462911 0
-0.0345515 0.0543033 0
-0.0382436 0.0630659 0
-0.041602 0.0725224 0
-0.0445984 0.0826094 0
-0.0472055 0.093256 0
-0.049396 0.104383 0
-0.0511432 0.115904 0
-0.0524228 0.127721 0
-0.0532157 0.139732 0
-0.0535114 0.151824 0
-0.0533116 0.163877 0
-0.0526343 0.175769 0
-0.0515177 0.187373 0
-0.0500246 0.198561 0
-0.0482449 0.209208 0
-0.0462992 0.21919 0
-0.0443398 0.228389 0
-0.0425505 0.236686 0
-0.0411425 0.243956 0
-0.0403429 0.250059 0
-0.04037 0.254815 0
-0.0413802 0.257971 0
-0.0433642 0.259149 0
-0.0459424 0.257758 0
-0.0479786 0.252882 0
-0.046866 0.243124 0
-0.0372694 0.226474 0
-0.00907508 0.200353 0
0.0554602 0.16231 0
0.184267 0.112184 0
0.413585 0.0565849 0
0.771465 0.0144232 0
-0.00217274 0.00851762 0
-0.00649609 0.0180869 0
-0.0115198 0.0208003 0
-0.016918 0.024666 0
-0.0224492 0.0295681 0
-0.027939 0.0354231 0
-0.0332652 0.0421673 0
-0.038343 0.0497472 0
-0.0431127 0.0581129 0
-0.0475291 0.067214 0
-0.0515545 0.0769963 0
-0.0551535 0.0873999 0
-0.0582908 0.0983575 0
-0.0609299 0.109793 0
-0.0630346 0.12162 0
-0.0645706 0.133741 0
-0.0655089 0.14605 0
-0.0658296 0.158427 0
-0.0655266 0.170744 0
-0.0646113 0.182862 0
-0.063118 0.194639 0
-0.0611068 0.205923 0
-0.0586675 0.216561 0
-0.0559205 0.226397 0
-0.0530175 0.235271 0
-0.0501374 0.243017 0
-0.0474782 0.249455 0
-0.0452386 0.254384 0
-0.0435835 0.257554 0
-0.042577 0.258646 0
-0.0420578 0.257222 0
-0.041409 0.252665 0
-0.0391426 0.244098 0
-0.0321774 0.2303 0
-0.0146613 0.209683 0
0.0237458 0.180493 0
0.0998383 0.141593 0
0.237733 0.0943283 0
0.465071 0.0456746 0
0.797553 0.0111708 0
-0.00285128 0.00901076 0
-0.0086199 0.0191347 0
-0.0148902 0.0220002 0
-0.0213894 0.0260641 0
-0.0279159 0.0311875 0
-0.034323 0.0372676 0
-0.0405054 0.0442266 0
-0.0463874 0.0520027 0
-0.0519126 0.0605428 0
-0.057035 0.0697972 0
-0.0617128 0.079715 0
-0.0659044 0.0902407 0
-0.0695659 0.101312 0
-0.0726506 0.112855 0
-0.0751108 0.124788 0
-0.0768998 0.137013 0
-0.0779758 0.149419 0
-0.0783066 0.161883 0
-0.0778741 0.174265 0
-0.07668 0.186417 0
-0.0747497 0.198176 0
-0.0721368 0.209372 0
-0.0689255 0.219827 0
-0.0652314 0.229354 0
-0.0611999 0.237761 0
-0.0569995 0.244845 0
-0.0528098 0.250388 0
-0.0487978 0.254144 0
-0.045075 0.255828 0
-0.0416206 0.255088 0
-0.0381425 0.251477 0
-0.0338316 0.244401 0
-0.0269369 0.233077 0
-0.0140656 0.216494 0
0.0108773 0.193463 0
0.0580656 0.162896 0
0.142991 0.124567 0
0.286208 0.0806413 0
0.508695 0.0378557 0
0.81815 0.00897543 0
-0.00355775 0.00931944 0
-0.0108318 0.0197848 0
-0.0183889 0.0227281 0
-0.0260089 0.0268863 0
-0.0335324 0.0321051 0
-0.0408442 0.0382684 0
-0.0478614 0.0452895 0
-0.0545222 0.0531019 0
-0.0607775 0.061652 0
-0.0665836 0.0708923 0
-0.0718967 0.0807767 0
-0.0766691 0.0912552 0
-0.0808481 0.102271 0
-0.0843758 0.113756 0
-0.0871908 0.125631 0
-0.0892315 0.137798 0
-0.0904406 0.150146 0
-0.0907699 0.162545 0
-0.0901865 0.174848 0
-0.0886779 0.186894 0
-0.0862576 0.198506 0
-0.0829688 0.209495 0
-0.0788869 0.219661 0
-0.0741193 0.228794 0
-0.0688023 0.236676 0
-0.0630923 0.243077 0
-0.0571499 0.247753 0
-0.0511124 0.250437 0
-0.0450447 0.250825 0
-0.0388543 0.248564 0
-0.0321443 0.243221 0
-0.0239593 0.234257 0
-0.0123643 0.220998 0
0.00621443 0.202637 0
0.0379176 0.178328 0
0.0925164 0.147489 0
0.184084 0.110504 0
0.330019 0.0699424 0
0.546169 0.0320608 0
0.834963 0.00742523 0
-0.00427604 0.00943753 0
-0.0130779 0.0200277 0
-0.0219301 0.0229817 0
-0.0306655 0.0271394 0
-0.0391689 0.0323369 0
-0.0473601 0.0384512 0
-0.0551821 0.0453916 0
-0.0625909 0.0530912 0
-0.0695483 0.0614985 0
-0.0760149 0.0705711 0
-0.0819461 0.0802691 0
-0.0872891 0.0905498 0
-0.0919818 0.101363 0
-0.0959533 0.112647 0
-0.0991269 0.124326 0
-0.101424 0.136305 0
-0.102767 0.148471 0
-0.103091 0.16069 0
-0.102343 0.172808 0
-0.100494 0.184653 0
-0.0975417 0.196035 0
-0.0935172 0.206748 0
-0.0884845 0.216575 0
-0.0825415 0.225288 0
-0.0758149 0.232648 0
-0.0684495 0.23841 0
-0.06059 0.242313 0
-0.0523491 0.244082 0
-0.0437542 0.243412 0
-0.0346571 0.239961 0
-0.0245808 0.233329 0
-0.0124639 0.223038 0
0.00374746 0.208525 0
0.0277089 0.189165 0
0.065471 0.164386 0
0.12627 0.133985 0
0.22277 0.0987412 0
0.369643 0.0613818 0
0.578763 0.027617 0
0.849046 0.00628142 0
-0.00499168 0.00936209 0
-0.0153097 0.0198599 0
-0.0254354 0.0227626 0
-0.0352567 0.0268316 0
-0.0447048 0.0318989 0
-0.0537372 0.0378401 0
-0.0623259 0.0445656 0
-0.0704476 0.0520117 0
-0.078077 0.060133 0
-0.0851813 0.0688945 0
-0.0917161 0.0782647 0
-0.097623 0.0882098 0
-0.10283 0.098688 0
-0.107252 0.109645 0
-0.110795 0.121009 0
-0.11336 0.132689 0
-0.114849 0.144572 0
-0.115172 0.156521 0
-0.114257 0.168377 0
-0.112055 0.179957 0
-0.108544 0.19106 0
-0.103742 0.201467 0
-0.0977007 0.210947 0
-0.0905076 0.219256 0
-0.0822814 0.226144 0
-0.073158 0.231352 0
-0.0632703 0.234616 0
-0.0527134 0.235658 0
-0.0414871 0.234182 0
-0.0294021 0.229867 0
-0.0159232 0.22235 0
8.3355e-05 0.211216 0
0.0207398 0.196 0
0.0497096 0.176231 0
0.092863 0.151557 0
0.158836 0.122048 0
0.258953 0.0887329 0
0.405551 0.0543579 0
0.607408 0.0240927 0
0.861069 0.0054014 0
-0.00569131 0.00909269 0
-0.0174819 0.0192817 0
-0.0288317 0.0220745 0
-0.0396865 0.0259715 0
-0.0500266 0.0308057 0
-0.0598497 0.0364562 0
-0.0691591 0.042839 0
-0.0779542 0.0498984 0
-0.0862248 0.0575978 0
-0.0939451 0.0659124 0
-0.101072 0.0748214 0
-0.10754 0.0843016 0
-0.113269 0.0943212 0
-0.118156 0.104834 0
-0.122088 0.115776 0
-0.124942 0.12706 0
-0.126598 0.138573 0
-0.126939 0.150179 0
-0.125869 0.161712 0
-0.123315 0.172984 0
-0.119239 0.183784 0
-0.113638 0.193881 0
-0.106553 0.203033 0
-0.0980641 0.210986 0
-0.0882823 0.217479 0
-0.0773383 0.222249 0
-0.0653585 0.225028 0
-0.0524272 0.225545 0
-0.0385261 0.223517 0
-0.0234374 0.218645 0
-0.00658603 0.210603 0
0.0132074 0.199034 0
0.0380943 0.18356 0
0.0716917 0.163835 0
0.119631 0.139677 0
0.189924 0.111356 0
0.29265 0.0800493 0
0.438153 0.0484435 0
0.632779 0.021205 0
0.871472 0.00469705 0
-0.00636202 0.00863108 0
-0.0195516 0.0182971 0
-0.0320496 0.0209235 0
-0.0438638 0.0245684 0
-0.0550266 0.0290708 0
-0.0655781 0.0343182 0
-0.0755546 0.0402367 0
-0.0849798 0.0467818 0
-0.0938591 0.0539293 0
-0.102175 0.0616669 0
-0.109885 0.0699868 0
-0.116918 0.078878 0
-0.123181 0.0883204 0
-0.128555 0.0982782 0
-0.132904 0.108695 0
-0.136082 0.11949 0
-0.137938 0.130555 0
-0.13833 0.141752 0
-0.137133 0.152913 0
-0.134249 0.163846 0
-0.129617 0.174331 0
-0.123219 0.184131 0
-0.115084 0.192992 0
-0.105281 0.200653 0
-0.0939208 0.206848 0
-0.0811305 0.211309 0
-0.0670355 0.213771 0
-0.0517155 0.213968 0
-0.0351426 0.211633 0
-0.0170811 0.206488 0
0.00306953 0.198241 0
0.0265131 0.186586 0
0.0553993 0.171217 0
0.0932599 0.151889 0
0.145451 0.128555 0
0.219358 0.101622 0
0.323921 0.0723529 0
0.467785 0.0433305 0
0.655366 0.0187627 0
0.880551 0.00411195 0
-0.00699093 0.00798142 0
-0.0214763 0.0169148 0
-0.0350216 0.019319 0
-0.0477009 0.0226341 0
-0.0596016 0.0267097 0
-0.0708082 0.0314462 0
-0.0813911 0.0367838 0
-0.091399 0.0426926 0
-0.100853 0.0491633 0
-0.109745 0.0561985 0
-0.118032 0.0638049 0
-0.125637 0.0719859 0
-0.132453 0.0807343 0
-0.138343 0.0900265 0
-0.143148 0.0998162 0
-0.146692 0.110031 0
-0.148796 0.120567 0
-0.149287 0.13129 0
-0.148008 0.142033 0
-0.144834 0.152599 0
-0.139682 0.162764 0
-0.132514 0.172285 0
-0.123346 0.180902 0
-0.112244 0.188346 0
-0.0993129 0.194347 0
-0.0846845 0.198637 0
-0.0684863 0.200951 0
-0.0507996 0.201032 0
-0.0315932 0.198623 0
-0.0106223 0.193468 0
0.0127271 0.185304 0
0.0396665 0.173865 0
0.0723202 0.158906 0
0.114106 0.140263 0
0.170082 0.11799 0
0.247024 0.0925954 0
0.352835 0.0653769 0
0.494705 0.0387917 0
0.675525 0.0166324 0
0.888504 0.00360848 0
-0.00756495 0.00715056 0
-0.0232141 0.0151485 0
-0.0376818 0.0172756 0
-0.0511132 0.0201853 0
-0.0636531 0.0237428 0
-0.0754313 0.0278656 0
-0.0865531 0.0325115 0
-0.097092 0.0376677 0
-0.107086 0.0433419 0
-0.116533 0.0495533 0
-0.125391 0.0563248 0
-0.133578 0.0636752 0
-0.140971 0.0716122 0
-0.147413 0.0801258 0
-0.152719 0.0891824 0
-0.156685 0.0987195 0
-0.159098 0.108642 0
-0.159751 0.118822 0
-0.158454 0.129094 0
-0.155054 0.139261 0
-0.149439 0.1491 0
-0.141554 0.158361 0
-0.131401 0.166779 0
-0.119041 0.174083 0
-0.104579 0.179998 0
-0.0881526 0.184254 0
-0.0698949 0.186588 0
-0.0498935 0.186749 0
-0.0281197 0.184491 0
-0.00432624 0.179571 0
0.0221046 0.171751 0
0.0523781 0.160798 0
0.0885748 0.146514 0
0.133977 0.128801 0
0.193334 0.107791 0
0.272835 0.084058 0
0.379443 0.0589067 0
0.519107 0.0346551 0
0.693507 0.0147181 0
0.895467 0.00316056 0
-0.00807064 0.00614871 0
-0.0247231 0.0130187 0
-0.0399661 0.014815 0
-0.0540196 0.0172467 0
-0.0670874 0.0201997 0
-0.079345 0.0236123 0
-0.0909316 0.0274623 0
-0.101945 0.0317563 0
-0.11244 0.0365202 0
-0.12242 0.0417909 0
-0.131845 0.0476082 0
-0.140623 0.0540078 0
-0.148618 0.0610134 0
-0.155652 0.0686309 0
-0.161513 0.0768411 0
-0.165965 0.085595 0
-0.16876 0.0948094 0
-0.169654 0.104364 0
-0.168424 0.114102 0
-0.164881 0.12383 0
-0.158888 0.133325 0
-0.150366 0.142336 0
-0.139306 0.150598 0
-0.125761 0.157833 0
-0.10984 0.163764 0
-0.091685 0.16812 0
-0.0714405 0.170639 0
-0.0492029 0.17107 0
-0.0249503 0.169174 0
0.00156108 0.16472 0
0.0309448 0.157486 0
0.0643888 0.147266 0
0.103914 0.133899 0
0.152653 0.117338 0
0.215041 0.0977717 0
0.296709 0.0758182 0
0.403773 0.0527657 0
0.541122 0.0307862 0
0.709485 0.0129477 0
0.901532 0.00274929 0
-0.00849432 0.00498998 0
-0.0259622 0.0105543 0
-0.0418132 0.0119684 0
-0.0563441 0.0138542 0
-0.0698178 0.0161228 0
-0.0824542 0.0187366 0
-0.0944255 0.0216954 0
-0.105853 0.0250259 0
-0.116804 0.028773 0
-0.127293 0.0329913 0
-0.137275 0.0377381 0
-0.146652 0.0430663 0
-0.155274 0.0490173 0
-0.162941 0.0556142 0
-0.169414 0.0628551 0
-0.174423 0.0707076 0
-0.177684 0.0791039 0
-0.178916 0.0879372 0
-0.177855 0.0970615 0
-0.174278 0.106292 0
-0.168016 0.115411 0
-0.158968 0.124169 0
-0.147108 0.132302 0
-0.132485 0.139529 0
-0.115207 0.145571 0
-0.0954249 0.150153 0
-0.0732946 0.15301 0
-0.0489241 0.153892 0
-0.0223018 0.152561 0
0.00680787 0.148793 0
0.0390077 0.142376 0
0.0754579 0.133122 0
0.118109 0.120899 0
0.16993 0.1057 0
0.235045 0.0877548 0
0.318558 0.0677048 0
0.425823 0.0468046 0
0.560829 0.0270767 0
0.723571 0.0112653 0
0.906756 0.00236044 0
-0.00882244 0.00369295 0
-0.0268924 0.00779378 0
-0.0431662 0.00877833 0
-0.0580176 0.0100571 0
-0.0717664 0.0115708 0
-0.0846743 0.0133078 0
-0.096944 0.0152911 0
-0.108718 0.0175676 0
-0.120077 0.0202004 0
-0.131041 0.0232615 0
-0.141565 0.0268253 0
-0.151544 0.0309621 0
-0.160814 0.0357315 0
-0.169153 0.0411758 0
-0.176294 0.0473131 0
-0.181937 0.054131 0
-0.185758 0.0615814 0
-0.187436 0.0695762 0
-0.186666 0.0779857 0
-0.183186 0.0866389 0
-0.176793 0.0953269 0
-0.16736 0.103809 0
-0.154843 0.111821 0
-0.13928 0.119085 0
-0.120782 0.125316 0
-0.0995056 0.130236 0
-0.0756192 0.133576 0
-0.0492441 0.13508 0
-0.0203812 0.134508 0
0.0111927 0.131636 0
0.0460632 0.126257 0
0.0853549 0.118196 0
0.130936 0.107342 0
0.185609 0.0937137 0
0.253185 0.0775704 0
0.338277 0.0595616 0
0.445559 0.0408939 0
0.578258 0.0234361 0
0.735827 0.00962593 0
0.911169 0.00198285 0
-0.00904201 0.00228107 0
-0.027478 0.00478624 0
-0.0439751 0.00530027 0
-0.0589806 0.00592051 0
-0.0728668 0.0066207 0
-0.085933 0.00741681 0
-0.0984089 0.00835442 0
-0.110455 0.0094997 0
-0.122164 0.0109325 0
-0.133562 0.0127408 0
-0.144603 0.0150148 0
-0.155177 0.0178418 0
-0.165105 0.0213002 0
-0.174149 0.0254526 0
-0.182014 0.0303398 0
-0.188367 0.0359733 0
-0.192847 0.0423295 0
-0.19509 0.0493446 0
-0.19475 0.0569114 0
-0.191522 0.064879 0
-0.185164 0.0730545 0
-0.17552 0.0812089 0
-0.162521 0.0890843 0
-0.146195 0.0964042 0
-0.126649 0.102883 0
-0.104045 0.108236 0
-0.0785636 0.112186 0
-0.0503387 0.11447 0
-0.0193861 0.114841 0
0.0145017 0.113069 0
0.0518876 0.108946 0
0.0938525 0.102303 0
0.142175 0.0930418 0
0.199482 0.0812003 0
0.269287 0.067053 0
0.355741 0.0512434 0
0.462912 0.0349178 0
0.593399 0.0197869 0
0.74627 0.00799207 0
0.914783 0.00160745 0
-0.00914137 0.000782813 0
-0.0276889 0.00159198 0
-0.0441993 0.00160332 0
-0.0591864 0.00152625 0
-0.0730677 0.00136993 0
-0.0861743 0.00117791 0
-0.0987576 0.00101709 0
-0.110994 0.000970619 0
-0.122985 0.00113273 0
-0.134763 0.00160467 0
-0.146283 0.00249079 0
-0.15743 0.00389412 0
-0.168016 0.00591139 0
-0.177784 0.00862699 0
-0.186418 0.0121063 0
-0.193553 0.0163887 0
-0.198792 0.0214801 0
-0.201729 0.0273474 0
-0.201971 0.033913 0
-0.19917 0.0410534 0
-0.193042 0.0485992 0
-0.183392 0.0563393 0
-0.170126 0.0640278 0
-0.153251 0.0713933 0
-0.132869 0.0781494 0
-0.109143 0.0840054 0
-0.0822609 0.0886749 0
-0.0523713 0.0918825 0
-0.019505 0.0933684 0
0.0165267 0.0928922 0
0.0562589 0.0902401 0
0.100722 0.0852419 0
0.151597 0.0778056 0
0.211336 0.0679784 0
0.283159 0.056039 0
0.370794 0.0426119 0
0.477779 0.0287702 0
0.606197 0.0160602 0
0.754885 0.00633139 0
0.917593 0.00122659 0
-0.00911096 -0.000768426 0
-0.0275027 -0.00171773 0
-0.0438108 -0.00222979 0
-0.0586042 -0.0030271 0
-0.0723362 -0.00406412 0
-0.0853613 -0.00527101 0
-0.0979469 -0.0065621 0
-0.110281 -0.00784057 0
-0.122474 -0.00900133 0
-0.134563 -0.00993301 0
-0.146506 -0.0105201 0
-0.158186 -0.0106459 0
-0.169409 -0.0101963 0
-0.179905 -0.009065 0
-0.189339 -0.00715997 0
-0.197318 -0.00441086 0
-0.203411 -0.000776767 0
-0.207171 0.00374611 0
-0.208159 0.00911801 0
-0.205979 0.0152512 0
-0.2003 0.0220084 0
-0.190885 0.0292048 0
-0.177602 0.0366132 0
-0.160437 0.0439728 0
-0.139473 0.0509994 0
-0.114871 0.0573968 0
-0.0868231 0.0628672 0
-0.0554891 0.06712 0
-0.0209154 0.0698785 0
0.0170652 0.0708867 0
0.0589552 0.0699185 0
0.105728 0.0667968 0
0.158963 0.0614281 0
0.220935 0.0538599 0
0.294587 0.0443638 0
0.383256 0.0335315 0
0.490022 0.0223502 0
0.616563 0.0121924 0
0.761622 0.00461491 0
0.919578 0.000833553 0
-0.00894428 -0.00233483 0
-0.026907 -0.00506166 0
-0.0427968 -0.00610373 0
-0.0572226 -0.00762534 0
-0.0706607 -0.00954522 0
-0.0834796 -0.0117699 0
-0.0959564 -0.0141986 0
-0.108286 -0.0167251 0
-0.120587 -0.0192378 0
-0.1329 -0.0216194 0
-0.145189 -0.0237471 0
-0.15734 -0.0254933 0
-0.169155 -0.0267288 0
-0.180358 -0.0273259 0
-0.1906 -0.0271654 0
-0.199467 -0.0261431 0
-0.206497 -0.0241788 0
-0.211204 -0.0212249 0
-0.213106 -0.0172754 0