# vtk DataFile Version 2.0
Presion
ASCII

DATASET STRUCTURED_GRID
DIMENSIONS   40   40   20

POINTS   32000   double
0.0125   0.0125   0.025
0.0375   0.0125   0.025
0.0625   0.0125   0.025
0.0875   0.0125   0.025
0.1125   0.0125   0.025
0.1375   0.0125   0.025
0.1625   0.0125   0.025
0.1875   0.0125   0.025
0.2125   0.0125   0.025
0.2375   0.0125   0.025
0.2625   0.0125   0.025
0.2875   0.0125   0.025
0.3125   0.0125   0.025
0.3375   0.0125   0.025
0.3625   0.0125   0.025
0.3875   0.0125   0.025
0.4125   0.0125   0.025
0.4375   0.0125   0.025
0.4625   0.0125   0.025
0.4875   0.0125   0.025
0.5125   0.0125   0.025
0.5375   0.0125   0.025
0.5625   0.0125   0.025
0.5875   0.0125   0.025
0.6125   0.0125   0.025
0.6375   0.0125   0.025
0.6625   0.0125   0.025
0.6875   0.0125   0.025
0.7125   0.0125   0.025
0.7375   0.0125   0.025
0.7625   0.0125   0.025
0.7875   0.0125   0.025
0.8125   0.0125   0.025
0.8375   0.0125   0.025
0.8625   0.0125   0.025
0.8875   0.0125   0.025
0.9125   0.0125   0.025
0.9375   0.0125   0.025
0.9625   0.0125   0.025
0.9875   0.0125   0.025
0.0125   0.0375   0.025
0.0375   0.0375   0.025
0.0625   0.0375   0.025
0.0875   0.0375   0.025
0.1125   0.0375   0.025
0.1375   0.0375   0.025
0.1625   0.0375   0.025
0.1875   0.0375   0.025
0.2125   0.0375   0.025
0.2375   0.0375   0.025
0.2625   0.0375   0.025
0.2875   0.0375   0.025
0.3125   0.0375   0.025
0.3375   0.0375   0.025
0.3625   0.0375   0.025
0.3875   0.0375   0.025
0.4125   0.0375   0.025
0.4375   0.0375   0.025
0.4625   0.0375   0.025
0.4875   0.0375   0.025
0.5125   0.0375   0.025
0.5375   0.0375   0.025
0.5625   0.0375   0.025
0.5875   0.0375   0.025
0.6125   0.0375   0.025
0.6375   0.0375   0.025
0.6625   0.0375   0.025
0.6875   0.0375   0.025
0.7125   0.0375   0.025
0.7375   0.0375   0.025
0.7625   0.0375   0.025
0.7875   0.0375   0.025
0.8125   0.0375   0.025
0.8375   0.0375   0.025
0.8625   0.0375   0.025
0.8875   0.0375   0.025
0.9125   0.0375   0.025
0.9375   0.0375   0.025
0.9625   0.0375   0.025
0.9875   0.0375   0.025
0.0125   0.0625   0.025
0.0375   0.0625   0.025
0.0625   0.0625   0.025
0.0875   0.0625   0.025
0.1125   0.0625   0.025
0.1375   0.0625   0.025
0.1625   0.0625   0.025
0.1875   0.0625   0.025
0.2125   0.0625   0.025
0.2375   0.0625   0.025
0.2625   0.0625   0.025
0.2875   0.0625   0.025
0.3125   0.0625   0.025
0.3375   0.0625   0.025
0.3625   0.0625   0.025
0.3875   0.0625   0.025
0.4125   0.0625   0.025
0.4375   0.0625   0.025
0.4625   0.0625   0.025
0.4875   0.0625   0.025
0.5125   0.0625   0.025
0.5375   0.0625   0.025
0.5625   0.0625   0.025
0.5875   0.0625   0.025
0.6125   0.0625   0.025
0.6375   0.0625   0.025
0.6625   0.0625   0.025
0.6875   0.0625   0.025
0.7125   0.0625   0.025
0.7375   0.0625   0.025
0.7625   0.0625   0.025
0.7875   0.0625   0.025
0.8125   0.0625   0.025
0.8375   0.0625   0.025
0.8625   0.0625   0.025
0.8875   0.0625   0.025
0.9125   0.0625   0.025
0.9375   0.0625   0.025
0.9625   0.0625   0.025
0.9875   0.0625   0.025
0.0125   0.0875   0.025
0.0375   0.0875   0.025
0.0625   0.0875   0.025
0.0875   0.0875   0.025
0.1125   0.0875   0.025
0.1375   0.0875   0.025
0.1625   0.0875   0.025
0.1875   0.0875   0.025
0.2125   0.0875   0.025
0.2375   0.0875   0.025
0.2625   0.0875   0.025
0.2875   0.0875   0.025
0.3125   0.0875   0.025
0.3375   0.0875   0.025
0.3625   0.0875   0.025
0.3875   0.0875   0.025
0.4125   0.0875   0.025
0.4375   0.0875   0.025
0.4625   0.0875   0.025
0.4875   0.0875   0.025
0.5125   0.0875   0.025
0.5375   0.0875   0.025
0.5625   0.0875   0.025
0.5875   0.0875   0.025
0.6125   0.0875   0.025
0.6375   0.0875   0.025
0.6625   0.0875   0.025
0.6875   0.0875   0.025
0.7125   0.0875   0.025
0.7375   0.0875   0.025
0.7625   0.0875   0.025
0.7875   0.0875   0.025
0.8125   0.0875   0.025
0.8375   0.0875   0.025
0.8625   0.0875   0.025
0.8875   0.0875   0.025
0.9125   0.0875   0.025
0.9375   0.0875   0.025
0.9625   0.0875   0.025
0.9875   0.0875   0.025
0.0125   0.1125   0.025
0.0375   0.1125   0.025
0.0625   0.1125   0.025
0.0875   0.1125   0.025
0.1125   0.1125   0.025
0.1375   0.1125   0.025
0.1625   0.1125   0.025
0.1875   0.1125   0.025
0.2125   0.1125   0.025
0.2375   0.1125   0.025
0.2625   0.1125   0.025
0.2875   0.1125   0.025
0.3125   0.1125   0.025
0.3375   0.1125   0.025
0.3625   0.1125   0.025
0.3875   0.1125   0.025
0.4125   0.1125   0.025
0.4375   0.1125   0.025
0.4625   0.1125   0.025
0.4875   0.1125   0.025
0.5125   0.1125   0.025
0.5375   0.1125   0.025
0.5625   0.1125   0.025
0.5875   0.1125   0.025
0.6125   0.1125   0.025
0.6375   0.1125   0.025
0.6625   0.1125   0.025
0.6875   0.1125   0.025
0.7125   0.1125   0.025
0.7375   0.1125   0.025
0.7625   0.1125   0.025
0.7875   0.1125   0.025
0.8125   0.1125   0.025
0.8375   0.1125   0.025
0.8625   0.1125   0.025
0.8875   0.1125   0.025
0.9125   0.1125   0.025
0.9375   0.1125   0.025
0.9625   0.1125   0.025
0.9875   0.1125   0.025
0.0125   0.1375   0.025
0.0375   0.1375   0.025
0.0625   0.1375   0.025
0.0875   0.1375   0.025
0.1125   0.1375   0.025
0.1375   0.1375   0.025
0.1625   0.1375   0.025
0.1875   0.1375   0.025
0.2125   0.1375   0.025
0.2375   0.1375   0.025
0.2625   0.1375   0.025
0.2875   0.1375   0.025
0.3125   0.1375   0.025
0.3375   0.1375   0.025
0.3625   0.1375   0.025
0.3875   0.1375   0.025
0.4125   0.1375   0.025
0.4375   0.1375   0.025
0.4625   0.1375   0.025
0.4875   0.1375   0.025
0.5125   0.1375   0.025
0.5375   0.1375   0.025
0.5625   0.1375   0.025
0.5875   0.1375   0.025
0.6125   0.1375   0.025
0.6375   0.1375   0.025
0.6625   0.1375   0.025
0.6875   0.1375   0.025
0.7125   0.1375   0.025
0.7375   0.1375   0.025
0.7625   0.1375   0.025
0.7875   0.1375   0.025
0.8125   0.1375   0.025
0.8375   0.1375   0.025
0.8625   0.1375   0.025
0.8875   0.1375   0.025
0.9125   0.1375   0.025
0.9375   0.1375   0.025
0.9625   0.1375   0.025
0.9875   0.1375   0.025
0.0125   0.1625   0.025
0.0375   0.1625   0.025
0.0625   0.1625   0.025
0.0875   0.1625   0.025
0.1125   0.1625   0.025
0.1375   0.1625   0.025
0.1625   0.1625   0.025
0.1875   0.1625   0.025
0.2125   0.1625   0.025
0.2375   0.1625   0.025
0.2625   0.1625   0.025
0.2875   0.1625   0.025
0.3125   0.1625   0.025
0.3375   0.1625   0.025
0.3625   0.1625   0.025
0.3875   0.1625   0.025
0.4125   0.1625   0.025
0.4375   0.1625   0.025
0.4625   0.1625   0.025
0.4875   0.1625   0.025
0.5125   0.1625   0.025
0.5375   0.1625   0.025
0.5625   0.1625   0.025
0.5875   0.1625   0.025
0.6125   0.1625   0.025
0.6375   0.1625   0.025
0.6625   0.1625   0.025
0.6875   0.1625   0.025
0.7125   0.1625   0.025
0.7375   0.1625   0.025
0.7625   0.1625   0.025
0.7875   0.1625   0.025
0.8125   0.1625   0.025
0.8375   0.1625   0.025
0.8625   0.1625   0.025
0.8875   0.1625   0.025
0.9125   0.1625   0.025
0.9375   0.1625   0.025
0.9625   0.1625   0.025
0.9875   0.1625   0.025
0.0125   0.1875   0.025
0.0375   0.1875   0.025
0.0625   0.1875   0.025
0.0875   0.1875   0.025
0.1125   0.1875   0.025
0.1375   0.1875   0.025
0.1625   0.1875   0.025
0.1875   0.1875   0.025
0.2125   0.1875   0.025
0.2375   0.1875   0.025
0.2625   0.1875   0.025
0.2875   0.1875   0.025
0.3125   0.1875   0.025
0.3375   0.1875   0.025
0.3625   0.1875   0.025
0.3875   0.1875   0.025
0.4125   0.1875   0.025
0.4375   0.1875   0.025
0.4625   0.1875   0.025
0.4875   0.1875   0.025
0.5125   0.1875   0.025
0.5375   0.1875   0.025
0.5625   0.1875   0.025
0.5875   0.1875   0.025
0.6125   0.1875   0.025
0.6375   0.1875   0.025
0.6625   0.1875   0.025
0.6875   0.1875   0.025
0.7125   0.1875   0.025
0.7375   0.1875   0.025
0.7625   0.1875   0.025
0.7875   0.1875   0.025
0.8125   0.1875   0.025
0.8375   0.1875   0.025
0.8625   0.1875   0.025
0.8875   0.1875   0.025
0.9125   0.1875   0.025
0.9375   0.1875   0.025
0.9625   0.1875   0.025
0.9875   0.1875   0.025
0.0125   0.2125   0.025
0.0375   0.2125   0.025
0.0625   0.2125   0.025
0.0875   0.2125   0.025
0.1125   0.2125   0.025
0.1375   0.2125   0.025
0.1625   0.2125   0.025
0.1875   0.2125   0.025
0.2125   0.2125   0.025
0.2375   0.2125   0.025
0.2625   0.2125   0.025
0.2875   0.2125   0.025
0.3125   0.2125   0.025
0.3375   0.2125   0.025
0.3625   0.2125   0.025
0.3875   0.2125   0.025
0.4125   0.2125   0.025
0.4375   0.2125   0.025
0.4625   0.2125   0.025
0.4875   0.2125   0.025
0.5125   0.2125   0.025
0.5375   0.2125   0.025
0.5625   0.2125   0.025
0.5875   0.2125   0.025
0.6125   0.2125   0.025
0.6375   0.2125   0.025
0.6625   0.2125   0.025
0.6875   0.2125   0.025
0.7125   0.2125   0.025
0.7375   0.2125   0.025
0.7625   0.2125   0.025
0.7875   0.2125   0.025
0.8125   0.2125   0.025
0.8375   0.2125   0.025
0.8625   0.2125   0.025
0.8875   0.2125   0.025
0.9125   0.2125   0.025
0.9375   0.2125   0.025
0.9625   0.2125   0.025
0.9875   0.2125   0.025
0.0125   0.2375   0.025
0.0375   0.2375   0.025
0.0625   0.2375   0.025
0.0875   0.2375   0.025
0.1125   0.2375   0.025
0.1375   0.2375   0.025
0.1625   0.2375   0.025
0.1875   0.2375   0.025
0.2125   0.2375   0.025
0.2375   0.2375   0.025
0.2625   0.2375   0.025
0.2875   0.2375   0.025
0.3125   0.2375   0.025
0.3375   0.2375   0.025
0.3625   0.2375   0.025
0.3875   0.2375   0.025
0.4125   0.2375   0.025
0.4375   0.2375   0.025
0.4625   0.2375   0.025
0.4875   0.2375   0.025
0.5125   0.2375   0.025
0.5375   0.2375   0.025
0.5625   0.2375   0.025
0.5875   0.2375   0.025
0.6125   0.2375   0.025
0.6375   0.2375   0.025
0.6625   0.2375   0.025
0.6875   0.2375   0.025
0.7125   0.2375   0.025
0.7375   0.2375   0.025
0.7625   0.2375   0.025
0.7875   0.2375   0.025
0.8125   0.2375   0.025
0.8375   0.2375   0.025
0.8625   0.2375   0.025
0.8875   0.2375   0.025
0.9125   0.2375   0.025
0.9375   0.2375   0.025
0.9625   0.2375   0.025
0.9875   0.2375   0.025
0.0125   0.2625   0.025
0.0375   0.2625   0.025
0.0625   0.2625   0.025
0.0875   0.2625   0.025
0.1125   0.2625   0.025
0.1375   0.2625   0.025
0.1625   0.2625   0.025
0.1875   0.2625   0.025
0.2125   0.2625   0.025
0.2375   0.2625   0.025
0.2625   0.2625   0.025
[...]
POINT_DATA   32000
SCALARS Presion double
LOOKUP_TABLE   Presion

0 0 0 0 0 0 0 0 0 0 0 0 0 0 0 0 0 0 0 0 0 0 0 0 0 0 0 0 0 0 0 0 0 0 0 0 0 0 0 0 -4.27646e-06 -4.24076e-06 -4.17345e-06 -4.07697e-06 -3.95313e-06 -3.80348e-06 -3.62946e-06 -3.43243e-06 -3.21362e-06 -2.97418e-06 -2.71504e-06 -2.43778e-06 -2.14211e-06 -1.82837e-06 -1.49665e-06 -1.14689e-06 -7.78862e-07 -3.92264e-07 1.32195e-08 4.37827e-07 8.81623e-07 1.34419e-06 1.82516e-06 2.32341e-06 2.83722e-06 3.3641e-06 3.90074e-06 4.44294e-06 4.98553e-06 5.52241e-06 6.04663e-06 6.55143e-06 7.02767e-06 7.46691e-06 7.86077e-06 8.20138e-06 8.48173e-06 8.69613e-06 8.84059e-06 8.91328e-06 -8.56387e-06 -8.49274e-06 -8.35812e-06 -8.16484e-06 -7.91658e-06 -7.61654e-06 -7.26769e-06 -6.87279e-06 -6.43445e-06 -5.95496e-06 -5.43629e-06 -4.88159e-06 -4.29033e-06 -3.66318e-06 -3.00033e-06 -2.3016e-06 -1.56651e-06 -7.94395e-07 1.5451e-08 8.63584e-07 1.75023e-06 2.67464e-06 3.63618e-06 4.63273e-06 5.66091e-06 6.71589e-06 7.79111e-06 8.87821e-06 9.96688e-06 1.10449e-05 1.20983e-05 1.31134e-05 1.40718e-05 1.49564e-05 1.57501e-05 1.64369e-05 1.70025e-05 1.74354e-05 1.77273e-05 1.78743e-05 -1.28821e-05 -1.27751e-05 -1.25723e-05 -1.22808e-05 -1.19064e-05 -1.1454e-05 -1.09283e-05 -1.03336e-05 -9.67393e-06 -8.95294e-06 -8.17368e-06 -7.34094e-06 -6.45403e-06 -5.51392e-06 -4.52087e-06 -3.47454e-06 -2.37408e-06 -1.21833e-06 -6.07168e-09 1.26375e-06 2.59169e-06 3.9769e-06 5.41867e-06 6.91409e-06 8.45836e-06 1.00445e-05 1.16628e-05 1.33008e-05 1.49433e-05 1.65717e-05 1.8165e-05 1.97022e-05 2.11553e-05 2.24979e-05 2.37039e-05 2.47484e-05 2.56093e-05 2.62686e-05 2.67134e-05 2.69375e-05 -1.72505e-05 -1.71066e-05 -1.68338e-05 -1.64417e-05 -1.59382e-05 -1.53302e-05 -1.46242e-05 -1.38264e-05 -1.29425e-05 -1.19776e-05 -1.0936e-05 -9.82417e-06 -8.64139e-06 -7.38892e-06 -6.06705e-06 -4.67514e-06 -3.21184e-06 -1.67531e-06 -6.35922e-08 1.62512e-06 3.39201e-06 5.2364e-06 7.15784e-06 9.15297e-06 1.12159e-05 1.33377e-05 1.55059e-05 1.77042e-05 1.99123e-05 2.21054e-05 2.42549e-05 2.63324e-05 2.82994e-05 3.01198e-05 3.17573e-05 3.31773e-05 3.43489e-05 3.52467e-05 3.58527e-05 3.61581e-05 -2.16877e-05 -2.15056e-05 -2.116e-05 -2.06637e-05 -2.00267e-05 -1.92584e-05 -1.83672e-05 -1.73616e-05 -1.62492e-05 -1.50368e-05 -1.37302e-05 -1.23378e-05 -1.08588e-05 -9.29482e-06 -7.64602e-06 -5.91137e-06 -4.0888e-06 -2.17556e-06 -1.68594e-07 1.93496e-06 4.13729e-06 6.43832e-06 8.8383e-06 1.13338e-05 1.39184e-05 1.65816e-05 1.93086e-05 2.20794e-05 2.48687e-05 2.76455e-05 3.03735e-05 3.3016e-05 3.55235e-05 3.78488e-05 3.99443e-05 4.17643e-05 4.32679e-05 4.44212e-05 4.52e-05 4.55924e-05 -2.62124e-05 -2.59898e-05 -2.55679e-05 -2.49624e-05 -2.4186e-05 -2.32507e-05 -2.21677e-05 -2.09477e-05 -1.96009e-05 -1.81362e-05 -1.65612e-05 -1.48861e-05 -1.31104e-05 -1.12359e-05 -9.26279e-06 -7.18927e-06 -5.0123e-06 -2.72789e-06 -3.3153e-07 2.18116e-06 4.81385e-06 7.5676e-06 1.04439e-05 1.34399e-05 1.6549e-05 1.97601e-05 2.30561e-05 2.64141e-05 2.9804e-05 3.31884e-05 3.6523e-05 3.97619e-05 4.28439e-05 4.57093e-05 4.82974e-05 5.05497e-05 5.24134e-05 5.38444e-05 5.48113e-05 5.52983e-05 -3.08428e-05 -3.05773e-05 -3.00742e-05 -2.93528e-05 -2.84292e-05 -2.73182e-05 -2.60343e-05 -2.45913e-05 -2.30023e-05 -2.12788e-05 -1.94306e-05 -1.74701e-05 -1.53971e-05 -1.32137e-05 -1.09196e-05 -8.51236e-06 -5.98751e-06 -3.33936e-06 -5.61507e-07 2.35249e-06 5.40836e-06 8.6089e-06 1.19575e-05 1.54527e-05 1.90886e-05 2.28537e-05 2.67301e-05 3.0692e-05 3.47049e-05 3.87254e-05 4.27006e-05 4.65748e-05 5.02736e-05 5.3723e-05 5.68474e-05 5.9573e-05 6.18325e-05 6.35698e-05 6.47444e-05 6.53357e-05 -3.55977e-05 -3.52858e-05 -3.46953e-05 -3.38495e-05 -3.27683e-05 -3.14702e-05 -2.99736e-05 -2.82963e-05 -2.64548e-05 -2.44641e-05 -2.23366e-05 -2.00871e-05 -1.77159e-05 -1.52256e-05 -1.26152e-05 -9.88106e-06 -7.01688e-06 -4.0148e-06 -8.65916e-07 2.43886e-06 5.90796e-06 9.54671e-06 1.33612e-05 1.73521e-05 2.15152e-05 2.584e-05 3.0308e-05 3.48917e-05 3.9553e-05 4.42423e-05 4.88981e-05 5.3454e-05 5.78207e-05 6.19081e-05 6.56228e-05 6.88726e-05 7.15729e-05 7.36525e-05 7.50596e-05 7.57676e-05 -4.04962e-05 -4.01337e-05 -3.94478e-05 -3.84666e-05 -3.72143e-05 -3.57144e-05 -3.39898e-05 -3.20632e-05 -2.9956e-05 -2.76871e-05 -2.52723e-05 -2.27294e-05 -2.00593e-05 -1.72649e-05 -1.43443e-05 -1.1292e-05 -8.09959e-06 -4.75627e-06 -1.25001e-06 2.43164e-06 6.30059e-06 1.03655e-05 1.4636e-05 1.91161e-05 2.38042e-05 2.8692e-05 3.37619e-05 3.89858e-05 4.43228e-05 4.97175e-05 5.50999e-05 6.03918e-05 6.54876e-05 7.02784e-05 7.46493e-05 7.84862e-05 8.1683e-05 8.41497e-05 8.58203e-05 8.66607e-05 -4.55589e-05 -4.51403e-05 -4.43488e-05 -4.32181e-05 -4.17777e-05 -4.00567e-05 -3.80843e-05 -3.58893e-05 -3.3499e-05 -3.09377e-05 -2.82255e-05 -2.53835e-05 -2.24138e-05 -1.9319e-05 -1.60961e-05 -1.27373e-05 -9.23088e-06 -5.56259e-06 -1.71643e-06 2.32413e-06 6.57529e-06 1.10498e-05 1.57622e-05 2.07205e-05 2.59276e-05 3.13784e-05 3.70583e-05 4.29398e-05 4.89805e-05 5.51208e-05 6.12818e-05 6.73726e-05 7.32696e-05 7.88417e-05 8.39489e-05 8.84498e-05 9.22119e-05 9.51214e-05 9.70943e-05 9.80864e-05 -5.08084e-05 -5.03268e-05 -4.94169e-05 -4.81185e-05 -4.64679e-05 -4.45013e-05 -4.22554e-05 -3.9767e-05 -3.70712e-05 -3.41992e-05 -3.11766e-05 -2.80286e-05 -2.47586e-05 -2.13688e-05 -1.78542e-05 -1.42037e-05 -1.04014e-05 -6.4287e-06 -2.2647e-06 2.11201e-06 6.72264e-06 1.15851e-05 1.67195e-05 2.21396e-05 2.78539e-05 3.3863e-05 4.01566e-05 4.67105e-05 5.3483e-05 6.04111e-05 6.74082e-05 7.437e-05 8.11526e-05 8.75992e-05 9.35393e-05 9.87982e-05 0.00010321 0.000106631 0.000108955 0.000110123 -5.62703e-05 -5.57171e-05 -5.46725e-05 -5.31836e-05 -5.12947e-05 -4.90506e-05 -4.64979e-05 -4.36837e-05 -4.06531e-05 -3.74466e-05 -3.40971e-05 -3.06347e-05 -2.70643e-05 -2.33871e-05 -1.95949e-05 -1.56718e-05 -1.15968e-05 -7.34517e-06 -2.89068e-06 1.79385e-06 6.7354e-06 1.19578e-05 1.74877e-05 2.3346e-05 2.95486e-05 3.61038e-05 4.30087e-05 5.02452e-05 5.77749e-05 6.55344e-05 7.34303e-05 8.13448e-05 8.91114e-05 9.65432e-05 0.000103433 0.000109564 0.00011473 0.000118748 0.000121481 0.000122855 -6.19749e-05 -6.13394e-05 -6.01396e-05 -5.84312e-05 -5.62679e-05 -5.37055e-05 -5.08028e-05 -4.76204e-05 -4.42168e-05 -4.06449e-05 -3.69474e-05 -3.31606e-05 -2.92909e-05 -2.53373e-05 -2.12864e-05 -1.71156e-05 -1.27965e-05 -8.29773e-06 -3.58608e-06 1.37178e-06 6.6091e-06 1.21562e-05 1.80472e-05 2.43114e-05 3.09742e-05 3.80539e-05 4.55584e-05 5.34797e-05 6.17871e-05 7.04204e-05 7.92823e-05 8.82415e-05 9.71067e-05 0.000105655 0.000113634 0.000120778 0.000126825 0.000131545 0.000134763 0.000136381 -6.79589e-05 -6.72278e-05 -6.58471e-05 -6.38827e-05 -6.13992e-05 -5.84658e-05 -5.51571e-05 -5.15507e-05 -4.77236e-05 -4.37456e-05 -3.96732e-05 -3.55505e-05 -3.1385e-05 -2.71713e-05 -2.28875e-05 -1.85013e-05 -1.39746e-05 -9.26698e-06 -4.33809e-06 8.52076e-07 6.34302e-06 1.21718e-05 1.83805e-05 2.50079e-05 3.20907e-05 3.96606e-05 4.77402e-05 5.63365e-05 6.54331e-05 7.49787e-05 8.48769e-05 9.4984e-05 0.000105081 0.000114903 0.000124142 0.000132467 0.000139553 0.000145107 0.000148901 0.00015081 -7.42677e-05 -7.34245e-05 -7.18313e-05 -6.95651e-05 -6.67034e-05 -6.33315e-05 -5.95433e-05 -5.54394e-05 -5.11213e-05 -4.66833e-05 -4.22012e-05 -3.77299e-05 -3.3277e-05 -2.88281e-05 -2.43474e-05 -1.97881e-05 -1.50987e-05 -1.02285e-05 -5.12906e-06 2.45824e-07 5.94122e-06 1.20004e-05 1.84733e-05 2.54091e-05 3.28577e-05 4.0867e-05 4.94791e-05 5.87233e-05 6.86054e-05 7.90934e-05 9.00991e-05 0.00010147 0.000112956 0.000124239 0.000134944 0.000144659 0.000152977 0.000159524 0.000164011 0.000166268 -8.09578e-05 -7.99826e-05 -7.81381e-05 -7.55135e-05 -7.22008e-05 -6.8304e-05 -6.39408e-05 -5.9241e-05 -5.43406e-05 -4.93689e-05 -4.44317e-05 -3.95995e-05 -3.48768e-05 -3.02314e-05 -2.56049e-05 -2.09281e-05 -1.6132e-05 -1.11536e-05 -5.93665e-06 -4.3033e-07 5.41399e-06 1.16441e-05 1.83172e-05 2.54932e-05 3.32362e-05 4.16135e-05 5.06916e-05 6.05304e-05 7.11706e-05 8.26145e-05 9.47967e-05 0.000107562 0.000120624 0.000133598 0.000146019 0.00015738 0.000167166 0.000174905 0.000180225 0.000182904 -8.81e-05 -8.69692e-05 -8.48268e-05 -8.17748e-05 -7.79211e-05 -7.33899e-05 -6.83268e-05 -6.28991e-05 -5.72895e-05 -5.16809e-05 -4.62276e-05 -4.10256e-05 -3.60683e-05 -3.1289e-05 -2.659e-05 -2.18693e-05 -1.70351e-05 -1.20108e-05 -6.73422e-06 -1.15339e-06 4.77976e-06 1.11142e-05 1.79129e-05 2.52461e-05 3.31931e-05 4.18416e-05 5.12873e-05 6.163e-05 7.29625e-05 8.53459e-05 9.87646e-05 0.000113075 0.000127943 0.000142891 0.000157339 0.000170656 0.000182199 0.000191374 0.000197701 0.000200891 -9.57826e-05 -9.44685e-05 -9.19736e-05 -8.84125e-05 -8.39083e-05 -7.8606e-05 -7.26815e-05 -6.63466e-05 -5.98477e-05 -5.34501e-05 -4.73945e-05 -4.18255e-05 -3.67039e-05 -3.18928e-05 -2.72281e-05 -2.25604e-05 -1.77703e-05 -1.27688e-05 -7.49181e-06 -1.89286e-06 4.06791e-06 1.04346e-05 1.7274e-05 2.46668e-05 3.27066e-05 4.15007e-05 5.11752e-05 6.18777e-05 7.37745e-05 8.70257e-05 0.000101719 0.000117757 0.000134728 0.000152011 0.000168872 0.000184524 0.000198174 0.000209079 0.000216625 0.000220435 -0.000104115 -0.000102586 -9.96763e-05 -9.55119e-05 -9.02283e-05 -8.39886e-05 -7.69968e-05 -6.95121e-05 -6.18613e-05 -5.44364e-05 -4.7643e-05 -4.17434e-05 -3.65987e-05 -3.1925e-05 -2.74492e-05 -2.29598e-05 -1.83092e-05 -1.34011e-05 -8.17781e-06 -2.60894e-06 3.3234e-06 9.64614e-06 1.64317e-05 2.37728e-05 3.17751e-05 4.05597e-05 5.02763e-05 6.1121e-05 7.33533e-05 8.72934e-05 0.000103244 0.000121257 0.000140746 0.000160842 0.000180593 0.000199037 0.00021521 0.000228195 0.000237217 0.000241778 -0.000113228 -0.000111451 -0.000108058 -0.000103186 -9.69784e-05 -8.96075e-05 -8.12953e-05 -7.23378e-05 -6.31453e-05 -5.429e-05 -4.65053e-05 -4.04125e-05 -3.55338e-05 -3.12768e-05 -2.72076e-05 -2.30509e-05 -1.8643e-05 -1.3893e-05 -8.7616e-06 -3.24922e-06 2.61598e-06 8.81343e-06 1.54385e-05 2.26057e-05 3.04276e-05 3.90248e-05 4.85501e-05 5.92265e-05 7.14054e-05 8.5638e-05 0.000102676 0.00012307 0.00014572 0.000169279 0.000192516 0.000214286 0.000233461 0.000248935 0.000259734 0.000265206 -0.000123279 -0.000121218 -0.000117272 -0.000111583 -0.000104297 -9.55849e-05 -8.56624e-05 -7.48254e-05 -6.3521e-05 -5.25035e-05 -4.31152e-05 -3.73071e-05 -3.32937e-05 -2.98947e-05 -2.65146e-05 -2.28624e-05 -1.87954e-05 -1.42508e-05 -9.21919e-06 -3.74391e-06 2.06313e-06 8.03089e-06 1.43681e-05 2.12327e-05 2.87332e-05 3.69636e-05 4.60388e-05 5.61468e-05 6.76539e-05 8.1334e-05 9.87852e-05 0.000122478 0.000149388 0.000177304 0.00020473 0.000230418 0.000253121 0.000271544 0.000284472 0.000291043 -0.000134449 -0.000132068 -0.000127497 -0.000120884 -0.000112372 -0.000102114 -9.02922e-05 -7.71319e-05 -6.29627e-05 -4.84415e-05 -3.55061e-05 -3.17716e-05 -2.98132e-05 -2.78767e-05 -2.54861e-05 -2.24897e-05 -1.88354e-05 -1.45142e-05 -9.54818e-06 -4.00734e-06 1.90093e-06 7.42113e-06 1.33e-05 1.97386e-05 2.68048e-05 3.45287e-05 4.29326e-05 5.20595e-05 6.2056e-05 7.34934e-05 8.87652e-05 0.000118601 0.000151723 0.000185121 0.00021747 0.000247663 0.000274434 0.000296305 0.000311764 0.000319658 -0.000146941 -0.000144205 -0.000138942 -0.000131305 -0.000121433 -0.000109463 -9.55237e-05 -7.9714e-05 -6.20232e-05 -4.20591e-05 -1.79682e-05 -2.37406e-05 -2.56034e-05 -2.56171e-05 -2.4379e-05 -2.21008e-05 -1.88786e-05 -1.47686e-05 -9.80814e-06 -4.0046e-06 2.74811e-06 7.06468e-06 1.22724e-05 1.82027e-05 2.47871e-05 3.19597e-05 3.96183e-05 4.75746e-05 5.54269e-05 6.21372e-05 6.43788e-05 0.000111467 0.000153557 0.000193364 0.000231163 0.000266331 0.000297672 0.000323516 0.000341964 0.000351448 -0.000160979 -0.000157852 -0.00015183 -0.000143077 -0.000131737 -0.00011794 -0.000101792 -8.33477e-05 -6.25271e-05 -3.89693e-05 -1.17929e-05 -1.88057e-05 -2.2445e-05 -2.38259e-05 -2.35416e-05 -2.1898e-05 -1.90635e-05 -1.51393e-05 -1.01885e-05 -4.24023e-06 2.72281e-06 6.50443e-06 1.11985e-05 1.66757e-05 2.28276e-05 2.95303e-05 3.6604e-05 4.37517e-05 5.04392e-05 5.56578e-05 5.75595e-05 0.000109479 0.000157578 0.000203117 0.00024635 0.000286755 0.000323102 0.000353464 0.000375433 0.000386832 -0.0001768 -0.000173246 -0.000166396 -0.000156437 -0.000143527 -0.000127812 -0.000109415 -8.84176e-05 -6.48287e-05 -3.85541e-05 -9.45504e-06 -1.63252e-05 -2.06454e-05 -2.28172e-05 -2.31967e-05 -2.20345e-05 -1.95005e-05 -1.57127e-05 -1.0756e-05 -4.69399e-06 2.41893e-06 5.80267e-06 1.01009e-05 1.52204e-05 2.10481e-05 2.74409e-05 3.42012e-05 4.10384e-05 4.75163e-05 5.30073e-05 5.67719e-05 0.000111595 0.000164223 0.000214845 0.000263366 0.00030917 0.000350924 0.000386391 0.000412507 0.000426235 -0.000194654 -0.00019063 -0.000182877 -0.00017161 -0.000157019 -0.000139282 -0.000118564 -9.50135e-05 -6.87516e-05 -3.98953e-05 -8.63765e-06 -1.53563e-05 -1.99788e-05 -2.26064e-05 -2.3418e-05 -2.2585e-05 -2.02507e-05 -1.65305e-05 -1.15206e-05 -5.30622e-06 2.02448e-06 5.04973e-06 9.03302e-06 1.3894e-05 1.95246e-05 2.57865e-05 3.25003e-05 3.9431e-05 4.62798e-05 5.27083e-05 5.84544e-05 0.000116343 0.000173122 0.000228552 0.000282307 0.000333679 0.000381243 0.000422458 0.000453478 0.000470067 -0.000214801 -0.000210255 -0.000201506 -0.000188809 -0.000172396 -0.000152494 -0.000129325 -0.000103107 -7.40602e-05 -4.24282e-05 -8.5359e-06 -1.531e-05 -2.01602e-05 -2.30895e-05 -2.41844e-05 -2.35594e-05 -2.13294e-05 -1.76008e-05 -1.24714e-05 -6.03535e-06 1.60798e-06 4.30435e-06 8.03876e-06 1.27338e-05 1.8289e-05 2.45808e-05 3.14605e-05 3.87541e-05 4.62708e-05 5.38356e-05 6.13602e-05 0.000122796 0.000183814 0.000244059 0.000303119 0.000360267 0.000414062 0.000461729 0.000498569 0.000518719 -0.000237509 -0.000232376 -0.000222512 -0.000208227 -0.000189811 -0.000167551 -0.000141733 -0.000112644 -8.05757e-05 -4.58468e-05 -8.83206e-06 -1.58578e-05 -2.09647e-05 -2.41384e-05 -2.543e-05 -2.49243e-05 -2.27174e-05 -1.89066e-05 -1.35869e-05 -6.85247e-06 1.19808e-06 3.59984e-06 7.14574e-06 1.17578e-05 1.73425e-05 2.37927e-05 3.09901e-05 3.881e-05 4.71329e-05 5.58677e-05 6.49841e-05 0.000130422 0.00019592 0.000261137 0.000325667 0.000388838 0.000449291 0.000504161 0.000547909 0.00057254 -0.000263057 -0.000257251 -0.000246118 -0.000230042 -0.000209389 -0.000184522 -0.000155796 -0.000123565 -8.81736e-05 -4.99828e-05 -9.38279e-06 -1.68133e-05 -2.22293e-05 -2.5632e-05 -2.70699e-05 -2.66194e-05 -2.43692e-05 -2.04112e-05 -1.48357e-05 -7.73201e-06 8.09034e-07 2.95577e-06 6.3704e-06 1.09719e-05 1.66716e-05 2.33764e-05 3.09924e-05 3.9431e-05 4.86174e-05 5.85041e-05 6.90814e-05 0.000138893 0.000209144 0.00027955 0.000349767 0.000419228 0.000486753 0.000549584 0.000601499 0.000631823 -0.000291734 -0.000285141 -0.000272535 -0.000254404 -0.000231217 -0.000203433 -0.000171489 -0.000135798 -9.67521e-05 -5.47284e-05 -1.01123e-05 -1.80593e-05 -2.38298e-05 -2.74573e-05 -2.90074e-05 -2.85637e-05 -2.62172e-05 -2.20584e-05 -1.61738e-05 -8.64464e-06 4.51003e-07 2.38745e-06 5.72617e-06 1.03799e-05 1.62619e-05 2.32891e-05 3.1386e-05 4.04893e-05 5.05536e-05 6.15576e-05 7.35033e-05 0.000147975 0.000223222 0.000299043 0.000375181 0.000451206 0.000526189 0.000597696 0.000659169 0.000696771 -0.00032384 -0.0003163 -0.000301946 -0.000281415 -0.000255321 -0.000224245 -0.000188725 -0.000149235 -0.000106197 -5.99894e-05 -1.097e-05 -1.95063e-05 -2.56566e-05 -2.94996e-05 -3.11314e-05 -3.06546e-05 -2.81699e-05 -2.3771e-05 -1.75409e-05 -9.55165e-06 1.35654e-07 1.91331e-06 5.23119e-06 9.99209e-06 1.61078e-05 2.35017e-05 3.21118e-05 4.18932e-05 5.28221e-05 6.48969e-05 7.81344e-05 0.000157462 0.000237892 0.000319321 0.0004016 0.000484455 0.000567238 0.00064804 0.000720521 0.000767454 -0.000359681 -0.000350969 -0.000334488 -0.000311098 -0.000281623 -0.000246814 -0.000207322 -0.000163686 -0.000116343 -6.56509e-05 -1.19097e-05 -2.10668e-05 -2.75939e-05 -3.16283e-05 -3.33079e-05 -3.27625e-05 -3.01084e-05 -2.54456e-05 -1.88557e-05 -1.04e-05 -1.19821e-07 1.56056e-06 4.91435e-06 9.83071e-06 1.62175e-05 2.40023e-05 3.3133e-05 4.35797e-05 5.53357e-05 6.84189e-05 8.28656e-05 0.000167143 0.000252855 0.000340018 0.000428612 0.000518527 0.000609406 0.000699984 0.000784847 0.000843728 -0.000399567 -0.000389348 -0.000370197 -0.000343332 -0.000309882 -0.000270825 -0.000226942 -0.000178834 -0.000126933 -7.15448e-05 -1.28753e-05 -2.26355e-05 -2.95015e-05 -3.36838e-05 -3.53708e-05 -3.47249e-05 -3.18817e-05 -2.69501e-05 -2.00117e-05 -1.11182e-05 -2.89635e-07 1.36911e-06 4.81863e-06 9.93264e-06 1.66146e-05 2.47954e-05 3.44317e-05 4.55061e-05 5.80275e-05 7.20325e-05 8.75823e-05 0.000176786 0.000267765 0.000360678 0.000455663 0.0005528 0.000652012 0.000752692 0.000851035 0.000925125 -0.000443794 -0.000431546 -0.000408929 -0.000377747 -0.000339583 -0.000295698 -0.000247016 -0.000194174 -0.00013757 -7.74177e-05 -1.37875e-05 -2.40714e-05 -3.11992e-05 -3.54666e-05 -3.71163e-05 -3.63446e-05 -3.33073e-05 -2.81238e-05 -2.0878e-05 -1.16155e-05 -3.37715e-07 1.39209e-06 4.99967e-06 1.03458e-05 1.73323e-05 2.58952e-05 3.6e-05 4.76403e-05 6.0839e-05 7.56499e-05 9.21601e-05 0.00018613 0.000282213 0.000380739 0.000482039 0.000586424 0.0006941 0.000805064 0.000917455 0.00101067 -0.000492607 -0.000477465 -0.00045018 -0.000413544 -0.000369779 -0.000320469 -0.00026665 -0.000208944 -0.000147665 -8.28975e-05 -1.45303e-05 -2.51844e-05 -3.24596e-05 -3.67373e-05 -3.83094e-05 -3.74006e-05 -3.41841e-05 -2.87902e-05 -2.13091e-05 -1.17878e-05 -2.19324e-07 1.69005e-06 5.51577e-06 1.1116e-05 1.83989e-05 2.73095e-05 3.78236e-05 4.99452e-05 6.37076e-05 7.91773e-05 9.64622e-05 0.00019488 0.000295727 0.000399529 0.00050685 0.000618284 0.000734354 0.000855659 0.000981838 0.00109863 -0.000546099 -0.000526534 -0.000492751 -0.000449191 -0.000398873 -0.000343645 -0.000284544 -0.000222082 -0.000156423 -8.74776e-05 -1.49412e-05 -2.57369e-05 -3.30237e-05 -3.7244e-05 -3.87178e-05 -3.76852e-05 -3.43302e-05 -2.87932e-05 -2.11761e-05 -1.15395e-05 1.09658e-07 2.31207e-06 6.40257e-06 1.22587e-05 1.98076e-05 2.90101e-05 3.98542e-05 5.23526e-05 6.6545e-05 8.25013e-05 0.000100338 0.000202707 0.000307771 0.000416276 0.000529037 0.000647 0.000771016 0.000902572 0.00104119 0.00118605 -0.000603877 -0.000577035 -0.000534093 -0.000481968 -0.000424368 -0.000363111 -0.000298998 -0.000232279 -0.000162892 -9.05631e-05 -1.48272e-05 -2.54927e-05 -3.26741e-05 -3.68071e-05 -3.82016e-05 -3.70933e-05 -3.36681e-05 -2.80753e-05 -2.0434e-05 -1.08348e-05 6.67329e-07 3.25351e-06 7.62339e-06 1.37071e-05 2.14668e-05 3.08856e-05 4.19649e-05 5.47243e-05 6.92042e-05 8.54672e-05 0.000103616 0.000209246 0.000317759 0.000430127 0.000547415 0.000670968 0.000801904 0.000943243 0.00109189 0.00126806 -0.00066384 -0.000624414 -0.000569174 -0.000507506 -0.000442848 -0.000376339 -0.000308205 -0.000238291 -0.000166266 -9.16964e-05 -1.40679e-05 -2.43894e-05 -3.14302e-05 -3.55126e-05 -3.68936e-05 -3.57875e-05 -3.23755e-05 -2.68141e-05 -1.9243e-05 -9.79526e-06 1.39098e-06 4.37864e-06 8.98818e-06 1.5236e-05 2.313e-05 3.26777e-05 4.38929e-05 5.67997e-05 7.14347e-05 8.78442e-05 0.000106096 0.000214089 0.000325061 0.00044019 0.000560748 0.000688459 0.000824614 0.000974203 0.00113024 0.00133656 -0.00071671 -0.000657499 -0.000589569 -0.000520378 -0.000451102 -0.000381586 -0.000311365 -0.000239908 -0.000166683 -9.11772e-05 -1.29544e-05 -2.29536e-05 -2.99357e-05 -3.40479e-05 -3.54861e-05 -3.44436e-05 -3.10975e-05 -2.56094e-05 -1.81354e-05 -8.84495e-06 2.03844e-06 5.3071e-06 1.00521e-05 1.63757e-05 2.43229e-05 3.39185e-05 4.5184e-05 5.81452e-05 7.28345e-05 8.92834e-05 0.000107517 0.000216771 0.000329029 0.000445595 0.000567881 0.000697797 0.000836946 0.00099102 0.00115338 0.00137842 0 0 0 0 0 0 0 0 0 0 0 0 0 0 0 0 0 0 0 0 0 0 0 0 0 0 0 0 0 0 0 0 0 0 0 0 0 0 0 0 -4.25437e-06 -4.22165e-06 -4.15768e-06 -4.06418e-06 -3.94284e-06 -3.79528e-06 -3.62303e-06 -3.42753e-06 -3.21008e-06 -2.97186e-06 -2.71386e-06 -2.43767e-06 -2.14303e-06 -1.8303e-06 -1.49959e-06 -1.15084e-06 -7.83822e-07 -3.98247e-07 6.20625e-09 4.29785e-07 8.72574e-07 1.33416e-06 1.81419e-06 2.31161e-06 2.82473e-06 3.35111e-06 3.88753e-06 4.42983e-06 4.97291e-06 5.51077e-06 6.03648e-06 6.54333e-06 7.02221e-06 7.46464e-06 7.86221e-06 8.20694e-06 8.49169e-06 8.71054e-0