# vtk DataFile Version 2.0
Presion
ASCII

DATASET STRUCTURED_GRID
DIMENSIONS   40   40   20

POINTS   32000   double
0.0125   0.0125   0.025
0.0375   0.0125   0.025
0.0625   0.0125   0.025
0.0875   0.0125   0.025
0.1125   0.0125   0.025
0.1375   0.0125   0.025
0.1625   0.0125   0.025
0.1875   0.0125   0.025
0.2125   0.0125   0.025
0.2375   0.0125   0.025
0.2625   0.0125   0.025
0.2875   0.0125   0.025
0.3125   0.0125   0.025
0.3375   0.0125   0.025
0.3625   0.0125   0.025
0.3875   0.0125   0.025
0.4125   0.0125   0.025
0.4375   0.0125   0.025
0.4625   0.0125   0.025
0.4875   0.0125   0.025
0.5125   0.0125   0.025
0.5375   0.0125   0.025
0.5625   0.0125   0.025
0.5875   0.0125   0.025
0.6125   0.0125   0.025
0.6375   0.0125   0.025
0.6625   0.0125   0.025
0.6875   0.0125   0.025
0.7125   0.0125   0.025
0.7375   0.0125   0.025
0.7625   0.0125   0.025
0.7875   0.0125   0.025
0.8125   0.0125   0.025
0.8375   0.0125   0.025
0.8625   0.0125   0.025
0.8875   0.0125   0.025
0.9125   0.0125   0.025
0.9375   0.0125   0.025
0.9625   0.0125   0.025
0.9875   0.0125   0.025
0.0125   0.0375   0.025
0.0375   0.0375   0.025
0.0625   0.0375   0.025
0.0875   0.0375   0.025
0.1125   0.0375   0.025
0.1375   0.0375   0.025
0.1625   0.0375   0.025
0.1875   0.0375   0.025
0.2125   0.0375   0.025
0.2375   0.0375   0.025
0.2625   0.0375   0.025
0.2875   0.0375   0.025
0.3125   0.0375   0.025
0.3375   0.0375   0.025
0.3625   0.0375   0.025
0.3875   0.0375   0.025
0.4125   0.0375   0.025
0.4375   0.0375   0.025
0.4625   0.0375   0.025
0.4875   0.0375   0.025
0.5125   0.0375   0.025
0.5375   0.0375   0.025
0.5625   0.0375   0.025
0.5875   0.0375   0.025
0.6125   0.0375   0.025
0.6375   0.0375   0.025
0.6625   0.0375   0.025
0.6875   0.0375   0.025
0.7125   0.0375   0.025
0.7375   0.0375   0.025
0.7625   0.0375   0.025
0.7875   0.0375   0.025
0.8125   0.0375   0.025
0.8375   0.0375   0.025
0.8625   0.0375   0.025
0.8875   0.0375   0.025
0.9125   0.0375   0.025
0.9375   0.0375   0.025
0.9625   0.0375   0.025
0.9875   0.0375   0.025
0.0125   0.0625   0.025
0.0375   0.0625   0.025
0.0625   0.0625   0.025
0.0875   0.0625   0.025
0.1125   0.0625   0.025
0.1375   0.0625   0.025
0.1625   0.0625   0.025
0.1875   0.0625   0.025
0.2125   0.0625   0.025
0.2375   0.0625   0.025
0.2625   0.0625   0.025
0.2875   0.0625   0.025
0.3125   0.0625   0.025
0.3375   0.0625   0.025
0.3625   0.0625   0.025
0.3875   0.0625   0.025
0.4125   0.0625   0.025
0.4375   0.0625   0.025
0.4625   0.0625   0.025
0.4875   0.0625   0.025
0.5125   0.0625   0.025
0.5375   0.0625   0.025
0.5625   0.0625   0.025
0.5875   0.0625   0.025
0.6125   0.0625   0.025
0.6375   0.0625   0.025
0.6625   0.0625   0.025
0.6875   0.0625   0.025
0.7125   0.0625   0.025
0.7375   0.0625   0.025
0.7625   0.0625   0.025
0.7875   0.0625   0.025
0.8125   0.0625   0.025
0.8375   0.0625   0.025
0.8625   0.0625   0.025
0.8875   0.0625   0.025
0.9125   0.0625   0.025
0.9375   0.0625   0.025
0.9625   0.0625   0.025
0.9875   0.0625   0.025
0.0125   0.0875   0.025
0.0375   0.0875   0.025
0.0625   0.0875   0.025
0.0875   0.0875   0.025
0.1125   0.0875   0.025
0.1375   0.0875   0.025
0.1625   0.0875   0.025
0.1875   0.0875   0.025
0.2125   0.0875   0.025
0.2375   0.0875   0.025
0.2625   0.0875   0.025
0.2875   0.0875   0.025
0.3125   0.0875   0.025
0.3375   0.0875   0.025
0.3625   0.0875   0.025
0.3875   0.0875   0.025
0.4125   0.0875   0.025
0.4375   0.0875   0.025
0.4625   0.0875   0.025
0.4875   0.0875   0.025
0.5125   0.0875   0.025
0.5375   0.0875   0.025
0.5625   0.0875   0.025
0.5875   0.0875   0.025
0.6125   0.0875   0.025
0.6375   0.0875   0.025
0.6625   0.0875   0.025
0.6875   0.0875   0.025
0.7125   0.0875   0.025
0.7375   0.0875   0.025
0.7625   0.0875   0.025
0.7875   0.0875   0.025
0.8125   0.0875   0.025
0.8375   0.0875   0.025
0.8625   0.0875   0.025
0.8875   0.0875   0.025
0.9125   0.0875   0.025
0.9375   0.0875   0.025
0.9625   0.0875   0.025
0.9875   0.0875   0.025
0.0125   0.1125   0.025
0.0375   0.1125   0.025
0.0625   0.1125   0.025
0.0875   0.1125   0.025
0.1125   0.1125   0.025
0.1375   0.1125   0.025
0.1625   0.1125   0.025
0.1875   0.1125   0.025
0.2125   0.1125   0.025
0.2375   0.1125   0.025
0.2625   0.1125   0.025
0.2875   0.1125   0.025
0.3125   0.1125   0.025
0.3375   0.1125   0.025
0.3625   0.1125   0.025
0.3875   0.1125   0.025
0.4125   0.1125   0.025
0.4375   0.1125   0.025
0.4625   0.1125   0.025
0.4875   0.1125   0.025
0.5125   0.1125   0.025
0.5375   0.1125   0.025
0.5625   0.1125   0.025
0.5875   0.1125   0.025
0.6125   0.1125   0.025
0.6375   0.1125   0.025
0.6625   0.1125   0.025
0.6875   0.1125   0.025
0.7125   0.1125   0.025
0.7375   0.1125   0.025
0.7625   0.1125   0.025
0.7875   0.1125   0.025
0.8125   0.1125   0.025
0.8375   0.1125   0.025
0.8625   0.1125   0.025
0.8875   0.1125   0.025
0.9125   0.1125   0.025
0.9375   0.1125   0.025
0.9625   0.1125   0.025
0.9875   0.1125   0.025
0.0125   0.1375   0.025
0.0375   0.1375   0.025
0.0625   0.1375   0.025
0.0875   0.1375   0.025
0.1125   0.1375   0.025
0.1375   0.1375   0.025
0.1625   0.1375   0.025
0.1875   0.1375   0.025
0.2125   0.1375   0.025
0.2375   0.1375   0.025
0.2625   0.1375   0.025
0.2875   0.1375   0.025
0.3125   0.1375   0.025
0.3375   0.1375   0.025
0.3625   0.1375   0.025
0.3875   0.1375   0.025
0.4125   0.1375   0.025
0.4375   0.1375   0.025
0.4625   0.1375   0.025
0.4875   0.1375   0.025
0.5125   0.1375   0.025
0.5375   0.1375   0.025
0.5625   0.1375   0.025
0.5875   0.1375   0.025
0.6125   0.1375   0.025
0.6375   0.1375   0.025
0.6625   0.1375   0.025
0.6875   0.1375   0.025
0.7125   0.1375   0.025
0.7375   0.1375   0.025
0.7625   0.1375   0.025
0.7875   0.1375   0.025
0.8125   0.1375   0.025
0.8375   0.1375   0.025
0.8625   0.1375   0.025
0.8875   0.1375   0.025
0.9125   0.1375   0.025
0.9375   0.1375   0.025
0.9625   0.1375   0.025
0.9875   0.1375   0.025
0.0125   0.1625   0.025
0.0375   0.1625   0.025
0.0625   0.1625   0.025
0.0875   0.1625   0.025
0.1125   0.1625   0.025
0.1375   0.1625   0.025
0.1625   0.1625   0.025
0.1875   0.1625   0.025
0.2125   0.1625   0.025
0.2375   0.1625   0.025
0.2625   0.1625   0.025
0.2875   0.1625   0.025
0.3125   0.1625   0.025
0.3375   0.1625   0.025
0.3625   0.1625   0.025
0.3875   0.1625   0.025
0.4125   0.1625   0.025
0.4375   0.1625   0.025
0.4625   0.1625   0.025
0.4875   0.1625   0.025
0.5125   0.1625   0.025
0.5375   0.1625   0.025
0.5625   0.1625   0.025
0.5875   0.1625   0.025
0.6125   0.1625   0.025
0.6375   0.1625   0.025
0.6625   0.1625   0.025
0.6875   0.1625   0.025
0.7125   0.1625   0.025
0.7375   0.1625   0.025
0.7625   0.1625   0.025
0.7875   0.1625   0.025
0.8125   0.1625   0.025
0.8375   0.1625   0.025
0.8625   0.1625   0.025
0.8875   0.1625   0.025
0.9125   0.1625   0.025
0.9375   0.1625   0.025
0.9625   0.1625   0.025
0.9875   0.1625   0.025
0.0125   0.1875   0.025
0.0375   0.1875   0.025
0.0625   0.1875   0.025
0.0875   0.1875   0.025
0.1125   0.1875   0.025
0.1375   0.1875   0.025
0.1625   0.1875   0.025
0.1875   0.1875   0.025
0.2125   0.1875   0.025
0.2375   0.1875   0.025
0.2625   0.1875   0.025
0.2875   0.1875   0.025
0.3125   0.1875   0.025
0.3375   0.1875   0.025
0.3625   0.1875   0.025
0.3875   0.1875   0.025
0.4125   0.1875   0.025
0.4375   0.1875   0.025
0.4625   0.1875   0.025
0.4875   0.1875   0.025
0.5125   0.1875   0.025
0.5375   0.1875   0.025
0.5625   0.1875   0.025
0.5875   0.1875   0.025
0.6125   0.1875   0.025
0.6375   0.1875   0.025
0.6625   0.1875   0.025
0.6875   0.1875   0.025
0.7125   0.1875   0.025
0.7375   0.1875   0.025
0.7625   0.1875   0.025
0.7875   0.1875   0.025
0.8125   0.1875   0.025
0.8375   0.1875   0.025
0.8625   0.1875   0.025
0.8875   0.1875   0.025
0.9125   0.1875   0.025
0.9375   0.1875   0.025
0.9625   0.1875   0.025
0.9875   0.1875   0.025
0.0125   0.2125   0.025
0.0375   0.2125   0.025
0.0625   0.2125   0.025
0.0875   0.2125   0.025
0.1125   0.2125   0.025
0.1375   0.2125   0.025
0.1625   0.2125   0.025
0.1875   0.2125   0.025
0.2125   0.2125   0.025
0.2375   0.2125   0.025
0.2625   0.2125   0.025
0.2875   0.2125   0.025
0.3125   0.2125   0.025
0.3375   0.2125   0.025
0.3625   0.2125   0.025
0.3875   0.2125   0.025
0.4125   0.2125   0.025
0.4375   0.2125   0.025
0.4625   0.2125   0.025
0.4875   0.2125   0.025
0.5125   0.2125   0.025
0.5375   0.2125   0.025
0.5625   0.2125   0.025
0.5875   0.2125   0.025
0.6125   0.2125   0.025
0.6375   0.2125   0.025
0.6625   0.2125   0.025
0.6875   0.2125   0.025
0.7125   0.2125   0.025
0.7375   0.2125   0.025
0.7625   0.2125   0.025
0.7875   0.2125   0.025
0.8125   0.2125   0.025
0.8375   0.2125   0.025
0.8625   0.2125   0.025
0.8875   0.2125   0.025
0.9125   0.2125   0.025
0.9375   0.2125   0.025
0.9625   0.2125   0.025
0.9875   0.2125   0.025
0.0125   0.2375   0.025
0.0375   0.2375   0.025
0.0625   0.2375   0.025
0.0875   0.2375   0.025
0.1125   0.2375   0.025
0.1375   0.2375   0.025
0.1625   0.2375   0.025
0.1875   0.2375   0.025
0.2125   0.2375   0.025
0.2375   0.2375   0.025
0.2625   0.2375   0.025
0.2875   0.2375   0.025
0.3125   0.2375   0.025
0.3375   0.2375   0.025
0.3625   0.2375   0.025
0.3875   0.2375   0.025
0.4125   0.2375   0.025
0.4375   0.2375   0.025
0.4625   0.2375   0.025
0.4875   0.2375   0.025
0.5125   0.2375   0.025
0.5375   0.2375   0.025
0.5625   0.2375   0.025
0.5875   0.2375   0.025
0.6125   0.2375   0.025
0.6375   0.2375   0.025
0.6625   0.2375   0.025
0.6875   0.2375   0.025
0.7125   0.2375   0.025
0.7375   0.2375   0.025
0.7625   0.2375   0.025
0.7875   0.2375   0.025
0.8125   0.2375   0.025
0.8375   0.2375   0.025
0.8625   0.2375   0.025
0.8875   0.2375   0.025
0.9125   0.2375   0.025
0.9375   0.2375   0.025
0.9625   0.2375   0.025
0.9875   0.2375   0.025
0.0125   0.2625   0.025
0.0375   0.2625   0.025
0.0625   0.2625   0.025
0.0875   0.2625   0.025
0.1125   0.2625   0.025
0.1375   0.2625   0.025
0.1625   0.2625   0.025
0.1875   0.2625   0.025
0.2125   0.2625   0.025
0.2375   0.2625   0.025
0.2625   0.2625   0.025
[...]
POINT_DATA   32000
SCALARS Presion double
LOOKUP_TABLE   Presion

0 0 0 0 0 0 0 0 0 0 0 0 0 0 0 0 0 0 0 0 0 0 0 0 0 0 0 0 0 0 0 0 0 0 0 0 0 0 0 0 -0.00201349 -0.0023913 -0.00303256 -0.00376611 -0.00451313 -0.00522261 -0.00585712 -0.00638892 -0.00679796 -0.00707042 -0.0071974 -0.00717399 -0.00699859 -0.00667254 -0.00620006 -0.00558832 -0.00484755 -0.00399119 -0.00303594 -0.00200169 -0.000911228 0.000210204 0.00133554 0.00243668 0.00348539 0.00445426 0.00531773 0.00605301 0.00664109 0.00706751 0.00732319 0.007405 0.00731621 0.00706663 0.00667235 0.00615499 0.00554079 0.00486207 0.00417458 0.00366392 -0.00218288 -0.00240246 -0.00290494 -0.00354537 -0.00423249 -0.00490555 -0.00552207 -0.00605165 -0.00647265 -0.00676998 -0.00693354 -0.00695723 -0.00683819 -0.00657642 -0.00617468 -0.00563848 -0.00497618 -0.00419915 -0.00332174 -0.00236135 -0.00133814 -0.000274761 0.000804174 0.00187271 0.00290431 0.0038727 0.00475277 0.00552155 0.00615911 0.00664957 0.00698191 0.00715081 0.00715739 0.00700976 0.00672355 0.00632275 0.00584172 0.00533177 0.00488135 0.00467319 -0.00186441 -0.00215028 -0.00264757 -0.00326608 -0.00393286 -0.00459329 -0.00520736 -0.00574598 -0.00618811 -0.00651874 -0.0067274 -0.00680714 -0.00675385 -0.00656596 -0.00624432 -0.00579221 -0.00521554 -0.00452292 -0.0037259 -0.00283893 -0.00187936 -0.00086724 0.000175025 0.00122315 0.0022516 0.00323437 0.00414588 0.00496191 0.00566073 0.00622411 0.00663847 0.00689584 0.00699489 0.00694171 0.00675081 0.00644622 0.0060638 0.00565621 0.00530392 0.00513415 -0.00127517 -0.00170718 -0.0022779 -0.00293211 -0.00361791 -0.00429268 -0.00492347 -0.0054855 -0.00596034 -0.00633433 -0.00659735 -0.006742 -0.00676304 -0.00665722 -0.00642318 -0.00606164 -0.0055756 -0.00497059 -0.00425495 -0.00344 -0.00254015 -0.00157293 -0.000558721 0.000479483 0.00151666 0.00252645 0.00348207 0.00435733 0.00512787 0.00577242 0.00627405 0.00662151 0.00681032 0.00684383 0.00673422 0.00650345 0.00618491 0.00582601 0.00549259 0.00527263 -0.00055613 -0.00115725 -0.00184015 -0.00256758 -0.00330345 -0.00401702 -0.00468371 -0.00528452 -0.00580479 -0.00623308 -0.00656019 -0.0067786 -0.00688209 -0.00686567 -0.0067257 -0.00646009 -0.00606874 -0.00555383 -0.00492033 -0.00417626 -0.00333305 -0.00240568 -0.00141266 -0.000375872 0.000679868 0.00172746 0.00273841 0.003684 0.00453659 0.00527109 0.0058665 0.00630741 0.00658537 0.00670007 0.00666032 0.00648489 0.00620333 0.00585713 0.0055008 0.00520098 0.000195321 -0.00057549 -0.00138593 -0.00220737 -0.00301437 -0.00378589 -0.00450522 -0.00515928 -0.00573755 -0.00623115 -0.00663212 -0.00693304 -0.0071268 -0.00720675 -0.0071669 -0.00700233 -0.00670966 -0.00628767 -0.00573776 -0.00506459 -0.00427647 -0.0033858 -0.00240916 -0.00136736 -0.000285097 0.000809597 0.00188625 0.00291314 0.00385877 0.00469352 0.00539146 0.00593207 0.00630197 0.00649623 0.00651952 0.00638679 0.00612382 0.00576746 0.00536554 0.004975 0.000906514 -2.57064e-05 -0.000966146 -0.00189066 -0.00278104 -0.00362376 -0.00440881 -0.00512845 -0.00577608 -0.00634534 -0.00682956 -0.00722148 -0.0075132 -0.00769644 -0.0077629 -0.0077048 -0.00751551 -0.00719025 -0.00672683 -0.00612634 -0.00539386 -0.00453898 -0.00357619 -0.00252505 -0.00141004 -0.000260106 0.000892143 0.00201169 0.00306265 0.00401013 0.00482234 0.00547261 0.00594149 0.00621845 0.00630318 0.00620652 0.00595082 0.00556996 0.00510884 0.00462158 0.00151945 0.000437685 -0.000628228 -0.00165719 -0.00263637 -0.00355818 -0.00441812 -0.00521295 -0.00593948 -0.00659359 -0.00716974 -0.00766078 -0.00805806 -0.00835171 -0.00853117 -0.00858583 -0.0085058 -0.00828269 -0.00791058 -0.00738683 -0.00671299 -0.00589554 -0.00494653 -0.00388389 -0.00273161 -0.00151935 -0.000281826 0.00094244 0.00211271 0.00318807 0.00412983 0.00490398 0.00548374 0.00585172 0.00600177 0.00594014 0.00568607 0.00527179 0.0047419 0.00415194 0.00198543 0.000767505 -0.000415501 -0.00154536 -0.0026138 -0.00361821 -0.00455857 -0.00543543 -0.00624835 -0.00699506 -0.0076709 -0.00826876 -0.00877915 -0.00919069 -0.00949061 -0.00966551 -0.00970221 -0.00958868 -0.00931505 -0.00887471 -0.0082653 -0.00748976 -0.00655711 -0.00548318 -0.00429091 -0.00301032 -0.00167802 -0.00033614 0.000969331 0.0021907 0.00328125 0.00419826 0.00490608 0.00537903 0.00560388 0.00558158 0.00532826 0.00487531 0.00426885 0.0035684 0.00226213 0.000922231 -0.000367267 -0.00159132 -0.00274601 -0.00383308 -0.00485638 -0.00581951 -0.00672429 -0.00756986 -0.0083522 -0.00906405 -0.00969512 -0.0102325 -0.0106613 -0.0109653 -0.0111281 -0.0111338 -0.0109684 -0.0106211 -0.010085 -0.00935892 -0.00844821 -0.00736581 -0.00613292 -0.00477932 -0.00334314 -0.00187 -0.000411494 0.000977142 0.00224 0.00332404 0.00418293 0.00478087 0.00509593 0.00512265 0.00487357 0.0043796 0.00368948 0.0028684 0.00231211 0.000864982 -0.000519026 -0.00182856 -0.00306404 -0.0042313 -0.00533755 -0.00638899 -0.00738924 -0.00833849 -0.00923313 -0.0100657 -0.010825 -0.0114967 -0.0120637 -0.0125072 -0.0128073 -0.0129443 -0.0128999 -0.0126582 -0.0122077 -0.011542 -0.0106622 -0.00957714 -0.00830554 -0.00687604 -0.00532765 -0.00370923 -0.00207813 -0.00049783 0.000965293 0.00224609 0.00328543 0.00403506 0.00446225 0.00455342 0.00431656 0.00378194 0.00300146 0.00204709 0.00210206 0.000562983 -0.000902629 -0.00228758 -0.00359673 -0.00483979 -0.00602707 -0.00716698 -0.00826462 -0.00932101 -0.0103328 -0.0112922 -0.0121872 -0.013002 -0.0137176 -0.0143123 -0.014763 -0.0150459 -0.0151378 -0.0150177 -0.0146684 -0.0140778 -0.0132414 -0.0121631 -0.0108579 -0.00935201 -0.0076846 -0.00590715 -0.00408267 -0.00228348 -0.000587707 0.000925457 0.00218151 0.00311696 0.00368544 0.00386294 0.00365127 0.0030793 0.00220226 0.00109955 0.00160258 -1.26357e-05 -0.00154628 -0.00299569 -0.00437019 -0.00568326 -0.00694805 -0.00817497 -0.00937039 -0.010536 -0.0116687 -0.0127604 -0.0137984 -0.0147654 -0.0156405 -0.0163995 -0.0170156 -0.0174609 -0.0177072 -0.0177278 -0.0174989 -0.0170019 -0.0162255 -0.0151676 -0.0138375 -0.0122582 -0.0104674 -0.00851838 -0.00647943 -0.00443199 -0.00246709 -0.000680081 0.0008363 0.00199984 0.00274701 0.00304012 0.00287237 0.00226994 0.00129102 2.27477e-05 0.000788262 -0.000886785 -0.00247445 -0.00397673 -0.0054074 -0.00678353 -0.00812094 -0.00943189 -0.010724 -0.0119995 -0.0132557 -0.0144842 -0.0156717 -0.0167998 -0.0178457 -0.0187825 -0.0195802 -0.0202063 -0.0206273 -0.0208103 -0.0207244 -0.0203433 -0.0196478 -0.0186281 -0.0172867 -0.0156411 -0.0137263 -0.0115958 -0.00932227 -0.00699622 -0.00472251 -0.00261468 -0.000786907 0.000655816 0.00162826 0.0020748 0.00197663 0.00135507 0.000270418 -0.00118244 -0.000361959 -0.00208021 -0.00370762 -0.00525083 -0.0067278 -0.00815899 -0.00956277 -0.0109532 -0.012339 -0.0137235 -0.015104 -0.0164724 -0.0178149 -0.0191121 -0.0203396 -0.021468 -0.0224637 -0.0232899 -0.0239075 -0.0242767 -0.0243591 -0.0241198 -0.0235302 -0.0225713 -0.0212372 -0.0195379 -0.0175035 -0.0151858 -0.0126604 -0.0100262 -0.00740231 -0.00492221 -0.00272487 -0.000942773 0.000311647 0.000959249 0.000964533 0.000340773 -0.000851137 -0.00250893 -0.00186444 -0.00360923 -0.00526212 -0.00683406 -0.00834684 -0.00982402 -0.0112864 -0.0127498 -0.0142244 -0.0157145 -0.0172181 -0.0187274 -0.0202285 -0.0217012 -0.0231197 -0.0244522 -0.025662 -0.0267075 -0.0275439 -0.0281244 -0.0284021 -0.0283329 -0.0278777 -0.0270071 -0.0257042 -0.0239699 -0.0218265 -0.019322 -0.0165327 -0.013564 -0.0105491 -0.00764259 -0.00501157 -0.00282108 -0.00121731 -0.000309989 -0.000157679 -0.000759724 -0.00205704 -0.00394079 -0.00373039 -0.00548542 -0.00714987 -0.00873829 -0.0102757 -0.0117885 -0.0132997 -0.0148271 -0.0163828 -0.0179723 -0.0195947 -0.021243 -0.0229033 -0.0245553 -0.0261718 -0.027719 -0.0291568 -0.0304393 -0.0315157 -0.032332 -0.0328326 -0.0329632 -0.0326736 -0.0319221 -0.0306796 -0.0289352 -0.026701 -0.0240179 -0.0209599 -0.0176366 -0.0141934 -0.0108067 -0.00767406 -0.00499843 -0.00296727 -0.00172962 -0.00137551 -0.00192335 -0.00331955 -0.00545019 -0.00596549 -0.00771552 -0.00937834 -0.0109711 -0.0125212 -0.0140574 -0.0156051 -0.0171846 -0.01881 -0.0204887 -0.0222217 -0.024003 -0.0258194 -0.0276505 -0.0294683 -0.031237 -0.0329135 -0.0344475 -0.0357824 -0.0368569 -0.0376063 -0.0379658 -0.0378735 -0.0372743 -0.0361253 -0.0344016 -0.0321023 -0.0292579 -0.0259361 -0.0222471 -0.0183459 -0.0144292 -0.0107266 -0.00748366 -0.00493731 -0.00328633 -0.00266304 -0.0031139 -0.00459632 -0.00699368 -0.00856976 -0.0103013 -0.0119506 -0.0135358 -0.0150855 -0.0166307 -0.0181993 -0.0198145 -0.0214934 -0.0232464 -0.0250765 -0.0269797 -0.0289439 -0.0309491 -0.0329665 -0.0349587 -0.0368797 -0.0386749 -0.0402821 -0.0416325 -0.0426529 -0.0432676 -0.0434024 -0.0429886 -0.041968 -0.0403 -0.0379681 -0.0349888 -0.0314193 -0.0273658 -0.0229879 -0.0184998 -0.0141629 -0.0102688 -0.00711183 -0.00495251 -0.00397905 -0.00427809 -0.00582618 -0.00850786 -0.0115375 -0.0132401 -0.0148659 -0.0164318 -0.0179667 -0.0195032 -0.0210726 -0.0227019 -0.0244123 -0.026218 -0.0281256 -0.0301334 -0.032231 -0.0343989 -0.036608 -0.0388195 -0.0409844 -0.0430442 -0.044931 -0.046569 -0.0478762 -0.0487667 -0.0491539 -0.048955 -0.0480964 -0.0465204 -0.0441928 -0.0411129 -0.037323 -0.0329194 -0.0280608 -0.0229734 -0.017947 -0.013321 -0.00945396 -0.00668082 -0.00526211 -0.00534079 -0.00692427 -0.00990425 -0.0148579 -0.0165252 -0.0181202 -0.0196556 -0.0211591 -0.0226652 -0.0242092 -0.025824 -0.0275364 -0.0293661 -0.031324 -0.0334119 -0.0356213 -0.0379339 -0.0403201 -0.0427395 -0.0451405 -0.0474604 -0.0496261 -0.051555 -0.0531565 -0.0543348 -0.0549916 -0.0550305 -0.0543622 -0.0529116 -0.0506257 -0.0474838 -0.0435095 -0.0387836 -0.0334565 -0.0277587 -0.0220028 -0.0165731 -0.0118974 -0.00839738 -0.00642467 -0.00619933 -0.00777617 -0.0110633 -0.0185154 -0.020147 -0.0217074 -0.0232015 -0.0246542 -0.0261022 -0.0275875 -0.0291505 -0.0308267 -0.0326428 -0.0346158 -0.0367513 -0.0390438 -0.0414755 -0.0440168 -0.0466254 -0.0492469 -0.0518144 -0.0542494 -0.0564626 -0.0583557 -0.0598233 -0.0607559 -0.0610445 -0.060585 -0.0592852 -0.0570731 -0.053907 -0.0497886 -0.0447779 -0.0390097 -0.0327093 -0.0262026 -0.0199128 -0.0143369 -0.00999357 -0.00734594 -0.00671672 -0.00823105 -0.0118272 -0.0224917 -0.0240949 -0.0256215 -0.0270634 -0.0284414 -0.0297965 -0.0311798 -0.0326438 -0.0342352 -0.0359906 -0.0379344 -0.0400774 -0.0424167 -0.0449354 -0.047603 -0.0503752 -0.0531941 -0.0559884 -0.058674 -0.0611551 -0.0633256 -0.0650714 -0.0662728 -0.066809 -0.0665624 -0.0654252 -0.0633072 -0.0601461 -0.0559203 -0.0506654 -0.0444938 -0.0376158 -0.030358 -0.0231715 -0.0166172 -0.0113164 -0.00786336 -0.00671375 -0.00809369 -0.0119921 -0.0267673 -0.0283601 -0.0298588 -0.0312368 -0.0325102 -0.0337272 -0.0349535 -0.0362587 -0.0377053 -0.0393429 -0.0412049 -0.0433078 -0.0456514 -0.0482192 -0.0509789 -0.0538833 -0.0568702 -0.0598632 -0.0627724 -0.0654951 -0.0679177 -0.0699176 -0.0713658 -0.0721308 -0.0720833 -0.0711016 -0.0690794 -0.0659353 -0.0616256 -0.0561601 -0.0496241 -0.0422035 -0.0342127 -0.0261147 -0.018522 -0.0121576 -0.00776281 -0.00595961 -0.007115 -0.0112985 -0.031325 -0.0329391 -0.0344221 -0.035722 -0.0368512 -0.0378713 -0.0388707 -0.0399433 -0.041173 -0.0426256 -0.0443455 -0.046355 -0.048656 -0.0512311 -0.0540452 -0.0570466 -0.0601678 -0.0633263 -0.0664252 -0.0693549 -0.0719939 -0.0742112 -0.0758692 -0.0768266 -0.0769437 -0.0760872 -0.0741373 -0.0709968 -0.0666024 -0.0609399 -0.0540661 -0.0461366 -0.0374402 -0.0284343 -0.0197637 -0.0122423 -0.0067673 -0.00416091 -0.00498069 -0.00941941 -0.0361549 -0.0378397 -0.0393253 -0.0405272 -0.0414582 -0.0422044 -0.0428886 -0.0436388 -0.044567 -0.0457589 -0.0472707 -0.0491303 -0.0513401 -0.05388 -0.05671 -0.0597722 -0.0629921 -0.0662797 -0.0695302 -0.0726259 -0.0754371 -0.0778242 -0.0796407 -0.0807365 -0.0809625 -0.0801753 -0.0782448 -0.0750613 -0.0705464 -0.0646667 -0.057453 -0.0490288 -0.0396489 -0.0297463 -0.0199743 -0.0112167 -0.00452416 -0.000948583 -0.00129736 -0.00594681 -0.0412616 -0.0430897 -0.0446011 -0.0456731 -0.0463305 -0.0467011 -0.0469594 -0.0472801 -0.0478106 -0.0486596 -0.0498949 -0.0515483 -0.0536201 -0.0560848 -0.0588949 -0.0619837 -0.0652677 -0.0686477 -0.0720096 -0.0752265 -0.0781594 -0.0806597 -0.0825717 -0.0837361 -0.0839947 -0.0831956 -0.0811998 -0.0778891 -0.073175 -0.067011 -0.0594088 -0.0504639 -0.0403941 -0.0295944 -0.0187012 -0.00863758 -0.000590647 0.00413822 0.00442541 -0.000372679 -0.0466778 -0.0487509 -0.0503114 -0.0511994 -0.0514742 -0.0513345 -0.0510297 -0.0507962 -0.0508238 -0.0512448 -0.0521373 -0.0535329 -0.055426 -0.0577818 -0.0605418 -0.0636278 -0.0669449 -0.0703826 -0.0738161 -0.0771079 -0.0801085 -0.0826593 -0.0845943 -0.0857444 -0.085942 -0.0850261 -0.0828502 -0.0792894 -0.0742496 -0.0676782 -0.0595768 -0.0500223 -0.0392006 -0.0274634 -0.0154084 -0.00396272 0.00558228 0.0116726 0.0127993 0.00793697 -0.0524853 -0.0549405 -0.0565631 -0.0571722 -0.0569056 -0.0560768 -0.0550411 -0.054112 -0.0535259 -0.0534369 -0.0539277 -0.0550237 -0.0567077 -0.0589305 -0.0616188 -0.0646797 -0.0680042 -0.0714687 -0.0749361 -0.0782566 -0.0812694 -0.0838041 -0.0856835 -0.0867273 -0.0867566 -0.0856007 -0.0831041 -0.0791356 -0.0735975 -0.0664361 -0.0576522 -0.0473163 -0.0355955 -0.0228034 -0.00948766 0.00345331 0.0146679 0.022367 0.0245926 0.0197818 -0.0588535 -0.0618676 -0.0635317 -0.0636946 -0.0626527 -0.0608989 -0.0589305 -0.057151 -0.0558415 -0.05517 -0.0552136 -0.0559829 -0.0574412 -0.0595193 -0.0621244 -0.0651458 -0.0684583 -0.0719232 -0.0753893 -0.0786939 -0.0816632 -0.084114 -0.0858561 -0.0866963 -0.0864426 -0.0849115 -0.0819362 -0.0773765 -0.0711296 -0.0631414 -0.0534174 -0.0420335 -0.0291542 -0.0150712 -0.000285457 0.0143544 0.0274821 0.0371108 0.0407832 0.0361916 -0.0661093 -0.0698937 -0.0714962 -0.0709202 -0.0687583 -0.0657708 -0.0626329 -0.0598406 -0.0577073 -0.0563976 -0.0559682 -0.0564019 -0.0576339 -0.0595684 -0.0620889 -0.0650642 -0.0683505 -0.0717929 -0.0752254 -0.0784709 -0.0813419 -0.0836414 -0.0851651 -0.0857045 -0.0850522 -0.0830088 -0.0793915 -0.0740457 -0.0668574 -0.0577673 -0.046783 -0.0339899 -0.0195636 -0.00379448 0.0128452 0.0295585 0.0449973 0.0570225 0.0626444 0.0585389 -0.0748668 -0.0796338 -0.0808896 -0.0790674 -0.07528 -0.070661 -0.0660839 -0.062118 -0.0590786 -0.0570993 -0.0561942 -0.0563036 -0.0573244 -0.0591281 -0.061571 -0.0644987 -0.0677482 -0.0711474 -0.0745152 -0.0776601 -0.0803803 -0.0824645 -0.0836931 -0.0838412 -0.0826834 -0.0800006 -0.0755888 -0.0692712 -0.0609124 -0.0504348 -0.037835 -0.0231983 -0.00671007 0.0113277 0.0304492 0.049893 0.0683366 0.0835173 0.0918844 0.0887424 -0.0862778 -0.0921267 -0.0923648 -0.0884277 -0.0822825 -0.0755298 -0.0692174 -0.0639295 -0.0599291 -0.0572776 -0.0559194 -0.055735 -0.0565733 -0.0582678 -0.0606449 -0.0635264 -0.0667296 -0.0700661 -0.0733397 -0.0763451 -0.0788667 -0.0806791 -0.0815471 -0.0812288 -0.0794792 -0.0760563 -0.0707295 -0.063291 -0.0535702 -0.0414515 -0.0268946 -0.00995422 0.00920142 0.0302748 0.0528045 0.0760516 0.0987093 0.118378 0.130871 0.129646 -0.102537 -0.10911 -0.106855 -0.0993383 -0.0897953 -0.0802935 -0.0719356 -0.0652045 -0.0602254 -0.0569333 -0.0551707 -0.0547412 -0.055437 -0.0570502 -0.0593766 -0.0622148 -0.065364 -0.0686203 -0.0717743 -0.0746082 -0.0768942 -0.0783935 -0.0788569 -0.0780256 -0.0756349 -0.0714182 -0.065114 -0.0564755 -0.0452823 -0.0313571 -0.0145856 0.00505962 0.0274929 0.0524895 0.0796514 0.108307 0.1372 0.163767 0.182979 0.185723 -0.12796 -0.133423 -0.125548 -0.112041 -0.0976697 -0.0847005 -0.0740056 -0.0657668 -0.0598505 -0.0559974 -0.0539138 -0.0533111 -0.0539192 -0.0554886 -0.0577862 -0.0605902 -0.0636842 -0.0668521 -0.0698736 -0.072521 -0.0745565 -0.0757307 -0.0757822 -0.0744378 -0.0714144 -0.0664215 -0.0591656 -0.0493556 -0.0367101 -0.0209678 -0.00190012 0.0206694 0.04684 0.0766009 0.109788 0.145992 0.184237 0.221979 0.253033 0.264371 -0.171431 -0.169419 -0.149507 -0.126199 -0.105153 -0.0879915 -0.0747994 -0.0651392 -0.0584533 -0.0542121 -0.051956 -0.0512962 -0.0519027 -0.0534894 -0.0558005 -0.0585993 -0.0616587 -0.0647546 -0.06766 -0.0701406 -0.0719522 -0.0728383 -0.0725288 -0.0707399 -0.0671739 -0.06152 -0.0534553 -0.0426454 -0.0287447 -0.0113954 0.00977423 0.0351513 0.0651374 0.100138 0.140539 0.186651 0.23846 0.294426 0.347563 0.378267 -0.252251 -0.222574 -0.178094 -0.139417 -0.109786 -0.0881787 -0.0728474 -0.0622609 -0.0552584 -0.050992 -0.0488378 -0.0483243 -0.0490798 -0.0507975 -0.0532115 -0.0560797 -0.0591722 -0.0622628 -0.0651228 -0.0675164 -0.0691973 -0.0699062 -0.0693692 -0.0672966 -0.0633821 -0.0573011 -0.048709 -0.0372366 -0.0224831 -0.00400211 0.0187208 0.0463037 0.0795226 0.119387 0.167239 0.224869 0.294622 0.378739 0.473539 0.550032 -0.413199 -0.294624 -0.202841 -0.143107 -0.105338 -0.0811755 -0.0654942 -0.0553404 -0.0489845 -0.0453641 -0.0437847 -0.0437595 -0.0449217 -0.046975 -0.049664 -0.0527561 -0.0560288 -0.0592621 -0.0622321 -0.0647067 -0.0664427 -0.0671828 -0.0666548 -0.0645688 -0.0606166 -0.0544688 -0.0457706 -0.0341348 -0.0191284 -0.000249532 0.0231122 0.0517456 0.0867388 0.129693 0.1831 0.251013 0.340216 0.462002 0.630231 0.823257 -0.752802 -0.345303 -0.186281 -0.116534 -0.0812889 -0.0614255 -0.0495014 -0.0422564 -0.0380905 -0.0361243 -0.0358148 -0.0367861 -0.0387499 -0.0414646 -0.0447135 -0.0482918 -0.0519976 -0.0556264 -0.0589666 -0.0617961 -0.0638799 -0.0649682 -0.064795 -0.0630762 -0.0595086 -0.0537672 -0.045501 -0.0343257 -0.0198098 -0.00145077 0.0213674 0.0494508 0.0839384 0.126585 0.180369 0.250937 0.350249 0.505451 0.774756 1.27437 0 0 0 0 0 0 0 0 0 0 0 0 0 0 0 0 0 0 0 0 0 0 0 0 0 0 0 0 0 0 0 0 0 0 0 0 0 0 0 0 -0.00204898 -0.00241215 -0.00293901 -0.00349004 -0.0040144 -0.00448324 -0.004876 -0.00517739 -0.00537643 -0.00546578 -0.00544117 -0.005301 -0.00504605 -0.00467944 -0.00420661 -0.0036355 -0.00297659 -0.00224303 -0.00145056 -0.000617322 0.000236487 0.00108915 0.00191808 0.00270068 0.00341512 0.00404134 0.00456188 0.0049627 0.00523394 0.00537044 0.00537222 0.00524463 0.00499838 0.00464924 0.00421746 0.00372697 0.00320465 0.00268183 0.00220685 0.00191099 -0.00235256 -0.0025465 -0.00292046 -0.00335666 -0.00379173 -0.00418878 -0.00452415 -0.00478179 -0.00495067 -0.00502341 -0.00499555 -0.00486505 -0.00463207 -0.00429892 -0.0038701 -0.00335242 -0.0027551 -0.00208986 -0.00137082 -0.000614415 0.000161005 0.000935597 0.00168866 0.00239939 0.00304769 0.00361502 0.00408535 0.00444589 0.00468786 0.00480708 0.00480434 0.0046856 0.00446202 0.00414975 0.00376968 0.00334747 0.00291466 0.00251283 0.00220571 0.00210662 -0.00227795 -0.002501 -0.0028383 -0.00322222 -0.00360484 -0.00395443 -0.00424995 -0.00447722 -0.00462656 -0.00469144 -0.00466766 -0.00455298 -0.00434692 -0.00405081 -0.00366783 -0.0032033 -0.00266471 -0.00206197 -0.00140734 -0.000715381 -2.72737e-06 0.00071233 0.00141038 0.00207159 0.00267653 0.00320706 0.00364728 0.00398443 0.00420974 0.00431906 0.00431337 0.00419896 0.00398747 0.00369561 0.00334499 0.00296204 0.00257882 0.00223524 0.00198326 0.00189004 -0.00202245 -0.00234268 -0.00270935 -0.00308922 -0.00345318 -0.00377971 -0.00405384 -0.0042653 -0.00440697 -0.00447386 -0.00446247 -0.00437049 -0.00419682 -0.00394162 -0.00360657 -0.00319512 -0.0027128 -0.0021674 -0.00156915 -0.000930727 -0.000267144 0.00040455 0.00106574 0.00169691 0.00227845 0.00279168 0.00321983 0.00354916 0.00376993 0.00387724 0.00387159 0.00375918 0.00355185 0.00326672 0.00292568 0.00255491 0.00218454 0.00184866 0.00158478 0.00143021 -0.00170507 -0.00214262 -0.00257112 -0.00297776 -0.00334883 -0.00367329 -0.0039433 -0.00415341 -0.00429975 -0.00437924 -0.00438928 -0.00432762 -0.00419244 -0.00398264 -0.00369815 -0.0033404 -0.00291267 -0.0024205 -0.00187193 -0.00127774 -0.000651404 -8.95533e-06 0.000631413 0.00124997 0.00182632 0.00234041 0.00277378 0.00311082 0.00333992 0.00345458 0.00345414 0.00334409 0.00313606 0.00284721 0.00249945 0.00211825 0.00173146 0.00136786 0.00105506 0.000815509 -0.00140413 -0.00196123 -0.00246538 -0.00291639 -0.0033122 -0.00365098 -0.00393175 -0.00415398 -0.00431708 -0.00442001 -0.00446107 -0.00443798 -0.00434813 -0.004189 -0.00395865 -0.00365626 -