# vtk DataFile Version 2.0
Velocidades
ASCII

DATASET STRUCTURED_GRID
DIMENSIONS   40   40   20

POINTS   32000   double
0.0125   0.0125   0.025
0.0125   0.0375   0.025
0.0125   0.0625   0.025
0.0125   0.0875   0.025
0.0125   0.1125   0.025
0.0125   0.1375   0.025
0.0125   0.1625   0.025
0.0125   0.1875   0.025
0.0125   0.2125   0.025
0.0125   0.2375   0.025
0.0125   0.2625   0.025
0.0125   0.2875   0.025
0.0125   0.3125   0.025
0.0125   0.3375   0.025
0.0125   0.3625   0.025
0.0125   0.3875   0.025
0.0125   0.4125   0.025
0.0125   0.4375   0.025
0.0125   0.4625   0.025
0.0125   0.4875   0.025
0.0125   0.5125   0.025
0.0125   0.5375   0.025
0.0125   0.5625   0.025
0.0125   0.5875   0.025
0.0125   0.6125   0.025
0.0125   0.6375   0.025
0.0125   0.6625   0.025
0.0125   0.6875   0.025
0.0125   0.7125   0.025
0.0125   0.7375   0.025
0.0125   0.7625   0.025
0.0125   0.7875   0.025
0.0125   0.8125   0.025
0.0125   0.8375   0.025
0.0125   0.8625   0.025
0.0125   0.8875   0.025
0.0125   0.9125   0.025
0.0125   0.9375   0.025
0.0125   0.9625   0.025
0.0125   0.9875   0.025
0.0375   0.0125   0.025
0.0375   0.0375   0.025
0.0375   0.0625   0.025
0.0375   0.0875   0.025
0.0375   0.1125   0.025
0.0375   0.1375   0.025
0.0375   0.1625   0.025
0.0375   0.1875   0.025
0.0375   0.2125   0.025
0.0375   0.2375   0.025
0.0375   0.2625   0.025
0.0375   0.2875   0.025
0.0375   0.3125   0.025
0.0375   0.3375   0.025
0.0375   0.3625   0.025
0.0375   0.3875   0.025
0.0375   0.4125   0.025
0.0375   0.4375   0.025
0.0375   0.4625   0.025
0.0375   0.4875   0.025
0.0375   0.5125   0.025
0.0375   0.5375   0.025
0.0375   0.5625   0.025
0.0375   0.5875   0.025
0.0375   0.6125   0.025
0.0375   0.6375   0.025
0.0375   0.6625   0.025
0.0375   0.6875   0.025
0.0375   0.7125   0.025
0.0375   0.7375   0.025
0.0375   0.7625   0.025
0.0375   0.7875   0.025
0.0375   0.8125   0.025
0.0375   0.8375   0.025
0.0375   0.8625   0.025
0.0375   0.8875   0.025
0.0375   0.9125   0.025
0.0375   0.9375   0.025
0.0375   0.9625   0.025
0.0375   0.9875   0.025
0.0625   0.0125   0.025
0.0625   0.0375   0.025
0.0625   0.0625   0.025
0.0625   0.0875   0.025
0.0625   0.1125   0.025
0.0625   0.1375   0.025
0.0625   0.1625   0.025
0.0625   0.1875   0.025
0.0625   0.2125   0.025
0.0625   0.2375   0.025
0.0625   0.2625   0.025
0.0625   0.2875   0.025
0.0625   0.3125   0.025
0.0625   0.3375   0.025
0.0625   0.3625   0.025
0.0625   0.3875   0.025
0.0625   0.4125   0.025
0.0625   0.4375   0.025
0.0625   0.4625   0.025
0.0625   0.4875   0.025
0.0625   0.5125   0.025
0.0625   0.5375   0.025
0.0625   0.5625   0.025
0.0625   0.5875   0.025
0.0625   0.6125   0.025
0.0625   0.6375   0.025
0.0625   0.6625   0.025
0.0625   0.6875   0.025
0.0625   0.7125   0.025
0.0625   0.7375   0.025
0.0625   0.7625   0.025
0.0625   0.7875   0.025
0.0625   0.8125   0.025
0.0625   0.8375   0.025
0.0625   0.8625   0.025
0.0625   0.8875   0.025
0.0625   0.9125   0.025
0.0625   0.9375   0.025
0.0625   0.9625   0.025
0.0625   0.9875   0.025
0.0875   0.0125   0.025
0.0875   0.0375   0.025
0.0875   0.0625   0.025
0.0875   0.0875   0.025
0.0875   0.1125   0.025
0.0875   0.1375   0.025
0.0875   0.1625   0.025
0.0875   0.1875   0.025
0.0875   0.2125   0.025
0.0875   0.2375   0.025
0.0875   0.2625   0.025
0.0875   0.2875   0.025
0.0875   0.3125   0.025
0.0875   0.3375   0.025
0.0875   0.3625   0.025
0.0875   0.3875   0.025
0.0875   0.4125   0.025
0.0875   0.4375   0.025
0.0875   0.4625   0.025
0.0875   0.4875   0.025
0.0875   0.5125   0.025
0.0875   0.5375   0.025
0.0875   0.5625   0.025
0.0875   0.5875   0.025
0.0875   0.6125   0.025
0.0875   0.6375   0.025
0.0875   0.6625   0.025
0.0875   0.6875   0.025
0.0875   0.7125   0.025
0.0875   0.7375   0.025
0.0875   0.7625   0.025
0.0875   0.7875   0.025
0.0875   0.8125   0.025
0.0875   0.8375   0.025
0.0875   0.8625   0.025
0.0875   0.8875   0.025
0.0875   0.9125   0.025
0.0875   0.9375   0.025
0.0875   0.9625   0.025
0.0875   0.9875   0.025
0.1125   0.0125   0.025
0.1125   0.0375   0.025
0.1125   0.0625   0.025
0.1125   0.0875   0.025
0.1125   0.1125   0.025
0.1125   0.1375   0.025
0.1125   0.1625   0.025
0.1125   0.1875   0.025
0.1125   0.2125   0.025
0.1125   0.2375   0.025
0.1125   0.2625   0.025
0.1125   0.2875   0.025
0.1125   0.3125   0.025
0.1125   0.3375   0.025
0.1125   0.3625   0.025
0.1125   0.3875   0.025
0.1125   0.4125   0.025
0.1125   0.4375   0.025
0.1125   0.4625   0.025
0.1125   0.4875   0.025
0.1125   0.5125   0.025
0.1125   0.5375   0.025
0.1125   0.5625   0.025
0.1125   0.5875   0.025
0.1125   0.6125   0.025
0.1125   0.6375   0.025
0.1125   0.6625   0.025
0.1125   0.6875   0.025
0.1125   0.7125   0.025
0.1125   0.7375   0.025
0.1125   0.7625   0.025
0.1125   0.7875   0.025
0.1125   0.8125   0.025
0.1125   0.8375   0.025
0.1125   0.8625   0.025
0.1125   0.8875   0.025
0.1125   0.9125   0.025
0.1125   0.9375   0.025
0.1125   0.9625   0.025
0.1125   0.9875   0.025
0.1375   0.0125   0.025
0.1375   0.0375   0.025
0.1375   0.0625   0.025
0.1375   0.0875   0.025
0.1375   0.1125   0.025
0.1375   0.1375   0.025
0.1375   0.1625   0.025
0.1375   0.1875   0.025
0.1375   0.2125   0.025
0.1375   0.2375   0.025
0.1375   0.2625   0.025
0.1375   0.2875   0.025
0.1375   0.3125   0.025
0.1375   0.3375   0.025
0.1375   0.3625   0.025
0.1375   0.3875   0.025
0.1375   0.4125   0.025
0.1375   0.4375   0.025
0.1375   0.4625   0.025
0.1375   0.4875   0.025
0.1375   0.5125   0.025
0.1375   0.5375   0.025
0.1375   0.5625   0.025
0.1375   0.5875   0.025
0.1375   0.6125   0.025
0.1375   0.6375   0.025
0.1375   0.6625   0.025
0.1375   0.6875   0.025
0.1375   0.7125   0.025
0.1375   0.7375   0.025
0.1375   0.7625   0.025
0.1375   0.7875   0.025
0.1375   0.8125   0.025
0.1375   0.8375   0.025
0.1375   0.8625   0.025
0.1375   0.8875   0.025
0.1375   0.9125   0.025
0.1375   0.9375   0.025
0.1375   0.9625   0.025
0.1375   0.9875   0.025
0.1625   0.0125   0.025
0.1625   0.0375   0.025
0.1625   0.0625   0.025
0.1625   0.0875   0.025
0.1625   0.1125   0.025
0.1625   0.1375   0.025
0.1625   0.1625   0.025
0.1625   0.1875   0.025
0.1625   0.2125   0.025
0.1625   0.2375   0.025
0.1625   0.2625   0.025
0.1625   0.2875   0.025
0.1625   0.3125   0.025
0.1625   0.3375   0.025
0.1625   0.3625   0.025
0.1625   0.3875   0.025
0.1625   0.4125   0.025
0.1625   0.4375   0.025
0.1625   0.4625   0.025
0.1625   0.4875   0.025
0.1625   0.5125   0.025
0.1625   0.5375   0.025
0.1625   0.5625   0.025
0.1625   0.5875   0.025
0.1625   0.6125   0.025
0.1625   0.6375   0.025
0.1625   0.6625   0.025
0.1625   0.6875   0.025
0.1625   0.7125   0.025
0.1625   0.7375   0.025
0.1625   0.7625   0.025
0.1625   0.7875   0.025
0.1625   0.8125   0.025
0.1625   0.8375   0.025
0.1625   0.8625   0.025
0.1625   0.8875   0.025
0.1625   0.9125   0.025
0.1625   0.9375   0.025
0.1625   0.9625   0.025
0.1625   0.9875   0.025
0.1875   0.0125   0.025
0.1875   0.0375   0.025
0.1875   0.0625   0.025
0.1875   0.0875   0.025
0.1875   0.1125   0.025
0.1875   0.1375   0.025
0.1875   0.1625   0.025
0.1875   0.1875   0.025
0.1875   0.2125   0.025
0.1875   0.2375   0.025
0.1875   0.2625   0.025
0.1875   0.2875   0.025
0.1875   0.3125   0.025
0.1875   0.3375   0.025
0.1875   0.3625   0.025
0.1875   0.3875   0.025
0.1875   0.4125   0.025
0.1875   0.4375   0.025
0.1875   0.4625   0.025
0.1875   0.4875   0.025
0.1875   0.5125   0.025
0.1875   0.5375   0.025
0.1875   0.5625   0.025
0.1875   0.5875   0.025
0.1875   0.6125   0.025
0.1875   0.6375   0.025
0.1875   0.6625   0.025
0.1875   0.6875   0.025
0.1875   0.7125   0.025
0.1875   0.7375   0.025
0.1875   0.7625   0.025
0.1875   0.7875   0.025
0.1875   0.8125   0.025
0.1875   0.8375   0.025
0.1875   0.8625   0.025
0.1875   0.8875   0.025
0.1875   0.9125   0.025
0.1875   0.9375   0.025
0.1875   0.9625   0.025
0.1875   0.9875   0.025
0.2125   0.0125   0.025
0.2125   0.0375   0.025
0.2125   0.0625   0.025
0.2125   0.0875   0.025
0.2125   0.1125   0.025
0.2125   0.1375   0.025
0.2125   0.1625   0.025
0.2125   0.1875   0.025
0.2125   0.2125   0.025
0.2125   0.2375   0.025
0.2125   0.2625   0.025
0.2125   0.2875   0.025
0.2125   0.3125   0.025
0.2125   0.3375   0.025
0.2125   0.3625   0.025
0.2125   0.3875   0.025
0.2125   0.4125   0.025
0.2125   0.4375   0.025
0.2125   0.4625   0.025
0.2125   0.4875   0.025
0.2125   0.5125   0.025
0.2125   0.5375   0.025
0.2125   0.5625   0.025
0.2125   0.5875   0.025
0.2125   0.6125   0.025
0.2125   0.6375   0.025
0.2125   0.6625   0.025
0.2125   0.6875   0.025
0.2125   0.7125   0.025
0.2125   0.7375   0.025
0.2125   0.7625   0.025
0.2125   0.7875   0.025
0.2125   0.8125   0.025
0.2125   0.8375   0.025
0.2125   0.8625   0.025
0.2125   0.8875   0.025
0.2125   0.9125   0.025
0.2125   0.9375   0.025
0.2125   0.9625   0.025
0.2125   0.9875   0.025
0.2375   0.0125   0.025
0.2375   0.0375   0.025
0.2375   0.0625   0.025
0.2375   0.0875   0.025
0.2375   0.1125   0.025
0.2375   0.1375   0.025
0.2375   0.1625   0.025
0.2375   0.1875   0.025
0.2375   0.2125   0.025
0.2375   0.2375   0.025
0.2375   0.2625   0.025
0.2375   0.2875   0.025
0.2375   0.3125   0.025
0.2375   0.3375   0.025
0.2375   0.3625   0.025
0.2375   0.3875   0.025
0.2375   0.4125   0.025
0.2375   0.4375   0.025
0.2375   0.4625   0.025
0.2375   0.4875   0.025
0.2375   0.5125   0.025
0.2375   0.5375   0.025
0.2375   0.5625   0.025
0.2375   0.5875   0.025
0.2375   0.6125   0.025
0.2375   0.6375   0.025
0.2375   0.6625   0.025
0.2375   0.6875   0.025
0.2375   0.7125   0.025
0.2375   0.7375   0.025
0.2375   0.7625   0.025
0.2375   0.7875   0.025
0.2375   0.8125   0.025
0.2375   0.8375   0.025
0.2375   0.8625   0.025
0.2375   0.8875   0.025
0.2375   0.9125   0.025
0.2375   0.9375   0.025
0.2375   0.9625   0.025
0.2375   0.9875   0.025
0.2625   0.0125   0.025
0.2625   0.0375   0.025
0.2625   0.0625   0.025
0.2625   0.0875   0.025
0.2625   0.1125   0.025
0.2625   0.1375   0.025
0.2625   0.1625   0.025
0.2625   0.1875   0.025
0.2625   0.2125   0.025
0.2625   0.2375   0.025
0.2625   0.2625   0.025
[...]
POINT_DATA   32000
VECTORS Velocidades double

3.63659e-05 0 0
0.000109215 0 0
0.000182522 0 0
0.000256679 0 0
0.000332117 0 0
0.000409294 0 0
0.000488693 0 0
0.00057082 0 0
0.000656205 0 0
0.000745413 0 0
0.000839049 0 0
0.000937782 0 0
0.00104236 0 0
0.00115363 0 0
0.0012726 0 0
0.00140044 0 0
0.00153859 0 0
0.00168877 0 0
0.00185314 0 0
0.00203435 0 0
0.00223574 0 0
0.0024615 0 0
0.00271696 0 0
0.00300893 0 0
0.00334618 0 0
0.00374024 0 0
0.00420639 0 0
0.00476541 0 0
0.00544613 0 0
0.00628966 0 0
0.00735645 0 0
0.00873876 0 0
0.0105838 0 0
0.0131399 0 0
0.0168559 0 0
0.0226185 0 0
0.0323937 0 0
0.0512446 0 0
0.0949523 0 0
0.225921 0 0
0.000103568 0 0
0.000311049 0 0
0.000519857 0 0
0.000731119 0 0
0.00094607 0 0
0.00116602 0 0
0.00139236 0 0
0.00162653 0 0
0.00187004 0 0
0.00212452 0 0
0.00239169 0 0
0.00267348 0 0
0.00297201 0 0
0.00328973 0 0
0.0036295 0 0
0.0039947 0 0
0.00438942 0 0
0.00481863 0 0
0.00528847 0 0
0.00580655 0 0
0.00638245 0 0
0.00702818 0 0
0.00775905 0 0
0.00859458 0 0
0.00956003 0 0
0.0106884 0 0
0.0120237 0 0
0.0136256 0 0
0.0155769 0 0
0.0179955 0 0
0.0210548 0 0
0.0250186 0 0
0.0303063 0 0
0.0376204 0 0
0.0482151 0 0
0.0645156 0 0
0.0917012 0 0
0.142285 0 0
0.251407 0 0
0.53661 0 0
0.000161668 0 0
0.000485569 0 0
0.000811606 0 0
0.00114157 0 0
0.0014774 0 0
0.00182117 0 0
0.00217507 0 0
0.00254136 0 0
0.00292244 0 0
0.00332084 0 0
0.00373931 0 0
0.00418084 0 0
0.00464881 0 0
0.00514707 0 0
0.00568011 0 0
0.00625326 0 0
0.00687296 0 0
0.00754704 0 0
0.00828516 0 0
0.00909933 0 0
0.0100046 0 0
0.01102 0 0
0.0121697 0 0
0.0134846 0 0
0.0150045 0 0
0.0167818 0 0
0.0188859 0 0
0.0214111 0 0
0.024488 0 0
0.0283028 0 0
0.0331275 0 0
0.039375 0 0
0.0476962 0 0
0.0591681 0 0
0.0756757 0 0
0.100747 0 0
0.141527 0 0
0.213823 0 0
0.355917 0 0
0.665393 0 0
0.000213745 0 0
0.000642022 0 0
0.00107323 0 0
0.00150977 0 0
0.00195428 0 0
0.00240952 0 0
0.0028784 0 0
0.00336398 0 0
0.00386944 0 0
0.00439818 0 0
0.00495385 0 0
0.00554046 0 0
0.00616253 0 0
0.00682519 0 0
0.00753446 0 0
0.00829744 0 0
0.00912273 0 0
0.0100208 0 0
0.0110045 0 0
0.0120899 0 0
0.0132971 0 0
0.0146515 0 0
0.0161856 0 0
0.0179405 0 0
0.01997 0 0
0.0223439 0 0
0.0251551 0 0
0.0285297 0 0
0.032642 0 0
0.0377392 0 0
0.0441818 0 0
0.0525127 0 0
0.0635792 0 0
0.0787624 0 0
0.100426 0 0
0.132848 0 0
0.184258 0 0
0.271508 0 0
0.43068 0 0
0.735726 0 0
0.000261589 0 0
0.000785782 0 0
0.0013137 0 0
0.00184837 0 0
0.00239306 0 0
0.00295122 0 0
0.00352647 0 0
0.00412257 0 0
0.00474348 0 0
0.00539342 0 0
0.00607689 0 0
0.00679889 0 0
0.00756496 0 0
0.0083815 0 0
0.00925591 0 0
0.010197 0 0
0.0112154 0 0
0.012324 0 0
0.0135388 0 0
0.0148794 0 0
0.0163708 0 0
0.0180444 0 0
0.0199402 0 0
0.0221096 0 0
0.0246187 0 0
0.027554 0 0
0.0310304 0 0
0.0352031 0 0
0.0402863 0 0
0.0465829 0 0
0.0545318 0 0
0.0647886 0 0
0.0783654 0 0
0.0968855 0 0
0.123065 0 0
0.161664 0 0
0.221426 0 0
0.319077 0 0
0.486825 0 0
0.779241 0 0
0.000306279 0 0
0.000920093 0 0
0.00153845 0 0
0.00216499 0 0
0.00280363 0 0
0.00345847 0 0
0.00413381 0 0
0.00483415 0 0
0.00556417 0 0
0.00632885 0 0
0.00713358 0 0
0.00798422 0 0
0.00888739 0 0
0.00985062 0 0
0.0108827 0 0
0.0119941 0 0
0.0131973 0 0
0.0145075 0 0
0.0159436 0 0
0.0175289 0 0
0.0192926 0 0
0.0212718 0 0
0.0235138 0 0
0.0260793 0 0
0.0290467 0 0
0.0325179 0 0
0.036628 0 0
0.0415594 0 0
0.0475627 0 0
0.054991 0 0
0.0643524 0 0
0.0763996 0 0
0.0922811 0 0
0.11381 0 0
0.143953 0 0
0.187759 0 0
0.254117 0 0
0.359027 0 0
0.530522 0 0
0.80843 0 0
0.000348488 0 0
0.00104697 0 0
0.00175085 0 0
0.00246438 0 0
0.00319211 0 0
0.00393884 0 0
0.00470952 0 0
0.00550934 0 0
0.00634373 0 0
0.00721843 0 0
0.00813961 0 0
0.00911407 0 0
0.0101494 0 0
0.0112543 0 0
0.0124389 0 0
0.0137151 0 0
0.0150974 0 0
0.0166032 0 0
0.0182541 0 0
0.0200767 0 0
0.0221045 0 0
0.0243799 0 0
0.026957 0 0
0.0299053 0 0
0.0333147 0 0
0.0373017 0 0
0.0420204 0 0
0.0476778 0 0
0.054558 0 0
0.0630587 0 0
0.0737492 0 0
0.0874649 0 0
0.105466 0 0
0.129711 0 0
0.16334 0 0
0.211547 0 0
0.283135 0 0
0.39309 0 0
0.565496 0 0
0.829225 0 0
0.000388638 0 0
0.00116769 0 0
0.00195302 0 0
0.00274952 0 0
0.00356241 0 0
0.00439714 0 0
0.00525935 0 0
0.00615492 0 0
0.00708999 0 0
0.00807105 0 0
0.00910509 0 0
0.0101998 0 0
0.0113636 0 0
0.0126065 0 0
0.0139398 0 0
0.015377 0 0
0.0169344 0 0
0.0186316 0 0
0.0204928 0 0
0.022548 0 0
0.0248345 0 0
0.0273996 0 0
0.0303036 0 0
0.0336246 0 0
0.0374635 0 0
0.0419503 0 0
0.0472563 0 0
0.0536114 0 0
0.0613299 0 0
0.0708495 0 0
0.0827926 0 0
0.0980648 0 0
0.118017 0 0
0.144716 0 0
0.181414 0 0
0.233352 0 0
0.309097 0 0
0.422507 0 0
0.594134 0 0
0.844761 0 0
0.000426991 0 0
0.00128303 0 0
0.00214628 0 0
0.0030223 0 0
0.00391697 0 0
0.00483641 0 0
0.00578696 0 0
0.00677518 0 0
0.00780794 0 0
0.00889245 0 0
0.0100365 0 0
0.0112486 0 0
0.0125382 0 0
0.0139163 0 0
0.0153956 0 0
0.016991 0 0
0.0187206 0 0
0.0206062 0 0
0.0226748 0 0
0.0249593 0 0
0.027501 0 0
0.0303518 0 0
0.0335777 0 0
0.0372641 0 0
0.0415229 0 0
0.0464964 0 0
0.0523717 0 0
0.0593996 0 0
0.0679217 0 0
0.0784112 0 0
0.0915367 0 0
0.108262 0 0
0.130011 0 0
0.158929 0 0
0.198334 0 0
0.253438 0 0
0.332487 0 0
0.448193 0 0
0.618039 0 0
0.856825 0 0
0.000463706 0 0
0.00139348 0 0
0.00233145 0 0
0.00328385 0 0
0.00425727 0 0
0.00525851 0 0
0.00629461 0 0
0.00737283 0 0
0.00850072 0 0
0.00968625 0 0
0.010938 0 0
0.0122652 0 0
0.0136785 0 0
0.0151897 0 0
0.0168127 0 0
0.0185642 0 0
0.0204638 0 0
0.0225356 0 0
0.0248091 0 0
0.0273208 0 0
0.0301161 0 0
0.0332522 0 0
0.0368022 0 0
0.0408639 0 0
0.0455387 0 0
0.0509891 0 0
0.0574192 0 0
0.0650995 0 0
0.0743963 0 0
0.0858141 0 0
0.100061 0 0
0.11815 0 0
0.141558 0 0
0.17249 0 0
0.214286 0 0
0.272081 0 0
0.353747 0 0
0.470889 0 0
0.638357 0 0
0.866511 0 0
0.000498855 0 0
0.00149926 0 0
0.00250889 0 0
0.00353473 0 0
0.00458405 0 0
0.00566439 0 0
0.00678347 0 0
0.00794927 0 0
0.00917004 0 0
0.0104545 0 0
0.0118119 0 0
0.0132524 0 0
0.0147875 0 0
0.01643 0 0
0.0181952 0 0
0.0201009 0 0
0.0221686 0 0
0.0244246 0 0
0.026901 0 0
0.0296375 0 0
0.032684 0 0
0.0361032 0 0
0.0399752 0 0
0.0444046 0 0
0.0494903 0 0
0.0554087 0 0
0.0623799 0 0
0.0706931 0 0
0.080737 0 0
0.0930439 0 0
0.108356 0 0
0.127725 0 0
0.152672 0 0
0.185435 0 0
0.229352 0 0
0.289442 0 0
0.373178 0 0
0.491117 0 0
0.655874 0 0
0.874493 0 0
0.000532443 0 0
0.00160037 0 0
0.00267865 0 0
0.00377499 0 0
0.00489743 0 0
0.00605423 0 0
0.00725384 0 0
0.00850493 0 0
0.00981648 0 0
0.0111979 0 0
0.0126592 0 0
0.0142114 0 0
0.0158667 0 0
0.0176391 0 0
0.0195449 0 0
0.0216032 0 0
0.0238374 0 0
0.0262755 0 0
0.0289523 0 0
0.0319106 0 0
0.0352037 0 0
0.0388988 0 0
0.04308 0 0
0.0478518 0 0
0.0533358 0 0
0.0597099 0 0
0.0672064 0 0
0.0761309 0 0
0.0868925 0 0
0.100048 0 0
0.116369 0 0
0.136939 0 0
0.163312 0 0
0.197742 0 0
0.243545 0 0
0.305598 0 0
0.390966 0 0
0.50924 0 0
0.67113 0 0
0.881193 0 0
0.000564429 0 0
0.00169671 0 0
0.00284052 0 0
0.00400438 0 0
0.00519711 0 0
0.00642772 0 0
0.0077054 0 0
0.00903955 0 0
0.0104398 0 0
0.0119164 0 0
0.01348 0 0
0.0151424 0 0
0.0169166 0 0
0.0188175 0 0
0.0208625 0 0
0.0230721 0 0
0.0254711 0 0
0.0280894 0 0
0.0309639 0 0
0.0341401 0 0
0.0376746 0 0
0.0416379 0 0
0.0461178 0 0
0.0512238 0 0
0.0570924 0 0
0.0639081 0 0
0.0719134 0 0
0.0814281 0 0
0.0928793 0 0
0.106845 0 0
0.124122 0 0
0.14582 0 0
0.173514 0 0
0.209466 0 0
0.256947 0 0
0.320681 0 0
0.407327 0 0
0.525586 0 0
0.684558 0 0
0.886917 0 0
0.000594725 0 0
0.00178801 0 0
0.0029941 0 0
0.00422236 0 0
0.00548241 0 0
0.00678407 0 0
0.00813729 0 0
0.0095522 0 0
0.0110392 0 0
0.0126091 0 0
0.0142734 0 0
0.0160445 0 0
0.0179364 0 0
0.0199647 0 0
0.0221478 0 0
0.0245075 0 0
0.0270697 0 0
0.0298662 0 0
0.0329358 0 0
0.0363265 0 0
0.0400976 0 0
0.0443229 0 0
0.0490945 0 0
0.0545281 0 0
0.0607704 0 0
0.0680143 0 0
0.0765121 0 0
0.0865965 0 0
0.0987103 0 0
0.113451 0 0
0.131634 0 0
0.154391 0 0
0.183313 0 0
0.220654 0 0
0.269632 0 0
0.334804 0 0
0.422436 0 0
0.54042 0 0
0.696485 0 0
0.89188 0 0
0.000623203 0 0
0.00187389 0 0
0.00313874 0 0
0.00442803 0 0
0.00575225 0 0
0.00712202 0 0
0.00854808 0 0
0.0100413 0 0
0.0116129 0 0
0.0132743 0 0
0.0150377 0 0
0.0169162 0 0
0.0189246 0 0
0.0210793 0 0
0.0233995 0 0
0.0259081 0 0
0.0286324 0 0
0.0316055 0 0
0.0348681 0 0
0.0384703 0 0
0.0424741 0 0
0.0469567 0 0
0.0520146 0 0
0.0577694 0 0
0.0643763 0 0
0.0720361 0 0
0.0810111 0 0
0.0916456 0 0
0.104396 0 0
0.119877 0 0
0.13892 0 0
0.162674 0 0
0.192736 0 0
0.231347 0 0
0.28166 0 0
0.348064 0 0
0.436443 0 0
0.553955 0 0
0.707167 0 0
0.896237 0 0
0.000649692 0 0
0.00195384 0 0
0.00327362 0 0
0.00462026 0 0
0.00600517 0 0
0.00743983 0 0
0.00893581 0 0
0.0105048 0 0
0.0121586 0 0
0.0139095 0 0
0.0157704 0 0
0.017755 0 0
0.0198788 0 0
0.0221589 0 0
0.0246155 0 0
0.0272723 0 0
0.0301577 0 0
0.0333062 0 0
0.0367601 0 0
0.0405716 0 0
0.0448052 0 0
0.0495415 0 0
0.0548811 0 0
0.0609514 0 0
0.0679145 0 0
0.0759794 0 0
0.0854172 0 0
0.0965831 0 0
0.109946 0 0
0.126134 0 0
0.145995 0 0
0.170686 0 0
0.201808 0 0
0.241582 0 0
0.293089 0 0
0.360544 0 0
0.449472 0 0
0.566367 0 0
0.716801 0 0
0.900101 0 0
0.000673981 0 0
0.00202722 0 0
0.00339768 0 0
0.0047976 0 0
0.00623934 0 0
0.00773532 0 0
0.00929796 0 0
0.0109397 0 0
0.0126733 0 0
0.0145116 0 0
0.0164681 0 0
0.0185575 0 0
0.0207956 0 0
0.0232004 0 0
0.0257928 0 0
0.0285973 0 0
0.0316432 0 0
0.0349665 0 0
0.0386107 0 0
0.0426301 0 0
0.0470915 0 0
0.0520786 0 0
0.0576962 0 0
0.0640768 0 0
0.0713888 0 0
0.0798486 0 0
0.0897359 0 0
0.101416 0 0
0.115368 0 0
0.132233 0 0
0.15287 0 0
0.178444 0 0
0.210554 0 0
0.251392 0 0
0.303965 0 0
0.372318 0 0
0.461631 0 0
0.5778 0 0
0.725547 0 0
0.903559 0 0
0.000695816 0 0
0.00209329 0 0
0.00350968 0 0
0.00495831 0 0
0.00645257 0 0
0.00800584 0 0
0.00963147 0 0
0.0113428 0 0
0.0131532 0 0
0.0150765 0 0
0.0171268 0 0
0.0193193 0 0
0.0216707 0 0
0.0241995 0 0
0.0269273 0 0
0.0298792 0 0
0.0330857 0 0
0.0365835 0 0
0.0404178 0 0
0.0446443 0 0
0.0493324 0 0
0.0545684 0 0
0.060461 0 0
0.0671474 0 0
0.0748018 0 0
0.0836474 0 0
0.0939718 0 0
0.106149 0 0
0.120669 0 0
0.138182 0 0
0.159557 0 0
0.185963 0 0
0.218992 0 0
0.260806 0 0
0.314334 0 0
0.383449 0 0
0.473011 0 0
0.588373 0 0
0.73353 0 0
0.906678 0 0
0.000714906 0 0
0.00215116 0 0
0.00360816 0 0
0.00510036 0 0
0.00664224 0 0
0.00824823 0 0
0.00993262 0 0
0.0117097 0 0
0.0135937 0 0
0.0155991 0 0
0.0177409 0 0
0.020035 0 0
0.0224984 0 0
0.0251506 0 0
0.0280135 0 0
0.0311131 0 0
0.0344805 0 0
0.0381533 0 0
0.0421781 0 0
0.046612 0 0
0.0515264 0 0
0.0570103 0 0
0.0631759 0 0
0.0701645 0 0
0.0781558 0 0
0.0873792 0 0
0.0981295 0 0
0.110789 0 0
0.125856 0 0
0.14399 0 0
0.166066 0 0
0.193257 0 0
0.227143 0 0
0.269852 0 0
0.324232 0 0
0.393993 0 0
0.483691 0 0
0.598189 0 0
0.740854 0 0
0.90951 0 0
0.000730926 0 0
0.00219987 0 0
0.00369148 0 0
0.00522145 0 0
0.00680541 0 0
0.00845888 0 0
0.0101972 0 0
0.0120356 0 0
0.0139893 0 0
0.0160736 0 0
0.0183042 0 0
0.0206978 0 0
0.023272 0 0
0.0260468 0 0
0.0290448 0 0
0.0322924 0 0
0.0358215 0 0
0.0396705 0 0
0.0438868 0 0
0.0485291 0 0
0.0536705 0 0
0.0594027 0 0
0.0658409 0 0
0.0731309 0 0
0.0814553 0 0
0.0910499 0 0
0.102216 0 0
0.115344 0 0
0.13094 0 0
0.14967 0 0
0.172415 0 0
0.200346 0 0
0.235031 0 0
0.278563 0 0
0.333705 0 0
0.404008 0 0
0.493745 0 0
0.607337 0 0
0.747609 0 0
0.912099 0 0
0.000743502 0 0
0.00223828 0 0
0.00375777 0 0
0.00531894 0 0
0.00693865 0 0
0.00863357 0 0
0.0104202 0 0
0.0123147 0 0
0.0143335 0 0
0.0164927 0 0
0.0188088 0 0
0.0212994 0 0
0.0239827 0 0
0.0268793 0 0
0.0300122 0 0
0.0334086 0 0
0.0371005 0 0
0.0411273 0 0
0.0455371 0 0
0.0503897 0 0
0.0557599 0 0
0.0617414 0 0
0.0684523 0 0
0.0760421 0 0
0.0846965 0 0
0.0946568 0 0
0.106231 0 0
0.119814 0 0
0.135922 0 0
0.155225 0 0
0.178608 0 0
0.207239 0 0
0.242671 0 0
0.286958 0 0
0.342781 0 0
0.413537 0 0
0.503233 0 0
0.615888 0 0
0.753863 0 0
0.914477 0 0
0.000752217 0 0
0.00226514 0 0
0.00380491 0 0
0.00538982 0 0
0.00703803 0 0
0.00876743 0 0
0.0105957 0 0
0.0125403 0 0
0.0146185 0 0
0.0168476 0 0
0.0192452 0 0
0.0218295 0 0
0.0246197 0 0
0.0276368 0 0
0.0309045 0 0
0.0344502 0 0
0.0383067 0 0
0.0425135 0 0
0.0471194 0 0
0.0521851 0 0
0.0577866 0 0
0.0640193 0 0
0.0710033 0 0
0.0788906 0 0
0.087872 0 0
0.0981927 0 0
0.110166 0 0
0.124194 0 0
0.140796 0 0
0.16065 0 0
0.184642 0 0
0.213935 0 0
0.250066 0 0
0.295047 0 0
0.35148 0 0
0.42261 0 0
0.512198 0 0
0.623902 0 0
0.759673 0 0
0.91667 0 0
0.000756635 0 0
0.00227913 0 0
0.00383066 0 0
0.00543091 0 0
0.00709933 0 0
0.00885515 0 0
0.0107173 0 0
0.0127046 0 0
0.0148354 0 0
0.0171284 0 0
0.0196022 0 0
0.022276 0 0
0.0251698 0 0
0.0283055 0 0
0.0317073 0 0
0.0354031 0 0
0.0394258 0 0
0.0438154 0 0
0.0486211 0 0
0.0539038 0 0
0.0597404 0 0
0.0662274 0 0
0.0734867 0 0
0.0816723 0 0
0.0909793 0 0
0.101657 0 0
0.114022 0 0
0.128484 0 0
0.145566 0 0
0.165951 0 0
0.190523 0 0
0.220444 0 0
0.257229 0 0
0.302849 0 0
0.359826 0 0
0.431264 0 0
0.520689 0 0
0.63143 0 0
0.765088 0 0
0.918701 0 0
0.000756299 0 0
0.00227887 0 0
0.00383267 0 0
0.00543878 0 0
0.00711802 0 0
0.00889096 0 0
0.0107779 0 0
0.0127991 0 0
0.0149743 0 0
0.0173235 0 0
0.0198667 0 0
0.0226242 0 0
0.0256173 0 0
0.0288686 0 0
0.032403 0 0
0.036249 0 0
0.0404398 0 0
0.0450154 0 0
0.050025 0 0
0.05553 0 0
0.0616071 0 0
0.0683537 0 0
0.0758927 0 0
0.0843799 0 0
0.0940134 0 0
0.105046 0 0
0.117799 0 0
0.132685 0 0
0.150234 0 0
0.17113 0 0
0.196259 0 0
0.226774 0 0
0.264172 0 0
0.310381 0 0
0.367844 0 0
0.439528 0 0
0.528744 0 0
0.638521 0 0
0.770151 0 0
0.920588 0 0
0.000750745 0 0
0.00226294 0 0
0.00380851 0 0
0.00540991 0 0
0.00708931 0 0
0.00886869 0 0
0.0107698 0 0
0.0128144 0 0
0.0150238 0 0
0.0174196 0 0
0.0200233 0 0
0.0228569 0 0
0.0259429 0 0
0.0293051 0 0
0.0329694 0 0
0.0369648 0 0
0.0413249 0 0
0.0460898 0 0
0.0513086 0 0
0.0570421 0 0
0.0633673 0 0
0.0703811 0 0
0.078207 0 0
0.0870018 0 0
0.0969656 0 0
0.108354 0 0
0.121492 0 0
0.136796 0 0
0.154801 0 0
0.176192 0 0
0.201855 0 0
0.232934 0 0
0.270906 0 0
0.317658 0 0
0.375555 0 0
0.447432 0 0
0.536399 0 0
0.645214 0 0
0.774898 0 0
0.922349 0 0
0.00073952 0 0
0.00222995 0 0
0.00375579 0 0
0.00534076 0 0
0.00700836 0 0
0.00878197 0 0
0.0106849 0 0
0.0127403 0 0
0.0149716 0 0
0.0174019 0 0
0.0200548 0 0
0.022954 0 0
0.0261239 0 0
0.0295898 0 0
0.033379 0 0
0.0375213 0 0
0.0420509 0 0
0.0470079 0 0
0.0524411 0 0
0.058411 0 0
0.0649935 0 0
0.072285 0 0
0.0804084 0 0
0.0895205 0 0
0.0998222 0 0
0.111571 0 0
0.125094 0 0
0.140814 0 0
0.159265 0 0
0.181137 0 0
0.207313 0 0
0.238929 0 0
0.277441 0 0
0.324694 0 0
0.382977 0 0
0.455001 0 0
0.543686 0 0
0.651545 0 0
0.77936 0 0
0.923996 0 0
0.000722208 0 0
0.00217863 0 0
0.00367224 0 0
0.00522794 0 0
0.00687043 0 0
0.00862445 0 0
0.0105148 0 0
0.0125664 0 0
0.0148044 0 0
0.0172543 0 0
0.0199416 0 0
0.0228926 0 0
0.0261337 0 0
0.0296925 0 0
0.0335981 0 0
0.0378818 0 0
0.0425787 0 0
0.0477292 0 0
0.0533819 0 0
0.0595964 0 0
0.0664474 0 0
0.07403 0 0
0.0824653 0 0
0.091909 0 0
0.102561 0 0
0.11468 0 0
0.128595 0 0
0.144729 0 0
0.163623 0 0
0.185965 0 0
0.212637 0 0
0.244767 0 0
0.283786 0 0
0.331502 0 0
0.390128 0 0
0.462258 0 0
0.550634 0 0
0.657544 0 0
0.783564 0 0
0.925541 0 0
0.000698459 0 0
0.00210787 0 0
0.00355593 0 0
0.00506845 0 0
0.00667121 0 0
0.00839016 0 0
0.0102515 0 0
0.012282 0 0
0.0145088 0 0
0.0169596 0 0
0.0196627 0 0
0.0226468 0 0
0.0259417 0 0
0.0295775 0 0
0.033586 0 0
0.0380009 0 0
0.0428587 0 0
0.048201 0 0
0.0540762 0 0
0.0605431 0 0
0.0676749 0 0
0.0755645 0 0
0.0843307 0 0
0.0941259 0 0
0.105147 0 0
0.117652 0 0
0.131971 0 0
0.148528 0 0
0.167865 0 0
0.190671 0 0
0.217826 0 0
0.250448 0 0
0.289949 0 0
0.338092 0 0
0.397024 0 0
0.469223 0 0
0.557268 0 0
0.663241 0 0
0.787536 0 0
0.926995 0 0
0.000668022 0 0
0.0020169 0 0
0.00340537 0 0
0.00485993 0 0
0.00640715 0 0
0.00807395 0 0
0.00988791 0 0
0.0118773 0 0
0.0140715 0 0
0.0165006 0 0
0.0191957 0 0
0.022189 0 0
0.0255137 0 0
0.0292037 0 0
0.0332946 0 0
0.0378232 0 0
0.042829 0 0
0.0483554 0 0
0.0544516 0 0
0.0611761 0 0
0.0686002 0 0
0.0768142 0 0
0.0859336 0 0
0.0961066 0 0
0.107524 0 0
0.12044 0 0
0.135184 0 0
0.15218 0 0
0.171969 0 0
0.195241 0 0
0.222872 0 0
0.255971 0 0
0.29593 0 0
0.344474 0 0
0.403678 0 0
0.475915 0 0
0.563609 0 0
0.668657 0 0
0.791291 0 0
0.928363 0 0
0.000630795 0 0
0.00190535 0 0
0.00321984 0 0
0.00460104 0 0
0.00607593 0 0
0.00767216 0 0
0.00941829 0 0
0.0113441 0 0
0.0134808 0 0
0.015861 0 0
0.0185191 0 0
0.0214908 0 0
0.0248135 0 0
0.0285259 0 0
0.0326684 0 0
0.0372828 0 0
0.0424131 0 0
0.0481061 0 0
0.0544135 0 0
0.0613941 0 0
0.0691176 0 0
0.0776701 0 0
0.0871599 0 0
0.0977219 0 0
0.109568 0 0
0.122933 0 0
0.138137 0 0
0.1556 0 0
0.17586 0 0
0.199607 0 0
0.227715 0 0
0.261282 0 0
0.301682 0 0
0.350602 0 0
0.410053 0 0
0.482305 0 0
0.56964 0 0
0.673781 0 0
0.794821 0 0
0.929636 0 0
0.000586848 0 0
0.00177339 0 0
0.00299947 0 0
0.00429164 0 0
0.00567687 0 0
0.00718304 0 0
0.00883932 0 0
0.0106766 0 0
0.0127276 0 0
0.0150274 0 0
0.0176132 0 0
0.0205248 0 0
0.0238043 0 0
0.0274961 0 0
0.0316465 0 0
0.0363042 0 0
0.0415198 0 0
0.0473464 0 0
0.0538403 0 0
0.0610633 0 0
0.069085 0 0
0.0779879 0 0
0.0878728 0 0
0.0988663 0 0
0.111187 0 0
0.125053 0 0
0.140771 0 0
0.158748 0 0
0.179517 0 0
0.203763 0 0
0.232356 0 0
0.266388 0 0
0.307215 0 0
0.356491 0 0
0.416165 0 0
0.488412 0 0
0.57538 0 0
0.678637 0 0
0.798151 0 0
0.930829 0 0
0.000536462 0 0
0.00162183 0 0
0.00274548 0 0
0.0039332 0 0
0.00521137 0 0
0.00660754 0 0
0.0081509 0 0
0.00987277 0 0
0.011807 0 0
0.0139905 0 0
0.0164631 0 0
0.0192682 0 0
0.0224529 0 0
0.0260675 0 0
0.0301658 0 0
0.034805 0 0
0.0400449 0 0
0.045948 0 0
0.0525797 0 0
0.0600091 0 0
0.0683107 0 0
0.0775681 0 0
0.0878808 0 0
0.0993764 0 0
0.11224 0 0
0.126685 0 0
0.142999 0 0
0.161572 0 0
0.18292 0 0
0.207719 0 0
0.236829 0 0
0.271338 0 0
0.312587 0 0
0.362201 0 0
0.422075 0 0
0.494295 0 0
0.580886 0 0
0.683272 0 0
0.801315 0 0
0.931963 0 0
0.000480183 0 0
0.00145229 0 0
0.00246049 0 0
0.0035292 0 0
0.00468357 0 0
0.00595011 0 0
0.00735732 0 0
0.00893617 0 0
0.0107208 0 0
0.0127488 0 0
0.015062 0 0
0.0177068 0 0
0.0207345 0 0
0.0242013 0 0
0.0281688 0 0
0.0327039 0 0
0.0378778 0 0
0.0437664 0 0
0.0504492 0 0
0.0580092 0 0
0.0665336 0 0
0.0761157 0 0
0.0868601 0 0
0.0988924 0 0
0.112374 0 0
0.127501 0 0
0.144537 0 0
0.16384 0 0
0.185896 0 0
0.211354 0 0
0.241063 0 0
0.276095 0 0
0.317785 0 0
0.367732 0 0
0.42779 0 0
0.499966 0 0
0.586174 0 0
0.687712 0 0
0.804346 0 0
0.933056 0 0
0.000418835 0 0
0.00126722 0 0
0.00214859 0 0
0.00308532 0 0
0.00410064 0 0
0.00521928 0 0
0.00646813 0 0
0.00787687 0 0
0.00947864 0 0
0.0113108 0 0
0.0134155 0 0
0.0158405 0 0
0.01864 0 0
0.021875 0 0
0.0256138 0 0
0.0299328 0 0
0.034916 0 0
0.0406548 0 0
0.0472478 0 0
0.0547995 0 0
0.0634197 0 0
0.0732234 0 0
0.0843329 0 0
0.0968819 0 0
0.111023 0 0
0.126937 0 0
0.144854 0 0
0.165087 0 0
0.18807 0 0
0.214399 0 0
0.24488 0 0
0.280562 0 0
0.322762 0 0
0.37307 0 0
0.433311 0 0
0.505431 0 0
0.591245 0 0
0.691932 0 0
0.807177 0 0
0.934043 0 0
0.000353538 0 0
0.00107002 0 0
0.00181546 0 0
0.00260961 0 0
0.00347309 0 0
0.00442806 0 0
0.00549884 0 0
0.0067127 0 0
0.00810049 0 0
0.00969754 0 0
0.0115445 0 0
0.0136885 0 0
0.0161839 0 0
0.0190936 0 0
0.0224901 0 0
0.0264568 0 0
0.0310885 0 0
0.0364921 0 0
0.0427869 0 0
0.0501043 0 0
0.0585861 0 0
0.0683838 0 0
0.0796566 0 0
0.0925705 0 0
0.107299 0 0
0.124027 0 0
0.142965 0 0
0.164376 0 0
0.18862 0 0
0.216197 0 0
0.247818 0 0
0.284454 0 0
0.327376 0 0
0.378161 0 0
0.438629 0 0
0.510708 0 0
0.596159 0 0
0.69609 0 0
0.810119 0 0
0.935201 0 0
0.000285702 0 0
0.000864953 0 0
0.00146839 0 0
0.00211257 0 0
0.00281489 0 0
0.00359417 0 0
0.00447131 0 0
0.00546997 0 0
0.00661728 0 0
0.00794479 0 0
0.00948938 0 0
0.0112945 0 0
0.0134114 0 0
0.0159009 0 0
0.0188347 0 0
0.0222977 0 0
0.0263897 0 0
0.0312277 0 0
0.0369473 0 0
0.0437045 0 0
0.0516762 0 0
0.0610598 0 0
0.0720708 0 0
0.0849394 0 0
0.0999045 0 0
0.117209 0 0
0.137099 0 0
0.159834 0 0
0.18571 0 0
0.21511 0 0
0.24857 0 0
0.286868 0 0
0.331109 0 0
0.382771 0 0
0.44366 0 0