# vtk DataFile Version 2.0
Presion
ASCII

DATASET STRUCTURED_GRID
DIMENSIONS   40   40   20

POINTS   32000   double
0.0125   0.0125   0.025
0.0375   0.0125   0.025
0.0625   0.0125   0.025
0.0875   0.0125   0.025
0.1125   0.0125   0.025
0.1375   0.0125   0.025
0.1625   0.0125   0.025
0.1875   0.0125   0.025
0.2125   0.0125   0.025
0.2375   0.0125   0.025
0.2625   0.0125   0.025
0.2875   0.0125   0.025
0.3125   0.0125   0.025
0.3375   0.0125   0.025
0.3625   0.0125   0.025
0.3875   0.0125   0.025
0.4125   0.0125   0.025
0.4375   0.0125   0.025
0.4625   0.0125   0.025
0.4875   0.0125   0.025
0.5125   0.0125   0.025
0.5375   0.0125   0.025
0.5625   0.0125   0.025
0.5875   0.0125   0.025
0.6125   0.0125   0.025
0.6375   0.0125   0.025
0.6625   0.0125   0.025
0.6875   0.0125   0.025
0.7125   0.0125   0.025
0.7375   0.0125   0.025
0.7625   0.0125   0.025
0.7875   0.0125   0.025
0.8125   0.0125   0.025
0.8375   0.0125   0.025
0.8625   0.0125   0.025
0.8875   0.0125   0.025
0.9125   0.0125   0.025
0.9375   0.0125   0.025
0.9625   0.0125   0.025
0.9875   0.0125   0.025
0.0125   0.0375   0.025
0.0375   0.0375   0.025
0.0625   0.0375   0.025
0.0875   0.0375   0.025
0.1125   0.0375   0.025
0.1375   0.0375   0.025
0.1625   0.0375   0.025
0.1875   0.0375   0.025
0.2125   0.0375   0.025
0.2375   0.0375   0.025
0.2625   0.0375   0.025
0.2875   0.0375   0.025
0.3125   0.0375   0.025
0.3375   0.0375   0.025
0.3625   0.0375   0.025
0.3875   0.0375   0.025
0.4125   0.0375   0.025
0.4375   0.0375   0.025
0.4625   0.0375   0.025
0.4875   0.0375   0.025
0.5125   0.0375   0.025
0.5375   0.0375   0.025
0.5625   0.0375   0.025
0.5875   0.0375   0.025
0.6125   0.0375   0.025
0.6375   0.0375   0.025
0.6625   0.0375   0.025
0.6875   0.0375   0.025
0.7125   0.0375   0.025
0.7375   0.0375   0.025
0.7625   0.0375   0.025
0.7875   0.0375   0.025
0.8125   0.0375   0.025
0.8375   0.0375   0.025
0.8625   0.0375   0.025
0.8875   0.0375   0.025
0.9125   0.0375   0.025
0.9375   0.0375   0.025
0.9625   0.0375   0.025
0.9875   0.0375   0.025
0.0125   0.0625   0.025
0.0375   0.0625   0.025
0.0625   0.0625   0.025
0.0875   0.0625   0.025
0.1125   0.0625   0.025
0.1375   0.0625   0.025
0.1625   0.0625   0.025
0.1875   0.0625   0.025
0.2125   0.0625   0.025
0.2375   0.0625   0.025
0.2625   0.0625   0.025
0.2875   0.0625   0.025
0.3125   0.0625   0.025
0.3375   0.0625   0.025
0.3625   0.0625   0.025
0.3875   0.0625   0.025
0.4125   0.0625   0.025
0.4375   0.0625   0.025
0.4625   0.0625   0.025
0.4875   0.0625   0.025
0.5125   0.0625   0.025
0.5375   0.0625   0.025
0.5625   0.0625   0.025
0.5875   0.0625   0.025
0.6125   0.0625   0.025
0.6375   0.0625   0.025
0.6625   0.0625   0.025
0.6875   0.0625   0.025
0.7125   0.0625   0.025
0.7375   0.0625   0.025
0.7625   0.0625   0.025
0.7875   0.0625   0.025
0.8125   0.0625   0.025
0.8375   0.0625   0.025
0.8625   0.0625   0.025
0.8875   0.0625   0.025
0.9125   0.0625   0.025
0.9375   0.0625   0.025
0.9625   0.0625   0.025
0.9875   0.0625   0.025
0.0125   0.0875   0.025
0.0375   0.0875   0.025
0.0625   0.0875   0.025
0.0875   0.0875   0.025
0.1125   0.0875   0.025
0.1375   0.0875   0.025
0.1625   0.0875   0.025
0.1875   0.0875   0.025
0.2125   0.0875   0.025
0.2375   0.0875   0.025
0.2625   0.0875   0.025
0.2875   0.0875   0.025
0.3125   0.0875   0.025
0.3375   0.0875   0.025
0.3625   0.0875   0.025
0.3875   0.0875   0.025
0.4125   0.0875   0.025
0.4375   0.0875   0.025
0.4625   0.0875   0.025
0.4875   0.0875   0.025
0.5125   0.0875   0.025
0.5375   0.0875   0.025
0.5625   0.0875   0.025
0.5875   0.0875   0.025
0.6125   0.0875   0.025
0.6375   0.0875   0.025
0.6625   0.0875   0.025
0.6875   0.0875   0.025
0.7125   0.0875   0.025
0.7375   0.0875   0.025
0.7625   0.0875   0.025
0.7875   0.0875   0.025
0.8125   0.0875   0.025
0.8375   0.0875   0.025
0.8625   0.0875   0.025
0.8875   0.0875   0.025
0.9125   0.0875   0.025
0.9375   0.0875   0.025
0.9625   0.0875   0.025
0.9875   0.0875   0.025
0.0125   0.1125   0.025
0.0375   0.1125   0.025
0.0625   0.1125   0.025
0.0875   0.1125   0.025
0.1125   0.1125   0.025
0.1375   0.1125   0.025
0.1625   0.1125   0.025
0.1875   0.1125   0.025
0.2125   0.1125   0.025
0.2375   0.1125   0.025
0.2625   0.1125   0.025
0.2875   0.1125   0.025
0.3125   0.1125   0.025
0.3375   0.1125   0.025
0.3625   0.1125   0.025
0.3875   0.1125   0.025
0.4125   0.1125   0.025
0.4375   0.1125   0.025
0.4625   0.1125   0.025
0.4875   0.1125   0.025
0.5125   0.1125   0.025
0.5375   0.1125   0.025
0.5625   0.1125   0.025
0.5875   0.1125   0.025
0.6125   0.1125   0.025
0.6375   0.1125   0.025
0.6625   0.1125   0.025
0.6875   0.1125   0.025
0.7125   0.1125   0.025
0.7375   0.1125   0.025
0.7625   0.1125   0.025
0.7875   0.1125   0.025
0.8125   0.1125   0.025
0.8375   0.1125   0.025
0.8625   0.1125   0.025
0.8875   0.1125   0.025
0.9125   0.1125   0.025
0.9375   0.1125   0.025
0.9625   0.1125   0.025
0.9875   0.1125   0.025
0.0125   0.1375   0.025
0.0375   0.1375   0.025
0.0625   0.1375   0.025
0.0875   0.1375   0.025
0.1125   0.1375   0.025
0.1375   0.1375   0.025
0.1625   0.1375   0.025
0.1875   0.1375   0.025
0.2125   0.1375   0.025
0.2375   0.1375   0.025
0.2625   0.1375   0.025
0.2875   0.1375   0.025
0.3125   0.1375   0.025
0.3375   0.1375   0.025
0.3625   0.1375   0.025
0.3875   0.1375   0.025
0.4125   0.1375   0.025
0.4375   0.1375   0.025
0.4625   0.1375   0.025
0.4875   0.1375   0.025
0.5125   0.1375   0.025
0.5375   0.1375   0.025
0.5625   0.1375   0.025
0.5875   0.1375   0.025
0.6125   0.1375   0.025
0.6375   0.1375   0.025
0.6625   0.1375   0.025
0.6875   0.1375   0.025
0.7125   0.1375   0.025
0.7375   0.1375   0.025
0.7625   0.1375   0.025
0.7875   0.1375   0.025
0.8125   0.1375   0.025
0.8375   0.1375   0.025
0.8625   0.1375   0.025
0.8875   0.1375   0.025
0.9125   0.1375   0.025
0.9375   0.1375   0.025
0.9625   0.1375   0.025
0.9875   0.1375   0.025
0.0125   0.1625   0.025
0.0375   0.1625   0.025
0.0625   0.1625   0.025
0.0875   0.1625   0.025
0.1125   0.1625   0.025
0.1375   0.1625   0.025
0.1625   0.1625   0.025
0.1875   0.1625   0.025
0.2125   0.1625   0.025
0.2375   0.1625   0.025
0.2625   0.1625   0.025
0.2875   0.1625   0.025
0.3125   0.1625   0.025
0.3375   0.1625   0.025
0.3625   0.1625   0.025
0.3875   0.1625   0.025
0.4125   0.1625   0.025
0.4375   0.1625   0.025
0.4625   0.1625   0.025
0.4875   0.1625   0.025
0.5125   0.1625   0.025
0.5375   0.1625   0.025
0.5625   0.1625   0.025
0.5875   0.1625   0.025
0.6125   0.1625   0.025
0.6375   0.1625   0.025
0.6625   0.1625   0.025
0.6875   0.1625   0.025
0.7125   0.1625   0.025
0.7375   0.1625   0.025
0.7625   0.1625   0.025
0.7875   0.1625   0.025
0.8125   0.1625   0.025
0.8375   0.1625   0.025
0.8625   0.1625   0.025
0.8875   0.1625   0.025
0.9125   0.1625   0.025
0.9375   0.1625   0.025
0.9625   0.1625   0.025
0.9875   0.1625   0.025
0.0125   0.1875   0.025
0.0375   0.1875   0.025
0.0625   0.1875   0.025
0.0875   0.1875   0.025
0.1125   0.1875   0.025
0.1375   0.1875   0.025
0.1625   0.1875   0.025
0.1875   0.1875   0.025
0.2125   0.1875   0.025
0.2375   0.1875   0.025
0.2625   0.1875   0.025
0.2875   0.1875   0.025
0.3125   0.1875   0.025
0.3375   0.1875   0.025
0.3625   0.1875   0.025
0.3875   0.1875   0.025
0.4125   0.1875   0.025
0.4375   0.1875   0.025
0.4625   0.1875   0.025
0.4875   0.1875   0.025
0.5125   0.1875   0.025
0.5375   0.1875   0.025
0.5625   0.1875   0.025
0.5875   0.1875   0.025
0.6125   0.1875   0.025
0.6375   0.1875   0.025
0.6625   0.1875   0.025
0.6875   0.1875   0.025
0.7125   0.1875   0.025
0.7375   0.1875   0.025
0.7625   0.1875   0.025
0.7875   0.1875   0.025
0.8125   0.1875   0.025
0.8375   0.1875   0.025
0.8625   0.1875   0.025
0.8875   0.1875   0.025
0.9125   0.1875   0.025
0.9375   0.1875   0.025
0.9625   0.1875   0.025
0.9875   0.1875   0.025
0.0125   0.2125   0.025
0.0375   0.2125   0.025
0.0625   0.2125   0.025
0.0875   0.2125   0.025
0.1125   0.2125   0.025
0.1375   0.2125   0.025
0.1625   0.2125   0.025
0.1875   0.2125   0.025
0.2125   0.2125   0.025
0.2375   0.2125   0.025
0.2625   0.2125   0.025
0.2875   0.2125   0.025
0.3125   0.2125   0.025
0.3375   0.2125   0.025
0.3625   0.2125   0.025
0.3875   0.2125   0.025
0.4125   0.2125   0.025
0.4375   0.2125   0.025
0.4625   0.2125   0.025
0.4875   0.2125   0.025
0.5125   0.2125   0.025
0.5375   0.2125   0.025
0.5625   0.2125   0.025
0.5875   0.2125   0.025
0.6125   0.2125   0.025
0.6375   0.2125   0.025
0.6625   0.2125   0.025
0.6875   0.2125   0.025
0.7125   0.2125   0.025
0.7375   0.2125   0.025
0.7625   0.2125   0.025
0.7875   0.2125   0.025
0.8125   0.2125   0.025
0.8375   0.2125   0.025
0.8625   0.2125   0.025
0.8875   0.2125   0.025
0.9125   0.2125   0.025
0.9375   0.2125   0.025
0.9625   0.2125   0.025
0.9875   0.2125   0.025
0.0125   0.2375   0.025
0.0375   0.2375   0.025
0.0625   0.2375   0.025
0.0875   0.2375   0.025
0.1125   0.2375   0.025
0.1375   0.2375   0.025
0.1625   0.2375   0.025
0.1875   0.2375   0.025
0.2125   0.2375   0.025
0.2375   0.2375   0.025
0.2625   0.2375   0.025
0.2875   0.2375   0.025
0.3125   0.2375   0.025
0.3375   0.2375   0.025
0.3625   0.2375   0.025
0.3875   0.2375   0.025
0.4125   0.2375   0.025
0.4375   0.2375   0.025
0.4625   0.2375   0.025
0.4875   0.2375   0.025
0.5125   0.2375   0.025
0.5375   0.2375   0.025
0.5625   0.2375   0.025
0.5875   0.2375   0.025
0.6125   0.2375   0.025
0.6375   0.2375   0.025
0.6625   0.2375   0.025
0.6875   0.2375   0.025
0.7125   0.2375   0.025
0.7375   0.2375   0.025
0.7625   0.2375   0.025
0.7875   0.2375   0.025
0.8125   0.2375   0.025
0.8375   0.2375   0.025
0.8625   0.2375   0.025
0.8875   0.2375   0.025
0.9125   0.2375   0.025
0.9375   0.2375   0.025
0.9625   0.2375   0.025
0.9875   0.2375   0.025
0.0125   0.2625   0.025
0.0375   0.2625   0.025
0.0625   0.2625   0.025
0.0875   0.2625   0.025
0.1125   0.2625   0.025
0.1375   0.2625   0.025
0.1625   0.2625   0.025
0.1875   0.2625   0.025
0.2125   0.2625   0.025
0.2375   0.2625   0.025
0.2625   0.2625   0.025
[...]
POINT_DATA   32000
SCALARS Presion double
LOOKUP_TABLE   Presion

0 0 0 0 0 0 0 0 0 0 0 0 0 0 0 0 0 0 0 0 0 0 0 0 0 0 0 0 0 0 0 0 0 0 0 0 0 0 0 0 -5.16038e-06 -5.11693e-06 -5.03724e-06 -4.9252e-06 -4.78331e-06 -4.61344e-06 -4.41716e-06 -4.19581e-06 -3.95059e-06 -3.68247e-06 -3.39224e-06 -3.08051e-06 -2.74746e-06 -2.39314e-06 -2.01731e-06 -1.61953e-06 -1.19922e-06 -7.55676e-07 -2.88194e-07 2.0384e-07 7.20835e-07 1.26284e-06 1.82947e-06 2.41968e-06 3.03165e-06 3.6626e-06 4.30863e-06 4.96469e-06 5.62439e-06 6.28009e-06 6.92289e-06 7.54291e-06 8.12935e-06 8.67106e-06 9.15696e-06 9.57664e-06 9.92094e-06 1.01826e-05 1.0357e-05 1.04428e-05 -1.03111e-05 -1.02251e-05 -1.00665e-05 -9.84284e-06 -9.55915e-06 -9.21931e-06 -8.82653e-06 -8.38363e-06 -7.89308e-06 -7.35692e-06 -6.77677e-06 -6.15388e-06 -5.48872e-06 -4.78132e-06 -4.03125e-06 -3.23761e-06 -2.39918e-06 -1.51451e-06 -5.8214e-07 3.99244e-07 1.43055e-06 2.51197e-06 3.64285e-06 4.82125e-06 6.04361e-06 7.30452e-06 8.59634e-06 9.90901e-06 1.12299e-05 1.25437e-05 1.38326e-05 1.50768e-05 1.62545e-05 1.73432e-05 1.83205e-05 1.91653e-05 1.9859e-05 2.03867e-05 2.07389e-05 2.09125e-05 -1.54617e-05 -1.53333e-05 -1.50955e-05 -1.47597e-05 -1.43333e-05 -1.38224e-05 -1.3232e-05 -1.25665e-05 -1.18299e-05 -1.10253e-05 -1.01553e-05 -9.22201e-06 -8.22607e-06 -7.16763e-06 -6.04598e-06 -4.85973e-06 -3.60694e-06 -2.28531e-06 -8.92473e-07 5.73745e-07 2.11494e-06 3.73166e-06 5.42324e-06 7.18705e-06 9.01811e-06 1.09086e-05 1.28474e-05 1.48196e-05 1.68064e-05 1.8785e-05 2.07285e-05 2.2607e-05 2.43874e-05 2.60352e-05 2.75161e-05 2.87976e-05 2.98509e-05 3.0653e-05 3.11889e-05 3.14534e-05 -2.06214e-05 -2.045e-05 -2.01321e-05 -1.96825e-05 -1.91115e-05 -1.84274e-05 -1.76371e-05 -1.67471e-05 -1.57627e-05 -1.46887e-05 -1.35288e-05 -1.22858e-05 -1.09609e-05 -9.55412e-06 -8.06464e-06 -6.49042e-06 -4.82867e-06 -3.07607e-06 -1.22912e-06 7.15452e-07 2.76023e-06 4.90646e-06 7.15378e-06 9.49929e-06 1.1937e-05 1.4457e-05 1.7045e-05 1.96818e-05 2.23425e-05 2.49967e-05 2.76086e-05 3.01375e-05 3.25384e-05 3.47644e-05 3.6768e-05 3.85043e-05 3.99332e-05 4.10225e-05 4.17509e-05 4.21107e-05 -2.57995e-05 -2.55842e-05 -2.51843e-05 -2.46183e-05 -2.38995e-05 -2.30386e-05 -2.2045e-05 -2.09271e-05 -1.96924e-05 -1.83473e-05 -1.68968e-05 -1.53448e-05 -1.36929e-05 -1.19414e-05 -1.00889e-05 -8.1328e-06 -6.06924e-06 -3.89362e-06 -1.60103e-06 8.13258e-07 3.35319e-06 6.02115e-06 8.81758e-06 1.17398e-05 1.47813e-05 1.79308e-05 2.11713e-05 2.44794e-05 2.78248e-05 3.11696e-05 3.44685e-05 3.76699e-05 4.07163e-05 4.35467e-05 4.60995e-05 4.83157e-05 5.01422e-05 5.15365e-05 5.24697e-05 5.29309e-05 -3.10058e-05 -3.07451e-05 -3.02604e-05 -2.95743e-05 -2.8703e-05 -2.76602e-05 -2.6458e-05 -2.51075e-05 -2.36185e-05 -2.19994e-05 -2.0257e-05 -1.83964e-05 -1.64199e-05 -1.43278e-05 -1.21184e-05 -9.78811e-06 -7.3318e-06 -4.74329e-06 -2.01588e-06 8.57045e-07 3.88127e-06 7.06085e-06 1.03976e-05 1.38898e-05 1.75311e-05 2.13095e-05 2.5206e-05 2.91938e-05 3.32372e-05 3.7291e-05 4.13008e-05 4.52032e-05 4.89269e-05 5.23959e-05 5.55324e-05 5.82613e-05 6.05146e-05 6.22371e-05 6.33912e-05 6.3962e-05 -3.62511e-05 -3.59431e-05 -3.53697e-05 -3.45579e-05 -3.35276e-05 -3.22957e-05 -3.08776e-05 -2.92876e-05 -2.75384e-05 -2.56412e-05 -2.36047e-05 -2.14357e-05 -1.91371e-05 -1.67094e-05 -1.41503e-05 -1.14552e-05 -8.61734e-06 -5.6285e-06 -2.47975e-06 8.37903e-07 4.3327e-06 8.011e-06 1.18768e-05 1.593e-05 2.01653e-05 2.45708e-05 2.91265e-05 3.3803e-05 3.85598e-05 4.3345e-05 4.80943e-05 5.27324e-05 5.71731e-05 6.13234e-05 6.5087e-05 6.83702e-05 7.10872e-05 7.31678e-05 7.45634e-05 7.52541e-05 -4.15476e-05 -4.11894e-05 -4.05221e-05 -3.95773e-05 -3.83789e-05 -3.6948e-05 -3.5304e-05 -3.3465e-05 -3.14476e-05 -2.92661e-05 -2.69321e-05 -2.44541e-05 -2.1836e-05 -1.90785e-05 -1.61786e-05 -1.31301e-05 -9.92425e-06 -6.55043e-06 -2.99689e-06 7.48378e-07 4.69668e-06 8.85746e-06 1.32376e-05 1.78398e-05 2.26607e-05 2.76897e-05 3.2907e-05 3.82812e-05 4.37685e-05 4.93103e-05 5.48328e-05 6.02481e-05 6.54536e-05 7.03372e-05 7.47815e-05 7.86705e-05 8.18975e-05 8.43735e-05 8.60367e-05 8.68602e-05 -4.69092e-05 -4.64971e-05 -4.57289e-05 -4.46412e-05 -4.32629e-05 -4.16198e-05 -3.97362e-05 -3.76353e-05 -3.53385e-05 -3.28642e-05 -3.02274e-05 -2.74391e-05 -2.45043e-05 -2.14237e-05 -1.81933e-05 -1.48051e-05 -1.12478e-05 -7.50753e-06 -3.56925e-06 5.8275e-07 4.96359e-06 9.58659e-06 1.44626e-05 1.95978e-05 2.49925e-05 3.06385e-05 3.65174e-05 4.2598e-05 4.88334e-05 5.51598e-05 6.14941e-05 6.77348e-05 7.37619e-05 7.94416e-05 8.46316e-05 8.91898e-05 9.29837e-05 9.59017e-05 9.78649e-05 9.88376e-05 -5.23526e-05 -5.18818e-05 -5.10034e-05 -4.97599e-05 -4.81857e-05 -4.63126e-05 -4.41713e-05 -4.17911e-05 -3.91997e-05 -3.64208e-05 -3.34739e-05 -3.03728e-05 -2.71241e-05 -2.37283e-05 -2.018e-05 -1.64686e-05 -1.25795e-05 -8.49511e-06 -4.19619e-06 3.37354e-07 5.12522e-06 1.01855e-05 1.55339e-05 2.11815e-05 2.71334e-05 3.33857e-05 3.99234e-05 4.67166e-05 5.37179e-05 6.08589e-05 6.8048e-05 7.517e-05 8.20853e-05 8.86357e-05 9.46501e-05 9.99546e-05 0.000104385 0.000107803 0.000110106 0.000111249 -5.78979e-05 -5.7362e-05 -5.63614e-05 -5.49451e-05 -5.31542e-05 -5.10278e-05 -4.86045e-05 -4.59218e-05 -4.30152e-05 -3.99157e-05 -3.66483e-05 -3.32308e-05 -2.96712e-05 -2.59697e-05 -2.21185e-05 -1.81039e-05 -1.39067e-05 -9.50486e-06 -4.87404e-06 1.09526e-08 5.17515e-06 1.06422e-05 1.64337e-05 2.25672e-05 2.90538e-05 3.58962e-05 4.30846e-05 5.05934e-05 5.83766e-05 6.63635e-05 7.44549e-05 8.25215e-05 9.0403e-05 9.79128e-05 0.000104846 0.00011099 0.000116144 0.000120132 0.000122825 0.000124162 -6.35697e-05 -6.29607e-05 -6.18223e-05 -6.02111e-05 -5.81764e-05 -5.5766e-05 -5.30287e-05 -5.00124e-05 -4.67632e-05 -4.33214e-05 -3.97196e-05 -3.59803e-05 -3.21133e-05 -2.81177e-05 -2.39824e-05 -1.96887e-05 -1.52121e-05 -1.05244e-05 -5.5957e-06 -3.94849e-07 5.10912e-06 1.09462e-05 1.71449e-05 2.37302e-05 3.07216e-05 3.81301e-05 4.59545e-05 5.41763e-05 6.27542e-05 7.16181e-05 8.0663e-05 8.97461e-05 9.8684e-05 0.000107258 0.000115223 0.000122322 0.000128303 0.000132948 0.000136093 0.000137656 -6.93988e-05 -6.87063e-05 -6.74103e-05 -6.55759e-05 -6.3262e-05 -6.05276e-05 -5.74339e-05 -5.40428e-05 -5.04141e-05 -4.6601e-05 -4.2646e-05 -3.85779e-05 -3.44082e-05 -3.01335e-05 -2.57376e-05 -2.11947e-05 -1.6473e-05 -1.15371e-05 -6.35027e-06 -8.75134e-07 4.92568e-06 1.1089e-05 1.7651e-05 2.46455e-05 3.21022e-05 4.00432e-05 4.84791e-05 5.74029e-05 6.67824e-05 7.65523e-05 8.66051e-05 9.67854e-05 0.000106885 0.000116648 0.000125781 0.000133971 0.000140909 0.000146318 0.000149992 0.00015182 -7.54239e-05 -7.46349e-05 -7.3156e-05 -7.10623e-05 -6.84238e-05 -6.53131e-05 -6.18073e-05 -5.79864e-05 -5.39286e-05 -4.9705e-05 -4.53719e-05 -4.09663e-05 -3.6501e-05 -3.19677e-05 -2.73416e-05 -2.25868e-05 -1.76615e-05 -1.25216e-05 -7.12275e-06 -1.42116e-06 4.62688e-06 1.1065e-05 1.79376e-05 2.52885e-05 3.31593e-05 4.15864e-05 5.05962e-05 6.01984e-05 7.03768e-05 8.10771e-05 9.21943e-05 0.000103562 0.000114946 0.000126047 0.000136512 0.000145962 0.000154013 0.000160319 0.000164615 0.000166757 -8.16936e-05 -8.0792e-05 -7.90988e-05 -7.67001e-05 -7.3679e-05 -7.01243e-05 -6.61331e-05 -6.18086e-05 -5.72547e-05 -5.25674e-05 -4.78232e-05 -4.30703e-05 -3.83212e-05 -3.35584e-05 -2.87428e-05 -2.38232e-05 -1.87446e-05 -1.34523e-05 -7.89394e-06 -2.01977e-06 4.21929e-06 1.0873e-05 1.79939e-05 2.56365e-05 3.38561e-05 4.27064e-05 5.22346e-05 6.2474e-05 7.34331e-05 8.50787e-05 9.73171e-05 0.000109975 0.000122788 0.000135404 0.000147402 0.000158316 0.000167672 0.000175038 0.000180074 0.000182589 -8.82695e-05 -8.72354e-05 -8.52891e-05 -8.25286e-05 -7.90516e-05 -7.49659e-05 -7.03928e-05 -6.54656e-05 -6.03236e-05 -5.50991e-05 -4.98998e-05 -4.47898e-05 -3.97782e-05 -3.48294e-05 -2.98801e-05 -2.48565e-05 -1.96855e-05 -1.43001e-05 -8.64053e-06 -2.65275e-06 3.71539e-06 1.05179e-05 1.78146e-05 2.56709e-05 3.41574e-05 4.33476e-05 5.33145e-05 6.41239e-05 7.58212e-05 8.84105e-05 0.000101824 0.000115888 0.000130304 0.000144654 0.000158427 0.000171055 0.000181953 0.000190578 0.000196497 0.000199459 -9.52287e-05 -9.40383e-05 -9.17921e-05 -8.86005e-05 -8.45765e-05 -7.98489e-05 -7.45672e-05 -6.89031e-05 -6.30443e-05 -5.71784e-05 -5.14635e-05 -4.59904e-05 -4.07562e-05 -3.56889e-05 -3.06847e-05 -2.56359e-05 -2.04458e-05 -1.50341e-05 -9.33566e-06 -3.29598e-06 3.13551e-06 1.00134e-05 1.74032e-05 2.53811e-05 3.40335e-05 4.34552e-05 5.37496e-05 6.5024e-05 7.73784e-05 9.08793e-05 0.000105512 0.00012112 0.000137356 0.000153712 0.000169561 0.000184208 0.000196934 0.000207062 0.00021404 0.00021754 -0.000102667 -0.000101292 -9.86914e-05 -9.49859e-05 -9.03043e-05 -8.47958e-05 -7.8641e-05 -7.20572e-05 -6.52976e-05 -5.86354e-05 -5.23183e-05 -4.64882e-05 -4.11073e-05 -3.60304e-05 -3.10845e-05 -2.61128e-05 -2.09904e-05 -1.56248e-05 -9.94989e-06 -3.9182e-06 2.51091e-06 9.38573e-06 1.6776e-05 2.4769e-05 3.3466e-05 4.29824e-05 5.34525e-05 6.50333e-05 7.79009e-05 9.22252e-05 0.0001081 0.00012542 0.000143763 0.000162475 0.000180776 0.000197814 0.000212714 0.000224638 0.00023289 0.000237039 -0.000110701 -0.000109112 -0.000106093 -0.000101779 -9.63088e-05 -8.98505e-05 -8.26126e-05 -7.48606e-05 -6.69307e-05 -5.92273e-05 -5.21702e-05 -4.60244e-05 -4.0647e-05 -3.57389e-05 -3.10137e-05 -2.62503e-05 -2.12951e-05 -1.60486e-05 -1.04529e-05 -4.47883e-06 1.88894e-06 8.6787e-06 1.59669e-05 2.38548e-05 3.24565e-05 4.19014e-05 5.2348e-05 6.40023e-05 7.7137e-05 9.20873e-05 0.000109172 0.00012844 0.000149296 0.000170834 0.000192056 0.000211933 0.000229416 0.000243487 0.000253269 0.000258201 -0.000119474 -0.000117635 -0.000114131 -0.000109102 -0.000102697 -9.50923e-05 -8.65129e-05 -7.72616e-05 -6.77597e-05 -5.85987e-05 -5.05402e-05 -4.42261e-05 -3.91568e-05 -3.47104e-05 -3.04333e-05 -2.60389e-05 -2.13573e-05 -1.62958e-05 -1.08164e-05 -4.9242e-06 1.34365e-06 7.96041e-06 1.50309e-05 2.26822e-05 3.10365e-05 4.0222e-05 5.03993e-05 6.1801e-05 7.47934e-05 8.99499e-05 0.000108053 0.000129675 0.000153686 0.000178697 0.000203426 0.000226667 0.000247204 0.000263825 0.000275439 0.000281314 -0.000129152 -0.000127028 -0.000122966 -0.000117114 -0.00010962 -0.000100655 -9.04395e-05 -7.92719e-05 -6.76096e-05 -5.62312e-05 -4.65339e-05 -4.05562e-05 -3.6424e-05 -3.29006e-05 -2.93659e-05 -2.55181e-05 -2.12107e-05 -1.63804e-05 -1.10204e-05 -5.18207e-06 1.00262e-06 7.33044e-06 1.40431e-05 2.13193e-05 2.92774e-05 3.80161e-05 4.76548e-05 5.83877e-05 7.0594e-05 8.50755e-05 0.00010349 0.000128398 0.000156681 0.000186061 0.000214995 0.000242179 0.000266287 0.000285911 0.000299707 0.000306713 -0.000139926 -0.000137481 -0.000132792 -0.000126009 -0.000117277 -0.000106748 -9.46038e-05 -8.10671e-05 -6.64678e-05 -5.14761e-05 -3.81055e-05 -3.43461e-05 -3.23964e-05 -3.04257e-05 -2.7944e-05 -2.47982e-05 -2.09376e-05 -1.6354e-05 -1.10709e-05 -5.16411e-06 1.1305e-06 6.91704e-06 1.30807e-05 1.9849e-05 2.7293e-05 3.54414e-05 4.4314e-05 5.39526e-05 6.45054e-05 7.656e-05 9.25917e-05 0.000123717 0.000158272 0.000193158 0.000227023 0.000258723 0.000286924 0.00031004 0.000326416 0.000334776 -0.000152011 -0.00014921 -0.000143826 -0.000136015 -0.000125914 -0.000113657 -9.93683e-05 -8.3137e-05 -6.49319e-05 -4.43126e-05 -1.92822e-05 -2.55539e-05 -2.76297e-05 -2.77129e-05 -2.6448e-05 -2.40657e-05 -2.06701e-05 -1.63198e-05 -1.10482e-05 -4.8472e-06 2.44206e-06 6.7919e-06 1.21677e-05 1.83431e-05 2.52277e-05 3.27437e-05 4.07788e-05 4.91325e-05 5.73828e-05 6.44447e-05 6.68498e-05 0.000115689 0.000159342 0.000200665 0.000239973 0.000276636 0.000309412 0.000336528 0.000355934 0.000365914 -0.000165638 -0.000162448 -0.000156305 -0.000147374 -0.000135799 -0.000121706 -0.000105194 -8.63037e-05 -6.49336e-05 -4.06808e-05 -1.25907e-05 -2.0098e-05 -2.40112e-05 -2.55179e-05 -2.52521e-05 -2.35413e-05 -2.0564e-05 -1.64253e-05 -1.11851e-05 -4.86094e-06 2.58875e-06 6.37566e-06 1.11796e-05 1.68397e-05 2.32271e-05 3.02029e-05 3.75739e-05 4.50268e-05 5.20028e-05 5.74512e-05 5.94515e-05 0.000113048 0.000162693 0.00020972 0.000254421 0.000296282 0.000334042 0.000365683 0.000388639 0.000400562 -0.000181056 -0.000177439 -0.00017047 -0.000160334 -0.000147189 -0.000131177 -0.000112413 -9.09698e-05 -6.68387e-05 -3.99031e-05 -1.00008e-05 -1.72769e-05 -2.1859e-05 -2.4172e-05 -2.45937e-05 -2.33903e-05 -2.07407e-05 -1.67672e-05 -1.15546e-05 -5.16268e-06 2.35864e-06 5.75503e-06 1.01371e-05 1.53984e-05 2.14121e-05 2.80225e-05 3.50186e-05 4.2095e-05 4.87962e-05 5.44702e-05 5.83534e-05 0.000114697 0.000168779 0.000220813 0.000270731 0.000317923 0.000361039 0.000397766 0.000424885 0.000439159 -0.000198521 -0.000194436 -0.000186566 -0.000175127 -0.000160306 -0.000142277 -0.000121203 -9.72232e-05 -7.04499e-05 -4.09913e-05 -9.03742e-06 -1.60775e-05 -2.09263e-05 -2.36878e-05 -2.45497e-05 -2.36924e-05 -2.12653e-05 -1.73883e-05 -1.21597e-05 -5.66614e-06 2.00061e-06 5.04814e-06 9.10274e-06 1.40788e-05 1.98597e-05 2.62974e-05 3.32018e-05 4.03264e-05 4.73597e-05 5.39517e-05 5.98353e-05 0.000119093 0.000177212 0.000233957 0.000289013 0.000341683 0.000390532 0.000432963 0.000464983 0.000482135 -0.000218299 -0.000213695 -0.000204834 -0.00019197 -0.000175336 -0.000155155 -0.000131648 -0.000105027 -7.55095e-05 -4.33373e-05 -8.83987e-06 -1.58672e-05 -2.09049e-05 -2.39516e-05 -2.50961e-05 -2.44568e-05 -2.21526e-05 -1.82938e-05 -1.29814e-05 -6.31343e-06 1.60466e-06 4.33044e-06 8.12941e-06 1.29218e-05 1.86018e-05 2.50389e-05 3.20767e-05 3.95329e-05 4.72092e-05 5.49252e-05 6.25938e-05 0.000125267 0.000187509 0.000248964 0.000309222 0.000367562 0.000422545 0.000471359 0.000509177 0.000529898 -0.000240662 -0.000235475 -0.000225505 -0.000211062 -0.000192436 -0.000169914 -0.000143779 -0.000114318 -8.1822e-05 -4.66115e-05 -9.06769e-06 -1.62933e-05 -2.15523e-05 -2.48249e-05 -2.61611e-05 -2.56466e-05 -2.33803e-05 -1.94625e-05 -1.39917e-05 -7.06653e-06 1.20794e-06 3.64415e-06 7.25056e-06 1.19479e-05 1.76393e-05 2.42128e-05 3.15447e-05 3.95046e-05 4.79687e-05 5.68434e-05 6.61007e-05 0.000132662 0.000199279 0.000265601 0.000331222 0.000395475 0.000457006 0.000512933 0.000557616 0.000582818 -0.000265894 -0.000260038 -0.000248805 -0.000232581 -0.000211732 -0.000186619 -0.000157602 -0.000125029 -8.92518e-05 -5.0632e-05 -9.5671e-06 -1.71554e-05 -2.26936e-05 -2.61775e-05 -2.76533e-05 -2.71971e-05 -2.48992e-05 -2.08536e-05 -1.51542e-05 -7.8947e-06 8.28355e-07 3.01331e-06 6.48594e-06 1.11644e-05 1.69578e-05 2.37697e-05 3.15026e-05 4.0064e-05 4.93765e-05 5.93914e-05 7.01004e-05 0.000140938 0.000212209 0.000283623 0.00035483 0.000425265 0.000493754 0.000557536 0.00061032 0.000641205 -0.000294285 -0.000287644 -0.000274946 -0.000256677 -0.000233308 -0.000205297 -0.000173085 -0.000137084 -9.76897e-05 -5.52834e-05 -1.02569e-05 -1.83284e-05 -2.41963e-05 -2.78894e-05 -2.94706e-05 -2.90227e-05 -2.66375e-05 -2.24073e-05 -1.64216e-05 -8.76553e-06 4.77699e-07 2.45546e-06 5.85065e-06 1.05755e-05 1.65417e-05 2.36639e-05 3.18641e-05 4.10764e-05 5.12536e-05 6.23734e-05 7.44387e-05 0.000149851 0.000226031 0.00030277 0.000379805 0.000456703 0.000532538 0.000604882 0.000667143 0.000705283 -0.000326135 -0.000318552 -0.000304112 -0.000283453 -0.00025719 -0.000225907 -0.00019014 -0.000150369 -0.000107016 -6.04669e-05 -1.10833e-05 -1.97176e-05 -2.59451e-05 -2.98403e-05 -3.1497e-05 -3.10166e-05 -2.85003e-05 -2.40431e-05 -1.77307e-05 -9.63835e-06 1.68397e-07 1.99003e-06 5.36353e-06 1.01913e-05 1.63841e-05 2.38637e-05 3.25662e-05 4.24451e-05 5.34749e-05 6.56532e-05 7.89969e-05 0.000159189 0.000240475 0.000322742 0.000405834 0.00048947 0.000573003 0.000654529 0.000727703 0.000775139 -0.000361752 -0.000353 -0.000336439 -0.000312931 -0.000283301 -0.000248301 -0.000208583 -0.00016469 -0.000117064 -6.60643e-05 -1.19982e-05 -2.12323e-05 -2.78201e-05 -3.18957e-05 -3.35947e-05 -3.30459e-05 -3.03657e-05 -2.56553e-05 -1.89981e-05 -1.04587e-05 -8.2017e-08 1.64471e-06 5.05369e-06 1.00338e-05 1.64923e-05 2.43554e-05 3.35698e-05 4.41039e-05 5.595e-05 6.91248e-05 8.36642e-05 0.00016874 0.000255239 0.000343169 0.000432501 0.000523118 0.000614657 0.000705856 0.00079131 0.000850649 -0.000401445 -0.000391189 -0.000371964 -0.000344989 -0.000311396 -0.000272162 -0.000228073 -0.00017973 -0.000127572 -7.19056e-05 -1.29442e-05 -2.27645e-05 -2.96781e-05 -3.38926e-05 -3.55945e-05 -3.4945e-05 -3.208e-05 -2.71092e-05 -2.01158e-05 -1.11543e-05 -2.47591e-07 1.45955e-06 4.96411e-06 1.01396e-05 1.6889e-05 2.51422e-05 3.48548e-05 4.60081e-05 5.86098e-05 7.26955e-05 8.83253e-05 0.000178269 0.000269976 0.000363593 0.000459252 0.000557021 0.000656816 0.000758027 0.000856863 0.000931357 -0.000445509 -0.000433227 -0.00041054 -0.000379256 -0.000340959 -0.000296911 -0.000248038 -0.000194981 -0.00013814 -7.77358e-05 -1.3841e-05 -2.41718e-05 -3.13368e-05 -3.56291e-05 -3.72899e-05 -3.65145e-05 -3.34587e-05 -2.82426e-05 -2.09515e-05 -1.16334e-05 -2.92168e-07 1.4878e-06 5.15042e-06 1.05563e-05 1.7607e-05 2.62375e-05 3.64124e-05 4.81244e-05 6.13949e-05 7.62766e-05 9.28553e-05 0.000187516 0.000284275 0.000383451 0.000485369 0.000590327 0.000698523 0.000809945 0.00092274 0.0010163 -0.000494189 -0.000479014 -0.000451664 -0.000414933 -0.000371044 -0.000321581 -0.000267584 -0.000209679 -0.000148182 -8.31816e-05 -1.45719e-05 -2.52627e-05 -3.25669e-05 -3.68639e-05 -3.8444e-05 -3.75312e-05 -3.42987e-05 -2.88774e-05 -2.13587e-05 -1.17914e-05 -1.70944e-07 1.79007e-06 5.67089e-06 1.13297e-05 1.8674e-05 2.76484e-05 3.82277e-05 5.04148e-05 6.42418e-05 7.97738e-05 9.71173e-05 0.000196184 0.000297663 0.000402071 0.000509963 0.000621922 0.00073846 0.000860166 0.000986675 0.00110375 -0.000547575 -0.000527978 -0.000494135 -0.000450485 -0.000400049 -0.000344677 -0.00028541 -0.000222761 -0.000156897 -8.77355e-05 -1.4974e-05 -2.57986e-05 -3.31083e-05 -3.73435e-05 -3.8823e-05 -3.77862e-05 -3.44171e-05 -2.88565e-05 -2.12075e-05 -1.15322e-05 1.60256e-07 2.41548e-06 6.5612e-06 1.24748e-05 2.00832e-05 2.93465e-05 4.02518e-05 5.28108e-05 6.70619e-05 8.30737e-05 0.000100961 0.000203945 0.000309607 0.000418681 0.000531976 0.000650423 0.000774866 0.000906781 0.00104568 0.00119077 -0.000605274 -0.000578402 -0.000535402 -0.000483191 -0.000425479 -0.000364085 -0.000299813 -0.000232916 -0.000163336 -9.08019e-05 -1.48536e-05 -2.55425e-05 -3.27424e-05 -3.68871e-05 -3.82856e-05 -3.7173e-05 -3.3735e-05 -2.81213e-05 -2.04522e-05 -1.08196e-05 7.19585e-07 3.35947e-06 7.78465e-06 1.39252e-05 2.17429e-05 3.12202e-05 4.23578e-05 5.51742e-05 6.97083e-05 8.60214e-05 0.000104215 0.000210435 0.000319519 0.000432429 0.000550222 0.00067423 0.000805561 0.000947227 0.00109611 0.00127247 -0.000665184 -0.00062573 -0.000570433 -0.000508682 -0.000443916 -0.000377274 -0.000308987 -0.000238901 -0.00016669 -9.19227e-05 -1.40902e-05 -2.44316e-05 -3.14879e-05 -3.558e-05 -3.69639e-05 -3.58533e-05 -3.24294e-05 -2.68489e-05 -1.92526e-05 -9.77485e-06 1.44436e-06 4.48632e-06 9.15123e-06 1.54554e-05 2.34064e-05 3.30112e-05 4.42827e-05 5.72439e-05 7.19302e-05 8.83862e-05 0.000106678 0.000215243 0.00032677 0.000442423 0.000563466 0.000691613 0.000828142 0.000978036 0.00113429 0.00134076 -0.000718028 -0.000658788 -0.000590803 -0.000521531 -0.000452148 -0.000382501 -0.000312129 -0.000240504 -0.000167096 -9.13972e-05 -1.29747e-05 -2.2992e-05 -2.99882e-05 -3.41091e-05 -3.55496e-05 -3.45026e-05 -3.11448e-05 -2.56386e-05 -1.81407e-05 -8.82193e-06 2.09241e-06 5.41566e-06 1.0216e-05 1.65957e-05 2.45994e-05 3.42513e-05 4.55721e-05 5.85865e-05 7.33255e-05 8.98191e-05 0.000108091 0.000217909 0.00033071 0.000447791 0.000570553 0.000700893 0.000840407 0.000994774 0.00115734 0.00138251 0 0 0 0 0 0 0 0 0 0 0 0 0 0 0 0 0 0 0 0 0 0 0 0 0 0 0 0 0 0 0 0 0 0 0 0 0 0 0 0 -5.1233e-06 -5.08522e-06 -5.01144e-06 -4.90457e-06 -4.76692e-06 -4.60052e-06 -4.4071e-06 -4.18817e-06 -3.94505e-06 -3.67882e-06 -3.39032e-06 -3.08021e-06 -2.74874e-06 -2.39596e-06 -2.02169e-06 -1.6255e-06 -1.2068e-06 -7.64931e-07 -2.99174e-07 1.9109e-07 7.06286e-07 1.24649e-06 1.81137e-06 2.39994e-06 3.01046e-06 3.64024e-06 4.28554e-06 4.94142e-06 5.60165e-06 6.25872e-06 6.9039e-06 7.52741e-06 8.11849e-06 8.66602e-06 9.15883e-06 9.58636e-06 9.93917e-06 