# vtk DataFile Version 2.0
Presion
ASCII

DATASET STRUCTURED_GRID
DIMENSIONS   40   40   20

POINTS   32000   double
0.0125   0.0125   0.025
0.0375   0.0125   0.025
0.0625   0.0125   0.025
0.0875   0.0125   0.025
0.1125   0.0125   0.025
0.1375   0.0125   0.025
0.1625   0.0125   0.025
0.1875   0.0125   0.025
0.2125   0.0125   0.025
0.2375   0.0125   0.025
0.2625   0.0125   0.025
0.2875   0.0125   0.025
0.3125   0.0125   0.025
0.3375   0.0125   0.025
0.3625   0.0125   0.025
0.3875   0.0125   0.025
0.4125   0.0125   0.025
0.4375   0.0125   0.025
0.4625   0.0125   0.025
0.4875   0.0125   0.025
0.5125   0.0125   0.025
0.5375   0.0125   0.025
0.5625   0.0125   0.025
0.5875   0.0125   0.025
0.6125   0.0125   0.025
0.6375   0.0125   0.025
0.6625   0.0125   0.025
0.6875   0.0125   0.025
0.7125   0.0125   0.025
0.7375   0.0125   0.025
0.7625   0.0125   0.025
0.7875   0.0125   0.025
0.8125   0.0125   0.025
0.8375   0.0125   0.025
0.8625   0.0125   0.025
0.8875   0.0125   0.025
0.9125   0.0125   0.025
0.9375   0.0125   0.025
0.9625   0.0125   0.025
0.9875   0.0125   0.025
0.0125   0.0375   0.025
0.0375   0.0375   0.025
0.0625   0.0375   0.025
0.0875   0.0375   0.025
0.1125   0.0375   0.025
0.1375   0.0375   0.025
0.1625   0.0375   0.025
0.1875   0.0375   0.025
0.2125   0.0375   0.025
0.2375   0.0375   0.025
0.2625   0.0375   0.025
0.2875   0.0375   0.025
0.3125   0.0375   0.025
0.3375   0.0375   0.025
0.3625   0.0375   0.025
0.3875   0.0375   0.025
0.4125   0.0375   0.025
0.4375   0.0375   0.025
0.4625   0.0375   0.025
0.4875   0.0375   0.025
0.5125   0.0375   0.025
0.5375   0.0375   0.025
0.5625   0.0375   0.025
0.5875   0.0375   0.025
0.6125   0.0375   0.025
0.6375   0.0375   0.025
0.6625   0.0375   0.025
0.6875   0.0375   0.025
0.7125   0.0375   0.025
0.7375   0.0375   0.025
0.7625   0.0375   0.025
0.7875   0.0375   0.025
0.8125   0.0375   0.025
0.8375   0.0375   0.025
0.8625   0.0375   0.025
0.8875   0.0375   0.025
0.9125   0.0375   0.025
0.9375   0.0375   0.025
0.9625   0.0375   0.025
0.9875   0.0375   0.025
0.0125   0.0625   0.025
0.0375   0.0625   0.025
0.0625   0.0625   0.025
0.0875   0.0625   0.025
0.1125   0.0625   0.025
0.1375   0.0625   0.025
0.1625   0.0625   0.025
0.1875   0.0625   0.025
0.2125   0.0625   0.025
0.2375   0.0625   0.025
0.2625   0.0625   0.025
0.2875   0.0625   0.025
0.3125   0.0625   0.025
0.3375   0.0625   0.025
0.3625   0.0625   0.025
0.3875   0.0625   0.025
0.4125   0.0625   0.025
0.4375   0.0625   0.025
0.4625   0.0625   0.025
0.4875   0.0625   0.025
0.5125   0.0625   0.025
0.5375   0.0625   0.025
0.5625   0.0625   0.025
0.5875   0.0625   0.025
0.6125   0.0625   0.025
0.6375   0.0625   0.025
0.6625   0.0625   0.025
0.6875   0.0625   0.025
0.7125   0.0625   0.025
0.7375   0.0625   0.025
0.7625   0.0625   0.025
0.7875   0.0625   0.025
0.8125   0.0625   0.025
0.8375   0.0625   0.025
0.8625   0.0625   0.025
0.8875   0.0625   0.025
0.9125   0.0625   0.025
0.9375   0.0625   0.025
0.9625   0.0625   0.025
0.9875   0.0625   0.025
0.0125   0.0875   0.025
0.0375   0.0875   0.025
0.0625   0.0875   0.025
0.0875   0.0875   0.025
0.1125   0.0875   0.025
0.1375   0.0875   0.025
0.1625   0.0875   0.025
0.1875   0.0875   0.025
0.2125   0.0875   0.025
0.2375   0.0875   0.025
0.2625   0.0875   0.025
0.2875   0.0875   0.025
0.3125   0.0875   0.025
0.3375   0.0875   0.025
0.3625   0.0875   0.025
0.3875   0.0875   0.025
0.4125   0.0875   0.025
0.4375   0.0875   0.025
0.4625   0.0875   0.025
0.4875   0.0875   0.025
0.5125   0.0875   0.025
0.5375   0.0875   0.025
0.5625   0.0875   0.025
0.5875   0.0875   0.025
0.6125   0.0875   0.025
0.6375   0.0875   0.025
0.6625   0.0875   0.025
0.6875   0.0875   0.025
0.7125   0.0875   0.025
0.7375   0.0875   0.025
0.7625   0.0875   0.025
0.7875   0.0875   0.025
0.8125   0.0875   0.025
0.8375   0.0875   0.025
0.8625   0.0875   0.025
0.8875   0.0875   0.025
0.9125   0.0875   0.025
0.9375   0.0875   0.025
0.9625   0.0875   0.025
0.9875   0.0875   0.025
0.0125   0.1125   0.025
0.0375   0.1125   0.025
0.0625   0.1125   0.025
0.0875   0.1125   0.025
0.1125   0.1125   0.025
0.1375   0.1125   0.025
0.1625   0.1125   0.025
0.1875   0.1125   0.025
0.2125   0.1125   0.025
0.2375   0.1125   0.025
0.2625   0.1125   0.025
0.2875   0.1125   0.025
0.3125   0.1125   0.025
0.3375   0.1125   0.025
0.3625   0.1125   0.025
0.3875   0.1125   0.025
0.4125   0.1125   0.025
0.4375   0.1125   0.025
0.4625   0.1125   0.025
0.4875   0.1125   0.025
0.5125   0.1125   0.025
0.5375   0.1125   0.025
0.5625   0.1125   0.025
0.5875   0.1125   0.025
0.6125   0.1125   0.025
0.6375   0.1125   0.025
0.6625   0.1125   0.025
0.6875   0.1125   0.025
0.7125   0.1125   0.025
0.7375   0.1125   0.025
0.7625   0.1125   0.025
0.7875   0.1125   0.025
0.8125   0.1125   0.025
0.8375   0.1125   0.025
0.8625   0.1125   0.025
0.8875   0.1125   0.025
0.9125   0.1125   0.025
0.9375   0.1125   0.025
0.9625   0.1125   0.025
0.9875   0.1125   0.025
0.0125   0.1375   0.025
0.0375   0.1375   0.025
0.0625   0.1375   0.025
0.0875   0.1375   0.025
0.1125   0.1375   0.025
0.1375   0.1375   0.025
0.1625   0.1375   0.025
0.1875   0.1375   0.025
0.2125   0.1375   0.025
0.2375   0.1375   0.025
0.2625   0.1375   0.025
0.2875   0.1375   0.025
0.3125   0.1375   0.025
0.3375   0.1375   0.025
0.3625   0.1375   0.025
0.3875   0.1375   0.025
0.4125   0.1375   0.025
0.4375   0.1375   0.025
0.4625   0.1375   0.025
0.4875   0.1375   0.025
0.5125   0.1375   0.025
0.5375   0.1375   0.025
0.5625   0.1375   0.025
0.5875   0.1375   0.025
0.6125   0.1375   0.025
0.6375   0.1375   0.025
0.6625   0.1375   0.025
0.6875   0.1375   0.025
0.7125   0.1375   0.025
0.7375   0.1375   0.025
0.7625   0.1375   0.025
0.7875   0.1375   0.025
0.8125   0.1375   0.025
0.8375   0.1375   0.025
0.8625   0.1375   0.025
0.8875   0.1375   0.025
0.9125   0.1375   0.025
0.9375   0.1375   0.025
0.9625   0.1375   0.025
0.9875   0.1375   0.025
0.0125   0.1625   0.025
0.0375   0.1625   0.025
0.0625   0.1625   0.025
0.0875   0.1625   0.025
0.1125   0.1625   0.025
0.1375   0.1625   0.025
0.1625   0.1625   0.025
0.1875   0.1625   0.025
0.2125   0.1625   0.025
0.2375   0.1625   0.025
0.2625   0.1625   0.025
0.2875   0.1625   0.025
0.3125   0.1625   0.025
0.3375   0.1625   0.025
0.3625   0.1625   0.025
0.3875   0.1625   0.025
0.4125   0.1625   0.025
0.4375   0.1625   0.025
0.4625   0.1625   0.025
0.4875   0.1625   0.025
0.5125   0.1625   0.025
0.5375   0.1625   0.025
0.5625   0.1625   0.025
0.5875   0.1625   0.025
0.6125   0.1625   0.025
0.6375   0.1625   0.025
0.6625   0.1625   0.025
0.6875   0.1625   0.025
0.7125   0.1625   0.025
0.7375   0.1625   0.025
0.7625   0.1625   0.025
0.7875   0.1625   0.025
0.8125   0.1625   0.025
0.8375   0.1625   0.025
0.8625   0.1625   0.025
0.8875   0.1625   0.025
0.9125   0.1625   0.025
0.9375   0.1625   0.025
0.9625   0.1625   0.025
0.9875   0.1625   0.025
0.0125   0.1875   0.025
0.0375   0.1875   0.025
0.0625   0.1875   0.025
0.0875   0.1875   0.025
0.1125   0.1875   0.025
0.1375   0.1875   0.025
0.1625   0.1875   0.025
0.1875   0.1875   0.025
0.2125   0.1875   0.025
0.2375   0.1875   0.025
0.2625   0.1875   0.025
0.2875   0.1875   0.025
0.3125   0.1875   0.025
0.3375   0.1875   0.025
0.3625   0.1875   0.025
0.3875   0.1875   0.025
0.4125   0.1875   0.025
0.4375   0.1875   0.025
0.4625   0.1875   0.025
0.4875   0.1875   0.025
0.5125   0.1875   0.025
0.5375   0.1875   0.025
0.5625   0.1875   0.025
0.5875   0.1875   0.025
0.6125   0.1875   0.025
0.6375   0.1875   0.025
0.6625   0.1875   0.025
0.6875   0.1875   0.025
0.7125   0.1875   0.025
0.7375   0.1875   0.025
0.7625   0.1875   0.025
0.7875   0.1875   0.025
0.8125   0.1875   0.025
0.8375   0.1875   0.025
0.8625   0.1875   0.025
0.8875   0.1875   0.025
0.9125   0.1875   0.025
0.9375   0.1875   0.025
0.9625   0.1875   0.025
0.9875   0.1875   0.025
0.0125   0.2125   0.025
0.0375   0.2125   0.025
0.0625   0.2125   0.025
0.0875   0.2125   0.025
0.1125   0.2125   0.025
0.1375   0.2125   0.025
0.1625   0.2125   0.025
0.1875   0.2125   0.025
0.2125   0.2125   0.025
0.2375   0.2125   0.025
0.2625   0.2125   0.025
0.2875   0.2125   0.025
0.3125   0.2125   0.025
0.3375   0.2125   0.025
0.3625   0.2125   0.025
0.3875   0.2125   0.025
0.4125   0.2125   0.025
0.4375   0.2125   0.025
0.4625   0.2125   0.025
0.4875   0.2125   0.025
0.5125   0.2125   0.025
0.5375   0.2125   0.025
0.5625   0.2125   0.025
0.5875   0.2125   0.025
0.6125   0.2125   0.025
0.6375   0.2125   0.025
0.6625   0.2125   0.025
0.6875   0.2125   0.025
0.7125   0.2125   0.025
0.7375   0.2125   0.025
0.7625   0.2125   0.025
0.7875   0.2125   0.025
0.8125   0.2125   0.025
0.8375   0.2125   0.025
0.8625   0.2125   0.025
0.8875   0.2125   0.025
0.9125   0.2125   0.025
0.9375   0.2125   0.025
0.9625   0.2125   0.025
0.9875   0.2125   0.025
0.0125   0.2375   0.025
0.0375   0.2375   0.025
0.0625   0.2375   0.025
0.0875   0.2375   0.025
0.1125   0.2375   0.025
0.1375   0.2375   0.025
0.1625   0.2375   0.025
0.1875   0.2375   0.025
0.2125   0.2375   0.025
0.2375   0.2375   0.025
0.2625   0.2375   0.025
0.2875   0.2375   0.025
0.3125   0.2375   0.025
0.3375   0.2375   0.025
0.3625   0.2375   0.025
0.3875   0.2375   0.025
0.4125   0.2375   0.025
0.4375   0.2375   0.025
0.4625   0.2375   0.025
0.4875   0.2375   0.025
0.5125   0.2375   0.025
0.5375   0.2375   0.025
0.5625   0.2375   0.025
0.5875   0.2375   0.025
0.6125   0.2375   0.025
0.6375   0.2375   0.025
0.6625   0.2375   0.025
0.6875   0.2375   0.025
0.7125   0.2375   0.025
0.7375   0.2375   0.025
0.7625   0.2375   0.025
0.7875   0.2375   0.025
0.8125   0.2375   0.025
0.8375   0.2375   0.025
0.8625   0.2375   0.025
0.8875   0.2375   0.025
0.9125   0.2375   0.025
0.9375   0.2375   0.025
0.9625   0.2375   0.025
0.9875   0.2375   0.025
0.0125   0.2625   0.025
0.0375   0.2625   0.025
0.0625   0.2625   0.025
0.0875   0.2625   0.025
0.1125   0.2625   0.025
0.1375   0.2625   0.025
0.1625   0.2625   0.025
0.1875   0.2625   0.025
0.2125   0.2625   0.025
0.2375   0.2625   0.025
0.2625   0.2625   0.025
[...]
POINT_DATA   32000
SCALARS Presion double
LOOKUP_TABLE   Presion

0 0 0 0 0 0 0 0 0 0 0 0 0 0 0 0 0 0 0 0 0 0 0 0 0 0 0 0 0 0 0 0 0 0 0 0 0 0 0 0 -3.7819e-06 -3.75038e-06 -3.68995e-06 -3.60235e-06 -3.48906e-06 -3.35145e-06 -3.19091e-06 -3.00876e-06 -2.80629e-06 -2.5847e-06 -2.34501e-06 -2.08922e-06 -1.81688e-06 -1.52845e-06 -1.22421e-06 -9.04257e-07 -5.68544e-07 -2.16941e-07 1.50701e-07 5.34476e-07 9.34332e-07 1.34977e-06 1.78041e-06 2.22521e-06 2.68257e-06 3.15028e-06 3.62544e-06 4.10437e-06 4.58259e-06 5.05487e-06 5.51524e-06 5.95862e-06 6.37658e-06 6.76196e-06 7.10767e-06 7.407e-06 7.65393e-06 7.84351e-06 7.97209e-06 8.03768e-06 -7.58352e-06 -7.52045e-06 -7.39925e-06 -7.22342e-06 -6.99596e-06 -6.71971e-06 -6.3975e-06 -6.03207e-06 -5.62608e-06 -5.18194e-06 -4.70179e-06 -4.18962e-06 -3.64456e-06 -3.06754e-06 -2.45911e-06 -1.81942e-06 -1.14833e-06 -4.45521e-07 2.89371e-07 1.05661e-06 1.85618e-06 2.68718e-06 3.54893e-06 4.43943e-06 5.3556e-06 6.29308e-06 7.24612e-06 8.20739e-06 9.16796e-06 1.01173e-05 1.10434e-05 1.19359e-05 1.27779e-05 1.35548e-05 1.42521e-05 1.48562e-05 1.53548e-05 1.57377e-05 1.59975e-05 1.61302e-05 -1.1429e-05 -1.13337e-05 -1.11505e-05 -1.08847e-05 -1.0541e-05 -1.01238e-05 -9.63741e-06 -9.08626e-06 -8.47443e-06 -7.80571e-06 -7.08342e-06 -6.31358e-06 -5.49496e-06 -4.62898e-06 -3.71638e-06 -2.75731e-06 -1.75145e-06 -6.98172e-07 4.0325e-07 1.55341e-06 2.75251e-06 3.99939e-06 5.29331e-06 6.63148e-06 8.0095e-06 9.42106e-06 1.08576e-05 1.23084e-05 1.37598e-05 1.51961e-05 1.6599e-05 1.79526e-05 1.9231e-05 2.04118e-05 2.14727e-05 2.23926e-05 2.31523e-05 2.37361e-05 2.41324e-05 2.43346e-05 -1.53418e-05 -1.52132e-05 -1.49659e-05 -1.46074e-05 -1.4144e-05 -1.3582e-05 -1.29275e-05 -1.21868e-05 -1.13655e-05 -1.04689e-05 -9.50187e-06 -8.47237e-06 -7.37892e-06 -6.2234e-06 -5.00671e-06 -3.7289e-06 -2.3893e-06 -9.86796e-07 4.79916e-07 2.01201e-06 3.61014e-06 5.27322e-06 7.00069e-06 8.78929e-06 1.06336e-05 1.25255e-05 1.44541e-05 1.64049e-05 1.836e-05 2.02982e-05 2.21948e-05 2.40277e-05 2.57616e-05 2.73655e-05 2.88086e-05 3.00612e-05 3.10967e-05 3.18928e-05 3.24334e-05 3.27092e-05 -1.93451e-05 -1.91815e-05 -1.88672e-05 -1.84118e-05 -1.78239e-05 -1.71117e-05 -1.62836e-05 -1.53477e-05 -1.43118e-05 -1.3183e-05 -1.19675e-05 -1.06756e-05 -9.3056e-06 -7.85988e-06 -6.33938e-06 -4.7439e-06 -3.07223e-06 -1.3225e-06 5.07461e-07 2.41973e-06 4.4158e-06 6.49499e-06 8.65735e-06 1.08996e-05 1.32155e-05 1.55959e-05 1.80272e-05 2.0492e-05 2.2968e-05 2.54282e-05 2.78411e-05 3.01781e-05 3.23936e-05 3.44471e-05 3.62978e-05 3.79066e-05 3.92381e-05 4.02627e-05 4.09585e-05 4.13133e-05 -2.34618e-05 -2.3261e-05 -2.28756e-05 -2.23179e-05 -2.15989e-05 -2.07293e-05 -1.972e-05 -1.85816e-05 -1.73242e-05 -1.59571e-05 -1.44883e-05 -1.29305e-05 -1.12819e-05 -9.54534e-06 -7.72169e-06 -5.81029e-06 -3.80914e-06 -1.71529e-06 4.74704e-07 2.76422e-06 5.15605e-06 7.6504e-06 1.02485e-05 1.29474e-05 1.57409e-05 1.86188e-05 2.15659e-05 2.45616e-05 2.75795e-05 3.05869e-05 3.3545e-05 3.64177e-05 3.91484e-05 4.16857e-05 4.39775e-05 4.59734e-05 4.76277e-05 4.89018e-05 4.97673e-05 5.02082e-05 -2.77144e-05 -2.74735e-05 -2.70118e-05 -2.63447e-05 -2.5486e-05 -2.44496e-05 -2.32493e-05 -2.18987e-05 -2.04109e-05 -1.87978e-05 -1.70696e-05 -1.52415e-05 -1.33119e-05 -1.12839e-05 -9.15835e-06 -6.93379e-06 -4.60704e-06 -2.17367e-06 3.71475e-07 3.03362e-06 5.8174e-06 8.7245e-06 1.17579e-05 1.49158e-05 1.81926e-05 2.15778e-05 2.50551e-05 2.86013e-05 3.21859e-05 3.57706e-05 3.93089e-05 4.27564e-05 4.60443e-05 4.91085e-05 5.18836e-05 5.43059e-05 5.6317e-05 5.78678e-05 5.89216e-05 5.94581e-05 -3.21255e-05 -3.18409e-05 -3.12963e-05 -3.05106e-05 -2.95013e-05 -2.82858e-05 -2.68818e-05 -2.53066e-05 -2.35769e-05 -2.1708e-05 -1.97127e-05 -1.7609e-05 -1.53957e-05 -1.30762e-05 -1.06508e-05 -8.11721e-06 -5.47051e-06 -2.70426e-06 1.88961e-07 3.21682e-06 6.38644e-06 9.70168e-06 1.31681e-05 1.67858e-05 2.05505e-05 2.44525e-05 2.8475e-05 3.25931e-05 3.67727e-05 4.09696e-05 4.51297e-05 4.91991e-05 5.3095e-05 5.67391e-05 6.005e-05 6.29478e-05 6.53588e-05 6.72205e-05 6.84863e-05 6.91301e-05 -3.67183e-05 -3.63853e-05 -3.57493e-05 -3.48335e-05 -3.36596e-05 -3.22494e-05 -3.06253e-05 -2.88097e-05 -2.68236e-05 -2.46865e-05 -2.24145e-05 -2.00289e-05 -1.75288e-05 -1.49182e-05 -1.21965e-05 -9.35982e-06 -6.40109e-06 -3.31123e-06 -7.98743e-08 3.30378e-06 6.85005e-06 1.05658e-05 1.446e-05 1.85356e-05 2.27909e-05 2.72179e-05 3.18005e-05 3.65129e-05 4.13183e-05 4.61673e-05 5.09971e-05 5.57438e-05 6.03092e-05 6.45975e-05 6.85085e-05 7.19426e-05 7.4807e-05 7.70225e-05 7.85299e-05 7.92958e-05 -4.15164e-05 -4.11294e-05 -4.03915e-05 -3.93308e-05 -3.79744e-05 -3.63496e-05 -3.44849e-05 -3.24084e-05 -3.01474e-05 -2.77265e-05 -2.5166e-05 -2.24909e-05 -1.97011e-05 -1.68006e-05 -1.37879e-05 -1.06565e-05 -7.39662e-06 -3.99575e-06 -4.39792e-07 3.28595e-06 7.19581e-06 1.13005e-05 1.56132e-05 2.01412e-05 2.48864e-05 2.98439e-05 3.49997e-05 4.03289e-05 4.57929e-05 5.13375e-05 5.6892e-05 6.23806e-05 6.76879e-05 7.26981e-05 7.72877e-05 8.13328e-05 8.47168e-05 8.73395e-05 8.91255e-05 9.00321e-05 -4.65454e-05 -4.60973e-05 -4.52441e-05 -4.402e-05 -4.24585e-05 -4.05938e-05 -3.84618e-05 -3.60986e-05 -3.35391e-05 -3.08145e-05 -2.79509e-05 -2.49774e-05 -2.1895e-05 -1.87075e-05 -1.54112e-05 -1.19969e-05 -8.45054e-06 -4.75537e-06 -8.92716e-07 3.15682e-06 7.41237e-06 1.18894e-05 1.66065e-05 2.15761e-05 2.68054e-05 3.22945e-05 3.80337e-05 4.40003e-05 5.0156e-05 5.64434e-05 6.27837e-05 6.90888e-05 7.52237e-05 8.10486e-05 8.6412e-05 9.11597e-05 9.51453e-05 9.82415e-05 0.000100352 0.000101423 -5.18334e-05 -5.13153e-05 -5.03301e-05 -4.89193e-05 -4.71239e-05 -4.49869e-05 -4.25537e-05 -3.98705e-05 -3.69821e-05 -3.39289e-05 -3.0744e-05 -2.74617e-05 -2.40843e-05 -2.06147e-05 -1.7046e-05 -1.33646e-05 -9.55114e-06 -5.58339e-06 -1.43714e-06 2.91248e-06 7.49016e-06 1.23168e-05 1.74176e-05 2.28115e-05 2.85126e-05 3.4528e-05 4.08548e-05 4.74756e-05 5.43549e-05 6.14342e-05 6.86279e-05 7.58345e-05 8.28974e-05 8.96481e-05 9.59007e-05 0.000101463 0.000106151 0.000109804 0.000112297 0.00011356 -5.74123e-05 -5.68132e-05 -5.56752e-05 -5.40483e-05 -5.19826e-05 -4.9532e-05 -4.67539e-05 -4.37076e-05 -4.04512e-05 -3.70372e-05 -3.35085e-05 -2.99054e-05 -2.62319e-05 -2.24883e-05 -1.86633e-05 -1.47362e-05 -1.0681e-05 -6.46829e-06 -2.06752e-06 2.55236e-06 7.42211e-06 1.25689e-05 1.80249e-05 2.38172e-05 2.99688e-05 3.64963e-05 4.34065e-05 5.06913e-05 5.8322e-05 6.62425e-05 7.43625e-05 8.25673e-05 9.06756e-05 9.84847e-05 0.000105766 0.000112281 0.000117797 0.000122107 0.000125054 0.000126547 -6.33195e-05 -6.2626e-05 -6.13094e-05 -5.94295e-05 -5.70476e-05 -5.42305e-05 -5.1051e-05 -4.75856e-05 -4.39102e-05 -4.00939e-05 -3.6193e-05 -3.22557e-05 -2.82871e-05 -2.42833e-05 -2.02245e-05 -1.60808e-05 -1.18163e-05 -7.39336e-06 -2.77378e-06 2.07989e-06 7.20462e-06 1.2634e-05 1.84081e-05 2.45628e-05 3.11321e-05 3.81451e-05 4.56223e-05 5.35698e-05 6.19716e-05 7.07797e-05 7.99035e-05 8.92154e-05 9.85067e-05 0.000107533 0.000116014 0.000123649 0.000130146 0.000135242 0.000138733 0.0001405 -6.96005e-05 -6.8796e-05 -6.72688e-05 -6.50902e-05 -6.2334e-05 -5.9083e-05 -5.5429e-05 -5.14709e-05 -4.73088e-05 -4.30356e-05 -3.87265e-05 -3.44407e-05 -3.0183e-05 -2.59408e-05 -2.16812e-05 -1.73596e-05 -1.29275e-05 -8.33665e-06 -3.54093e-06 1.50337e-06 6.8388e-06 1.25049e-05 1.85498e-05 2.50191e-05 3.19594e-05 3.94152e-05 4.74256e-05 5.60176e-05 6.51963e-05 7.49309e-05 8.51379e-05 9.56797e-05 0.000106316 0.000116751 0.000126638 0.000135601 0.000143269 0.000149308 0.000153454 0.000155552 -7.63108e-05 -7.53752e-05 -7.35988e-05 -7.10649e-05 -6.7862e-05 -6.40911e-05 -5.98677e-05 -5.53192e-05 -5.05793e-05 -4.57754e-05 -4.1012e-05 -3.63634e-05 -3.18315e-05 -2.73868e-05 -2.29739e-05 -1.85267e-05 -1.39794e-05 -9.27147e-06 -4.34897e-06 8.36719e-07 6.33193e-06 1.21808e-05 1.84384e-05 2.51609e-05 3.24085e-05 4.02442e-05 4.87305e-05 5.79236e-05 6.78618e-05 7.85464e-05 8.99149e-05 0.000101825 0.000114 0.000126077 0.000137623 0.000148168 0.000157243 0.000164419 0.000169358 0.000171857 -8.35191e-05 -8.24287e-05 -8.03566e-05 -7.73989e-05 -7.36597e-05 -6.92605e-05 -6.43439e-05 -5.90743e-05 -5.36312e-05 -4.8194e-05 -4.29148e-05 -3.78926e-05 -3.31188e-05 -2.85304e-05 -2.40339e-05 -1.95311e-05 -1.49337e-05 -1.01679e-05 -5.17325e-06 1.00424e-07 5.69946e-06 1.16695e-05 1.80713e-05 2.49709e-05 3.24429e-05 4.05704e-05 4.94437e-05 5.91576e-05 6.98004e-05 8.14299e-05 9.40302e-05 0.000107469 0.00012142 0.000135427 0.000148946 0.000161384 0.000172152 0.000180705 0.000186608 0.000189596 -9.13107e-05 -9.00379e-05 -8.76155e-05 -8.41527e-05 -7.97688e-05 -7.46058e-05 -6.88366e-05 -6.26692e-05 -5.63452e-05 -5.01248e-05 -4.42437e-05 -3.88485e-05 -3.3899e-05 -2.92644e-05 -2.47865e-05 -2.03213e-05 -1.57531e-05 -1.09952e-05 -5.98529e-06 -6.77368e-07 4.96774e-06 1.09915e-05 1.74584e-05 2.44443e-05 3.20375e-05 4.03398e-05 4.94711e-05 5.95729e-05 7.08043e-05 8.33191e-05 9.72006e-05 0.000112359 0.00012839 0.000144696 0.000160576 0.000175289 0.000188098 0.00019832 0.000205395 0.000208979 -9.97903e-05 -9.8304e-05 -9.54694e-05 -9.14077e-05 -8.62513e-05 -8.01601e-05 -7.33351e-05 -6.60311e-05 -5.85685e-05 -5.13309e-05 -4.47142e-05 -3.89789e-05 -3.39889e-05 -2.94709e-05 -2.5161e-05 -2.08545e-05 -1.64077e-05 -1.17267e-05 -6.75428e-06 -1.45909e-06 4.17837e-06 1.01842e-05 1.66276e-05 2.35954e-05 3.11869e-05 3.95175e-05 4.87304e-05 5.90141e-05 7.06192e-05 8.38546e-05 9.90126e-05 0.000116145 0.000134677 0.000153763 0.000172489 0.000189937 0.000205204 0.000217443 0.000225943 0.000230253 -0.000109085 -0.000107351 -0.000104036 -9.92721e-05 -9.31992e-05 -8.59882e-05 -7.78578e-05 -6.90998e-05 -6.01169e-05 -5.14681e-05 -4.38676e-05 -3.79228e-05 -3.31707e-05 -2.90392e-05 -2.51082e-05 -2.11103e-05 -1.68859e-05 -1.23457e-05 -7.44961e-06 -2.19478e-06 3.39657e-06 9.30807e-06 1.56283e-05 2.24627e-05 2.99169e-05 3.81058e-05 4.71766e-05 5.73447e-05 6.89507e-05 8.25291e-05 9.88086e-05 0.000118326 0.000140002 0.000162523 0.000184693 0.000205415 0.000223622 0.000238286 0.000248511 0.000253703 -0.000119345 -0.000117328 -0.000113462 -0.000107887 -0.000100744 -9.22049e-05 -8.2483e-05 -7.18713e-05 -6.08103e-05 -5.00376e-05 -4.08578e-05 -3.51631e-05 -3.12281e-05 -2.79107e-05 -2.46332e-05 -2.11115e-05 -1.72061e-05 -1.28545e-05 -8.04584e-06 -2.81769e-06 2.7315e-06 8.45254e-06 1.45314e-05 2.11112e-05 2.82934e-05 3.61681e-05 4.48467e-05 5.45119e-05 6.55203e-05 7.86248e-05 9.53796e-05 0.00011819 0.000144098 0.000170945 0.000197269 0.000221865 0.000243545 0.000261097 0.000273397 0.000279656 -0.000130745 -0.000128409 -0.000123921 -0.000117426 -0.000109065 -9.8994e-05 -8.73936e-05 -7.44908e-05 -6.06149e-05 -4.64138e-05 -3.37733e-05 -3.00544e-05 -2.80878e-05 -2.6172e-05 -2.38411e-05 -2.09442e-05 -1.7429e-05 -1.32857e-05 -8.53576e-06 -3.24508e-06 2.39859e-06 7.73519e-06 1.34169e-05 1.96258e-05 2.64273e-05 3.38518e-05 4.19225e-05 5.06829e-05 6.02774e-05 7.12646e-05 8.59774e-05 0.000114862 0.000146925 0.000179215 0.000210435 0.000239503 0.000265206 0.000286151 0.000300929 0.000308479 -0.000143482 -0.000140791 -0.000135612 -0.000128097 -0.000118385 -0.000106612 -9.29132e-05 -7.73929e-05 -6.0054e-05 -4.05365e-05 -1.70829e-05 -2.25161e-05 -2.42318e-05 -2.41955e-05 -2.29732e-05 -2.07641e-05 -1.76591e-05 -1.3713e-05 -8.96569e-06 -3.43498e-06 2.95021e-06 7.24143e-06 1.23316e-05 1.809e-05 2.44624e-05 3.13907e-05 3.8779e-05 4.64469e-05 5.40069e-05 6.04539e-05 6.25632e-05 0.000108354 0.000149275 0.000187939 0.000224594 0.000258622 0.000288868 0.00031374 0.000331459 0.000340566 -0.000157772 -0.00015469 -0.000148753 -0.000140124 -0.000128947 -0.000115355 -9.94597e-05 -8.13221e-05 -6.08792e-05 -3.7798e-05 -1.12463e-05 -1.79192e-05 -2.13683e-05 -2.26601e-05 -2.23605e-05 -2.07612e-05 -1.80235e-05 -1.42465e-05 -9.49558e-06 -3.80775e-06 2.81752e-06 6.59632e-06 1.1214e-05 1.65625e-05 2.2547e-05 2.90534e-05 3.5911e-05 4.28336e-05 4.93043e-05 5.43437e-05 5.61554e-05 0.00010682 0.000153752 0.000198157 0.00024026 0.000279535 0.00031478 0.000344143 0.000365338 0.00037633 -0.000173847 -0.000170337 -0.000163572 -0.000153737 -0.000140991 -0.000125482 -0.000107339 -8.66507e-05 -6.34365e-05 -3.76182e-05 -9.07364e-06 -1.56602e-05 -1.97964e-05 -2.18678e-05 -2.22155e-05 -2.10798e-05 -1.86247e-05 -1.49654e-05 -1.01872e-05 -4.3565e-06 2.46836e-06 5.84727e-06 1.00886e-05 1.51084e-05 2.08028e-05 2.70377e-05 3.36241e-05 4.02815e-05 4.6587e-05 5.19295e-05 5.55862e-05 0.000109262 0.000160781 0.000210312 0.000257746 0.000302456 0.000343127 0.000377585 0.000402897 0.000416188 -0.000191951 -0.00018797 -0.000180299 -0.000169154 -0.000154724 -0.00013719 -0.000116721 -9.34687e-05 -6.75623e-05 -3.91249e-05 -8.35228e-06 -1.48424e-05 -1.93036e-05 -2.18348e-05 -2.26087e-05 -2.17909e-05 -1.95202e-05 -1.59097e-05 -1.1054e-05 -5.03815e-06 2.05147e-06 5.06718e-06 9.00332e-06 1.37836e-05 1.93059e-05 2.54387e-05 3.20096e-05 3.87915e-05 4.54939e-05 5.17863e-05 5.74087e-05 0.000114253 0.00017 0.000224406 0.000277135 0.00032747 0.000373995 0.000414215 0.000444414 0.000460541 -0.000212339 -0.000207834 -0.000199164 -0.000186584 -0.000170327 -0.00015062 -0.000127689 -0.000101753 -7.3035e-05 -4.17814e-05 -8.31432e-06 -1.4905e-05 -1.96194e-05 -2.24628e-05 -2.35204e-05 -2.29038e-05 -2.07251e-05 -1.70885e-05 -1.20899e-05 -5.82113e-06 1.62166e-06 4.30441e-06 7.99693e-06 1.26239e-05 1.80885e-05 2.42721e-05 3.10314e-05 3.81976e-05 4.55849e-05 5.30212e-05 6.04165e-05 0.000120899 0.000180964 0.000240259 0.000298366 0.000354549 0.000407369 0.000454081 0.000490099 0.000509767 -0.000235275 -0.000230181 -0.000220393 -0.00020622 -0.000187951 -0.000165876 -0.000140281 -0.000111453 -7.96862e-05 -4.5297e-05 -8.65681e-06 -1.55351e-05 -2.05298e-05 -2.36301e-05 -2.48878e-05 -2.43866e-05 -2.22212e-05 -1.8487e-05 -1.32767e-05 -6.682e-06 1.20234e-06 3.58697e-06 7.09381e-06 1.16461e-05 1.71527e-05 2.351e-05 3.06032e-05 3.83112e-05 4.65174e-05 5.51315e-05 6.4121e-05 0.000128683 0.000193304 0.000257645 0.000321298 0.000383584 0.000443141 0.000497118 0.000540065 0.000564203 -0.000261036 -0.000255267 -0.000244205 -0.000228234 -0.00020772 -0.000183025 -0.000154507 -0.000122515 -8.73981e-05 -4.95118e-05 -9.24311e-06 -1.6555e-05 -2.18793e-05 -2.52208e-05 -2.66293e-05 -2.61815e-05 -2.3965e-05 -2.00703e-05 -1.45858e-05 -7.59808e-06 8.05645e-07 2.93195e-06 6.30884e-06 1.0856e-05 1.64865e-05 2.31094e-05 3.06335e-05 3.89722e-05 4.80527e-05 5.78276e-05 6.82853e-05 0.00013729 0.000206732 0.000276332 0.000345746 0.000414405 0.000481123 0.000543139 0.000594294 0.000624123 -0.000289909 -0.000283349 -0.00027081 -0.000252777 -0.00022972 -0.000202095 -0.000170342 -0.000134872 -9.60735e-05 -5.43227e-05 -1.00008e-05 -1.78526e-05 -2.35487e-05 -2.7126e-05 -2.86515e-05 -2.82096e-05 -2.58908e-05 -2.17844e-05 -1.5975e-05 -8.54166e-06 4.40887e-07 2.35366e-06 5.65494e-06 1.0258e-05 1.6077e-05 2.30306e-05 3.1045e-05 4.00584e-05 5.00266e-05 6.09283e-05 7.27649e-05 0.00014649 0.000220991 0.00029607 0.000371475 0.000446777 0.00052104 0.000591822 0.000652597 0.000689715 -0.00032219 -0.000314682 -0.00030039 -0.00027995 -0.000253975 -0.000223048 -0.000187703 -0.000148414 -0.000105601 -5.96385e-05 -1.08812e-05 -1.93413e-05 -2.54317e-05 -2.9234e-05 -3.08459e-05 -3.03706e-05 -2.79088e-05 -2.35532e-05 -1.73853e-05 -9.47499e-06 1.19449e-07 1.87021e-06 5.15028e-06 9.86274e-06 1.592e-05 2.32468e-05 3.1782e-05 4.14822e-05 5.2324e-05 6.43067e-05 7.74465e-05 0.000156081 0.00023582 0.000316566 0.000398177 0.00048038 0.000562526 0.000642697 0.000714557 0.000761029 -0.000358187 -0.000349505 -0.00033308 -0.000309775 -0.000280412 -0.00024574 -0.000206408 -0.000162955 -0.000115817 -6.53457e-05 -1.18393e-05 -2.09358e-05 -2.7415e-05 -3.14168e-05 -3.30805e-05 -3.25367e-05 -2.99017e-05 -2.52749e-05 -1.87363e-05 -1.03456e-05 -1.41532e-07 1.50885e-06 4.82406e-06 9.6934e-06 1.60252e-05 2.37478e-05 3.28101e-05 4.31829e-05 5.48606e-05 6.78614e-05 8.22222e-05 0.000165854 0.000250925 0.000337458 0.000425441 0.000514768 0.000605085 0.00069512 0.000779449 0.000837904 -0.000398209 -0.000388017 -0.000368919 -0.000342132 -0.000308786 -0.000269854 -0.000226121 -0.00017818 -0.000126466 -7.12778e-05 -1.28198e-05 -2.25319e-05 -2.93599e-05 -3.35163e-05 -3.5191e-05 -3.45469e-05 -3.17199e-05 -2.68183e-05 -1.99224e-05 -1.10825e-05 -3.16236e-07 1.30959e-06 4.71958e-06 9.78743e-06 1.6417e-05 2.45396e-05 3.41129e-05 4.512e-05 5.7571e-05 7.1503e-05 8.69781e-05 0.000175578 0.00026596 0.00035829 0.000452714 0.000549319 0.000648032 0.000748247 0.000846145 0.000919856 -0.00044255 -0.000430328 -0.00040776 -0.000376651 -0.000338584 -0.000294815 -0.000246271 -0.000193584 -0.000137151 -7.71819e-05 -1.37439e-05 -2.39898e-05 -3.10875e-05 -3.53345e-05 -3.69749e-05 -3.62054e-05 -3.3182e-05 -2.80237e-05 -2.08133e-05 -1.15951e-05 -3.68551e-07 1.32573e-06 4.89275e-06 1.01932e-05 1.71293e-05 2.56374e-05 3.56836e-05 4.72625e-05 6.03977e-05 7.51442e-05 9.15899e-05 0.000184992 0.000280517 0.0003785 0.000479284 0.000583184 0.000690415 0.000800978 0.000913005 0.0010059 -0.000491459 -0.00047634 -0.000449101 -0.000412534 -0.000368859 -0.000319659 -0.000265968 -0.000208406 -0.000147286 -8.26867e-05 -1.4496e-05 -2.51201e-05 -3.23715e-05 -3.66333e-05 -3.81983e-05 -3.7292e-05 -3.40877e-05 -2.87153e-05 -2.12642e-05 -1.17798e-05 -2.53709e-07 1.61789e-06 5.40208e-06 1.0957e-05 1.81909e-05 2.70493e-05 3.75087e-05 4.95737e-05 6.32788e-05 7.86914e-05 9.59208e-05 0.000193802 0.000294122 0.000397417 0.000504258 0.000615248 0.000730917 0.000851872 0.000977754 0.00109428 -0.000545026 -0.000525482 -0.000491744 -0.000448249 -0.000398016 -0.000342891 -0.000283912 -0.000221585 -0.000156074 -8.72863e-05 -1.4914e-05 -2.56857e-05 -3.29536e-05 -3.71614e-05 -3.86301e-05 -3.76003e-05 -3.42563e-05 -2.87379e-05 -2.11464e-05 -1.15412e-05 7.24157e-08 2.2352e-06 6.28335e-06 1.20943e-05 1.95953e-05 2.87478e-05 3.95401e-05 5.1986e-05 6.61259e-05 8.20314e-05 9.98197e-05 0.000201677 0.000306241 0.000414267 0.000526579 0.000644129 0.000767779 0.000899023 0.0010374 0.00118204 -0.00060286 -0.000576039 -0.000533139 -0.000481076 -0.000423558 -0.0003624 -0.000298402 -0.000231812 -0.000162566 -9.03861e-05 -1.48051e-05 -2.5451e-05 -3.2617e-05 -3.674e-05 -3.81307e-05 -3.70255e-05 -3.36104e-05 -2.80342e-05 -2.04155e-05 -1.08436e-05 6.27916e-07 3.17306e-06 7.49991e-06 1.35385e-05 2.12512e-05 3.06215e-05 4.16513e-05 5.43612e-05 6.87926e-05 8.50094e-05 0.000103116 0.000208253 0.000316286 0.000428196 0.000545058 0.000668223 0.00079882 0.000939875 0.00108832 0.00126431 -0.00066286 -0.000623455 -0.000568255 -0.000506648 -0.000442069 -0.000375656 -0.000307633 -0.000237844 -0.000165955 -9.15289e-05 -1.40492e-05 -2.4354e-05 -3.13817e-05 -3.54556e-05 -3.68338e-05 -3.5731e-05 -3.23285e-05 -2.67824e-05 -1.92319e-05 -9.80873e-06 1.35007e-06 4.29573e-06 8.8618e-06 1.50646e-05 2.29121e-05 3.24123e-05 4.35796e-05 5.64389e-05 7.1028e-05 8.73946e-05 0.000105608 0.00021312 0.000323627 0.000438313 0.00055846 0.000685801 0.000821634 0.000970959 0.00112681 0.001333 -0.000715749 -0.000656558 -0.000588669 -0.000519538 -0.000450339 -0.000380918 -0.000310806 -0.000239471 -0.000166379 -9.10145e-05 -1.29374e-05 -2.29213e-05 -2.98914e-05 -3.3996e-05 -3.54319e-05 -3.43928e-05 -3.10559e-05 -2.55825e-05 -1.8128e-05 -8.86083e-06 1.99676e-06 5.22294e-06 9.92421e-06 1.62028e-05 2.41039e-05 3.36525e-05 4.48709e-05 5.77858e-05 7.24305e-05 8.88381e-05 0.000107036 0.000215816 0.000327615 0.000443746 0.00056563 0.000695183 0.000834021 0.000987841 0.00115002 0.00137496 0 0 0 0 0 0 0 0 0 0 0 0 0 0 0 0 0 0 0 0 0 0 0 0 0 0 0 0 0 0 0 0 0 0 0 0 0 0 0 0 -3.7671e-06 -3.73743e-06 -3.6791e-06 -3.59342e-06 -3.48177e-06 -3.34557e-06 -3.18623e-06 -3.00515e-06 -2.80365e-06 -2.58292e-06 -2.34405e-06 -2.08903e-06 -1.81743e-06 -1.52972e-06 -1.2262e-06 -9.06951e-07 -5.71941e-07 -2.2104e-07 1.45905e-07 5.28995e-07 9.28192e-07 1.34299e-06 1.77304e-06 2.21731e-06 2.67425e-06 3.14168e-06 3.61673e-06 4.09577e-06 4.57436e-06 5.04731e-06 5.50869e-06 5.95341e-06 6.37306e-06 6.76047e-06 7.10851e-06 7.4104e-06 7.66005e-06 7.85233e-06 7.98339e-06 8.05076e-06 -7.55423e