# vtk DataFile Version 2.0
Velocidades
ASCII

DATASET STRUCTURED_GRID
DIMENSIONS   40   40   10

POINTS   16000   double
0.0125   0.0125   0.05
0.0125   0.0375   0.05
0.0125   0.0625   0.05
0.0125   0.0875   0.05
0.0125   0.1125   0.05
0.0125   0.1375   0.05
0.0125   0.1625   0.05
0.0125   0.1875   0.05
0.0125   0.2125   0.05
0.0125   0.2375   0.05
0.0125   0.2625   0.05
0.0125   0.2875   0.05
0.0125   0.3125   0.05
0.0125   0.3375   0.05
0.0125   0.3625   0.05
0.0125   0.3875   0.05
0.0125   0.4125   0.05
0.0125   0.4375   0.05
0.0125   0.4625   0.05
0.0125   0.4875   0.05
0.0125   0.5125   0.05
0.0125   0.5375   0.05
0.0125   0.5625   0.05
0.0125   0.5875   0.05
0.0125   0.6125   0.05
0.0125   0.6375   0.05
0.0125   0.6625   0.05
0.0125   0.6875   0.05
0.0125   0.7125   0.05
0.0125   0.7375   0.05
0.0125   0.7625   0.05
0.0125   0.7875   0.05
0.0125   0.8125   0.05
0.0125   0.8375   0.05
0.0125   0.8625   0.05
0.0125   0.8875   0.05
0.0125   0.9125   0.05
0.0125   0.9375   0.05
0.0125   0.9625   0.05
0.0125   0.9875   0.05
0.0375   0.0125   0.05
0.0375   0.0375   0.05
0.0375   0.0625   0.05
0.0375   0.0875   0.05
0.0375   0.1125   0.05
0.0375   0.1375   0.05
0.0375   0.1625   0.05
0.0375   0.1875   0.05
0.0375   0.2125   0.05
0.0375   0.2375   0.05
0.0375   0.2625   0.05
0.0375   0.2875   0.05
0.0375   0.3125   0.05
0.0375   0.3375   0.05
0.0375   0.3625   0.05
0.0375   0.3875   0.05
0.0375   0.4125   0.05
0.0375   0.4375   0.05
0.0375   0.4625   0.05
0.0375   0.4875   0.05
0.0375   0.5125   0.05
0.0375   0.5375   0.05
0.0375   0.5625   0.05
0.0375   0.5875   0.05
0.0375   0.6125   0.05
0.0375   0.6375   0.05
0.0375   0.6625   0.05
0.0375   0.6875   0.05
0.0375   0.7125   0.05
0.0375   0.7375   0.05
0.0375   0.7625   0.05
0.0375   0.7875   0.05
0.0375   0.8125   0.05
0.0375   0.8375   0.05
0.0375   0.8625   0.05
0.0375   0.8875   0.05
0.0375   0.9125   0.05
0.0375   0.9375   0.05
0.0375   0.9625   0.05
0.0375   0.9875   0.05
0.0625   0.0125   0.05
0.0625   0.0375   0.05
0.0625   0.0625   0.05
0.0625   0.0875   0.05
0.0625   0.1125   0.05
0.0625   0.1375   0.05
0.0625   0.1625   0.05
0.0625   0.1875   0.05
0.0625   0.2125   0.05
0.0625   0.2375   0.05
0.0625   0.2625   0.05
0.0625   0.2875   0.05
0.0625   0.3125   0.05
0.0625   0.3375   0.05
0.0625   0.3625   0.05
0.0625   0.3875   0.05
0.0625   0.4125   0.05
0.0625   0.4375   0.05
0.0625   0.4625   0.05
0.0625   0.4875   0.05
0.0625   0.5125   0.05
0.0625   0.5375   0.05
0.0625   0.5625   0.05
0.0625   0.5875   0.05
0.0625   0.6125   0.05
0.0625   0.6375   0.05
0.0625   0.6625   0.05
0.0625   0.6875   0.05
0.0625   0.7125   0.05
0.0625   0.7375   0.05
0.0625   0.7625   0.05
0.0625   0.7875   0.05
0.0625   0.8125   0.05
0.0625   0.8375   0.05
0.0625   0.8625   0.05
0.0625   0.8875   0.05
0.0625   0.9125   0.05
0.0625   0.9375   0.05
0.0625   0.9625   0.05
0.0625   0.9875   0.05
0.0875   0.0125   0.05
0.0875   0.0375   0.05
0.0875   0.0625   0.05
0.0875   0.0875   0.05
0.0875   0.1125   0.05
0.0875   0.1375   0.05
0.0875   0.1625   0.05
0.0875   0.1875   0.05
0.0875   0.2125   0.05
0.0875   0.2375   0.05
0.0875   0.2625   0.05
0.0875   0.2875   0.05
0.0875   0.3125   0.05
0.0875   0.3375   0.05
0.0875   0.3625   0.05
0.0875   0.3875   0.05
0.0875   0.4125   0.05
0.0875   0.4375   0.05
0.0875   0.4625   0.05
0.0875   0.4875   0.05
0.0875   0.5125   0.05
0.0875   0.5375   0.05
0.0875   0.5625   0.05
0.0875   0.5875   0.05
0.0875   0.6125   0.05
0.0875   0.6375   0.05
0.0875   0.6625   0.05
0.0875   0.6875   0.05
0.0875   0.7125   0.05
0.0875   0.7375   0.05
0.0875   0.7625   0.05
0.0875   0.7875   0.05
0.0875   0.8125   0.05
0.0875   0.8375   0.05
0.0875   0.8625   0.05
0.0875   0.8875   0.05
0.0875   0.9125   0.05
0.0875   0.9375   0.05
0.0875   0.9625   0.05
0.0875   0.9875   0.05
0.1125   0.0125   0.05
0.1125   0.0375   0.05
0.1125   0.0625   0.05
0.1125   0.0875   0.05
0.1125   0.1125   0.05
0.1125   0.1375   0.05
0.1125   0.1625   0.05
0.1125   0.1875   0.05
0.1125   0.2125   0.05
0.1125   0.2375   0.05
0.1125   0.2625   0.05
0.1125   0.2875   0.05
0.1125   0.3125   0.05
0.1125   0.3375   0.05
0.1125   0.3625   0.05
0.1125   0.3875   0.05
0.1125   0.4125   0.05
0.1125   0.4375   0.05
0.1125   0.4625   0.05
0.1125   0.4875   0.05
0.1125   0.5125   0.05
0.1125   0.5375   0.05
0.1125   0.5625   0.05
0.1125   0.5875   0.05
0.1125   0.6125   0.05
0.1125   0.6375   0.05
0.1125   0.6625   0.05
0.1125   0.6875   0.05
0.1125   0.7125   0.05
0.1125   0.7375   0.05
0.1125   0.7625   0.05
0.1125   0.7875   0.05
0.1125   0.8125   0.05
0.1125   0.8375   0.05
0.1125   0.8625   0.05
0.1125   0.8875   0.05
0.1125   0.9125   0.05
0.1125   0.9375   0.05
0.1125   0.9625   0.05
0.1125   0.9875   0.05
0.1375   0.0125   0.05
0.1375   0.0375   0.05
0.1375   0.0625   0.05
0.1375   0.0875   0.05
0.1375   0.1125   0.05
0.1375   0.1375   0.05
0.1375   0.1625   0.05
0.1375   0.1875   0.05
0.1375   0.2125   0.05
0.1375   0.2375   0.05
0.1375   0.2625   0.05
0.1375   0.2875   0.05
0.1375   0.3125   0.05
0.1375   0.3375   0.05
0.1375   0.3625   0.05
0.1375   0.3875   0.05
0.1375   0.4125   0.05
0.1375   0.4375   0.05
0.1375   0.4625   0.05
0.1375   0.4875   0.05
0.1375   0.5125   0.05
0.1375   0.5375   0.05
0.1375   0.5625   0.05
0.1375   0.5875   0.05
0.1375   0.6125   0.05
0.1375   0.6375   0.05
0.1375   0.6625   0.05
0.1375   0.6875   0.05
0.1375   0.7125   0.05
0.1375   0.7375   0.05
0.1375   0.7625   0.05
0.1375   0.7875   0.05
0.1375   0.8125   0.05
0.1375   0.8375   0.05
0.1375   0.8625   0.05
0.1375   0.8875   0.05
0.1375   0.9125   0.05
0.1375   0.9375   0.05
0.1375   0.9625   0.05
0.1375   0.9875   0.05
0.1625   0.0125   0.05
0.1625   0.0375   0.05
0.1625   0.0625   0.05
0.1625   0.0875   0.05
0.1625   0.1125   0.05
0.1625   0.1375   0.05
0.1625   0.1625   0.05
0.1625   0.1875   0.05
0.1625   0.2125   0.05
0.1625   0.2375   0.05
0.1625   0.2625   0.05
0.1625   0.2875   0.05
0.1625   0.3125   0.05
0.1625   0.3375   0.05
0.1625   0.3625   0.05
0.1625   0.3875   0.05
0.1625   0.4125   0.05
0.1625   0.4375   0.05
0.1625   0.4625   0.05
0.1625   0.4875   0.05
0.1625   0.5125   0.05
0.1625   0.5375   0.05
0.1625   0.5625   0.05
0.1625   0.5875   0.05
0.1625   0.6125   0.05
0.1625   0.6375   0.05
0.1625   0.6625   0.05
0.1625   0.6875   0.05
0.1625   0.7125   0.05
0.1625   0.7375   0.05
0.1625   0.7625   0.05
0.1625   0.7875   0.05
0.1625   0.8125   0.05
0.1625   0.8375   0.05
0.1625   0.8625   0.05
0.1625   0.8875   0.05
0.1625   0.9125   0.05
0.1625   0.9375   0.05
0.1625   0.9625   0.05
0.1625   0.9875   0.05
0.1875   0.0125   0.05
0.1875   0.0375   0.05
0.1875   0.0625   0.05
0.1875   0.0875   0.05
0.1875   0.1125   0.05
0.1875   0.1375   0.05
0.1875   0.1625   0.05
0.1875   0.1875   0.05
0.1875   0.2125   0.05
0.1875   0.2375   0.05
0.1875   0.2625   0.05
0.1875   0.2875   0.05
0.1875   0.3125   0.05
0.1875   0.3375   0.05
0.1875   0.3625   0.05
0.1875   0.3875   0.05
0.1875   0.4125   0.05
0.1875   0.4375   0.05
0.1875   0.4625   0.05
0.1875   0.4875   0.05
0.1875   0.5125   0.05
0.1875   0.5375   0.05
0.1875   0.5625   0.05
0.1875   0.5875   0.05
0.1875   0.6125   0.05
0.1875   0.6375   0.05
0.1875   0.6625   0.05
0.1875   0.6875   0.05
0.1875   0.7125   0.05
0.1875   0.7375   0.05
0.1875   0.7625   0.05
0.1875   0.7875   0.05
0.1875   0.8125   0.05
0.1875   0.8375   0.05
0.1875   0.8625   0.05
0.1875   0.8875   0.05
0.1875   0.9125   0.05
0.1875   0.9375   0.05
0.1875   0.9625   0.05
0.1875   0.9875   0.05
0.2125   0.0125   0.05
0.2125   0.0375   0.05
0.2125   0.0625   0.05
0.2125   0.0875   0.05
0.2125   0.1125   0.05
0.2125   0.1375   0.05
0.2125   0.1625   0.05
0.2125   0.1875   0.05
0.2125   0.2125   0.05
0.2125   0.2375   0.05
0.2125   0.2625   0.05
0.2125   0.2875   0.05
0.2125   0.3125   0.05
0.2125   0.3375   0.05
0.2125   0.3625   0.05
0.2125   0.3875   0.05
0.2125   0.4125   0.05
0.2125   0.4375   0.05
0.2125   0.4625   0.05
0.2125   0.4875   0.05
0.2125   0.5125   0.05
0.2125   0.5375   0.05
0.2125   0.5625   0.05
0.2125   0.5875   0.05
0.2125   0.6125   0.05
0.2125   0.6375   0.05
0.2125   0.6625   0.05
0.2125   0.6875   0.05
0.2125   0.7125   0.05
0.2125   0.7375   0.05
0.2125   0.7625   0.05
0.2125   0.7875   0.05
0.2125   0.8125   0.05
0.2125   0.8375   0.05
0.2125   0.8625   0.05
0.2125   0.8875   0.05
0.2125   0.9125   0.05
0.2125   0.9375   0.05
0.2125   0.9625   0.05
0.2125   0.9875   0.05
0.2375   0.0125   0.05
0.2375   0.0375   0.05
0.2375   0.0625   0.05
0.2375   0.0875   0.05
0.2375   0.1125   0.05
0.2375   0.1375   0.05
0.2375   0.1625   0.05
0.2375   0.1875   0.05
0.2375   0.2125   0.05
0.2375   0.2375   0.05
0.2375   0.2625   0.05
0.2375   0.2875   0.05
0.2375   0.3125   0.05
0.2375   0.3375   0.05
0.2375   0.3625   0.05
0.2375   0.3875   0.05
0.2375   0.4125   0.05
0.2375   0.4375   0.05
0.2375   0.4625   0.05
0.2375   0.4875   0.05
0.2375   0.5125   0.05
0.2375   0.5375   0.05
0.2375   0.5625   0.05
0.2375   0.5875   0.05
0.2375   0.6125   0.05
0.2375   0.6375   0.05
0.2375   0.6625   0.05
0.2375   0.6875   0.05
0.2375   0.7125   0.05
0.2375   0.7375   0.05
0.2375   0.7625   0.05
0.2375   0.7875   0.05
0.2375   0.8125   0.05
0.2375   0.8375   0.05
0.2375   0.8625   0.05
0.2375   0.8875   0.05
0.2375   0.9125   0.05
0.2375   0.9375   0.05
0.2375   0.9625   0.05
0.2375   0.9875   0.05
0.2625   0.0125   0.05
0.2625   0.0375   0.05
0.2625   0.0625   0.05
0.2625   0.0875   0.05
0.2625   0.1125   0.05
0.2625   0.1375   0.05
0.2625   0.1625   0.05
0.2625   0.1875   0.05
0.2625   0.2125   0.05
0.2625   0.2375   0.05
0.2625   0.2625   0.05
0.2625   0.2875   0.05
0.2625   0.3125   0.05
0.2625   0.3375   0.05
0.2625   0.3625   0.05
0.2625   0.3875   0.05
0.2625   0.4125   0.05
0.2625   0.4375   0.05
0.2625   0.4625   0.05
0.2625   0.4875   0.05
0.2625   0.5125   0.05
0.2625   0.5375   0.05
0.2625   0.5625   0.05
0.2625   0.5875   0.05
0.2625   0.6125   0.05
0.2625   0.6375   0.05
0.2625   0.6625   0.05
0.2625   0.6875   0.05
0.2625   0.7125   0.05
[...]
POINT_DATA   16000
VECTORS Velocidades double

0 0.321019 0
0 0.733469 0
0 0.857758 0
0 0.905615 0
0 0.928892 0
0 0.942353 0
0 0.95106 0
0 0.957102 0
0 0.961492 0
0 0.96478 0
0 0.967292 0
0 0.969234 0
0 0.970741 0
0 0.971905 0
0 0.972789 0
0 0.97344 0
0 0.973888 0
0 0.974156 0
0 0.974258 0
0 0.974202 0
0 0.973992 0
0 0.973625 0
0 0.973093 0
0 0.972385 0
0 0.97148 0
0 0.970351 0
0 0.968961 0
0 0.967256 0
0 0.965165 0
0 0.962584 0
0 0.959367 0
0 0.955291 0
0 0.950008 0
0 0.942935 0
0 0.93301 0
0 0.918051 0
0 0.89282 0
0 0.842292 0
0 0.715262 0
0 0.311319 0
0 0.187096 0
0 0.481125 0
0 0.647005 0
0 0.740216 0
0 0.795853 0
0 0.83144 0
0 0.855607 0
0 0.872802 0
0 0.88547 0
0 0.89504 0
0 0.902394 0
0 0.9081 0
0 0.912539 0
0 0.915974 0
0 0.918589 0
0 0.920514 0
0 0.921841 0
0 0.922634 0
0 0.922936 0
0 0.92277 0
0 0.922144 0
0 0.921054 0
0 0.919477 0
0 0.917376 0
0 0.914695 0
0 0.911355 0
0 0.907246 0
0 0.902217 0
0 0.896063 0
0 0.888495 0
0 0.879101 0
0 0.867274 0
0 0.852092 0
0 0.83208 0
0 0.804758 0
0 0.765698 0
0 0.706522 0
0 0.610786 0
0 0.447234 0
0 0.171711 0
0 0.126982 0
0 0.347275 0
0 0.503835 0
0 0.609579 0
0 0.681212 0
0 0.730922 0
0 0.766457 0
0 0.792578 0
0 0.812234 0
0 0.827296 0
0 0.838984 0
0 0.848118 0
0 0.855261 0
0 0.860809 0
0 0.865043 0
0 0.868165 0
0 0.87032 0
0 0.871608 0
0 0.872096 0
0 0.871822 0
0 0.870799 0
0 0.869018 0
0 0.866446 0
0 0.863024 0
0 0.858665 0
0 0.853245 0
0 0.846596 0
0 0.838488 0
0 0.828611 0
0 0.816538 0
0 0.801673 0
0 0.783168 0
0 0.759788 0
0 0.729681 0
0 0.690011 0
0 0.636347 0
0 0.561794 0
0 0.456192 0
0 0.307271 0
0 0.110203 0
0 0.0950962 0
0 0.268265 0
0 0.405879 0
0 0.509541 0
0 0.586244 0
0 0.643104 0
0 0.685726 0
0 0.718131 0
0 0.743107 0
0 0.762579 0
0 0.777879 0
0 0.789947 0
0 0.799449 0
0 0.806867 0
0 0.812549 0
0 0.816751 0
0 0.819655 0
0 0.82139 0
0 0.822043 0
0 0.821664 0
0 0.820271 0
0 0.817851 0
0 0.814363 0
0 0.809733 0
0 0.803848 0
0 0.796553 0
0 0.787639 0
0 0.776822 0
0 0.763728 0
0 0.747852 0
0 0.728513 0
0 0.704778 0
0 0.675361 0
0 0.638469 0
0 0.591611 0
0 0.531386 0
0 0.453414 0
0 0.352856 0
0 0.226575 0
0 0.0784113 0
0 0.075751 0
0 0.217161 0
0 0.336537 0
0 0.432811 0
0 0.508622 0
0 0.5678 0
0 0.614006 0
0 0.650256 0
0 0.67887 0
0 0.701585 0
0 0.719681 0
0 0.734104 0
0 0.745551 0
0 0.754542 0
0 0.76146 0
0 0.76659 0
0 0.770142 0
0 0.772265 0
0 0.773057 0
0 0.772578 0
0 0.77085 0
0 0.767859 0
0 0.763558 0
0 0.757862 0
0 0.750645 0
0 0.741734 0
0 0.730894 0
0 0.71782 0
0 0.702111 0
0 0.683245 0
0 0.660539 0
0 0.633106 0
0 0.599785 0
0 0.559083 0
0 0.509128 0
0 0.447694 0
0 0.37246 0
0 0.281718 0
0 0.175877 0
0 0.059713 0
0 0.0627785 0
0 0.181581 0
0 0.285469 0
0 0.373035 0
0 0.445107 0
0 0.50365 0
0 0.550927 0
0 0.589056 0
0 0.619829 0
0 0.64469 0
0 0.664773 0
0 0.680955 0
0 0.693908 0
0 0.704147 0
0 0.712064 0
0 0.717956 0
0 0.722043 0
0 0.724484 0
0 0.725386 0
0 0.724813 0
0 0.722792 0
0 0.719308 0
0 0.714312 0
0 0.707715 0
0 0.699387 0
0 0.689146 0
0 0.676757 0
0 0.661911 0
0 0.644218 0
0 0.623185 0
0 0.598191 0
0 0.568464 0
0 0.533064 0
0 0.490871 0
0 0.440629 0
0 0.381071 0
0 0.311216 0
0 0.23092 0
0 0.141701 0
0 0.0475928 0
0 0.053423 0
0 0.155339 0
0 0.246428 0
0 0.325507 0
0 0.392693 0
0 0.448954 0
0 0.495649 0
0 0.534206 0
0 0.565945 0
0 0.592009 0
0 0.613346 0
0 0.630722 0
0 0.644751 0
0 0.655915 0
0 0.664591 0
0 0.67107 0
0 0.675573 0
0 0.678259 0
0 0.67924 0
0 0.678583 0
0 0.676313 0
0 0.672421 0
0 0.666857 0
0 0.659535 0
0 0.650326 0
0 0.639054 0
0 0.625494 0
0 0.609358 0
0 0.590289 0
0 0.567853 0
0 0.541523 0
0 0.510682 0
0 0.474622 0
0 0.432577 0
0 0.383794 0
0 0.327671 0
0 0.264002 0
0 0.193325 0
0 0.117333 0
0 0.0391529 0
0 0.046307 0
0 0.135098 0
0 0.215597 0
0 0.286919 0
0 0.348931 0
0 0.402085 0
0 0.447181 0
0 0.48516 0
0 0.516966 0
0 0.543471 0
0 0.565436 0
0 0.583507 0
0 0.598218 0
0 0.61 0
0 0.619204 0
0 0.6261 0
0 0.630901 0
0 0.633762 0
0 0.634793 0
0 0.634059 0
0 0.63159 0
0 0.627376 0
0 0.621374 0
0 0.613501 0
0 0.603639 0
0 0.591626 0
0 0.577257 0
0 0.560279 0
0 0.540383 0
0 0.517207 0
0 0.490332 0
0 0.459295 0
0 0.423602 0
0 0.382778 0
0 0.336435 0
0 0.284395 0
0 0.226855 0
0 0.164595 0
0 0.0991669 0
0 0.0329537 0
0 0.040675 0
0 0.118931 0
0 0.190575 0
0 0.254973 0
0 0.31193 0
0 0.361636 0
0 0.404555 0
0 0.441296 0
0 0.472523 0
0 0.498883 0
0 0.520972 0
0 0.539315 0
0 0.554362 0
0 0.566491 0
0 0.576009 0
0 0.583166 0
0 0.588155 0
0 0.591124 0
0 0.592176 0
0 0.591377 0
0 0.588755 0
0 0.584304 0
0 0.577988 0
0 0.569733 0
0 0.559433 0
0 0.546948 0
0 0.532101 0
0 0.514676 0
0 0.494422 0
0 0.471052 0
0 0.444253 0
0 0.413698 0
0 0.379072 0
0 0.340118 0
0 0.296696 0
0 0.248876 0
0 0.197046 0
0 0.142022 0
0 0.0851339 0
0 0.0282115 0
0 0.03608 0
0 0.10566 0
0 0.169801 0
0 0.228064 0
0 0.28026 0
0 0.326453 0
0 0.366902 0
0 0.401999 0
0 0.432203 0
0 0.457988 0
0 0.479807 0
0 0.498081 0
0 0.513178 0
0 0.525416 0
0 0.535063 0
0 0.542339 0
0 0.547418 0
0 0.550435 0
0 0.551485 0
0 0.55063 0
0 0.5479 0
0 0.543294 0
0 0.53678 0
0 0.528297 0
0 0.517756 0
0 0.505038 0
0 0.489999 0
0 0.472464 0
0 0.452237 0
0 0.429104 0
0 0.402845 0
0 0.373246 0
0 0.340133 0
0 0.303402 0
0 0.263073 0
0 0.219349 0
0 0.172689 0
0 0.123861 0
0 0.0739788 0
0 0.0244671 0
0 0.0322412 0
0 0.0945239 0
0 0.152228 0
0 0.205056 0
0 0.252849 0
0 0.295607 0
0 0.333476 0
0 0.366701 0
0 0.395595 0
0 0.420499 0
0 0.441757 0
0 0.459694 0
0 0.474607 0
0 0.48676 0
0 0.496379 0
0 0.503654 0
0 0.508737 0
0 0.511749 0
0 0.512777 0
0 0.511878 0
0 0.509083 0
0 0.504394 0
0 0.497787 0
0 0.489214 0
0 0.478603 0
0 0.465859 0
0 0.450868 0
0 0.433497 0
0 0.413602 0
0 0.391032 0
0 0.365643 0
0 0.337316 0
0 0.305976 0
0 0.271623 0
0 0.234374 0
0 0.194498 0
0 0.152461 0
0 0.108954 0
0 0.0649017 0
0 0.0214346 0
0 0.0289735 0
0 0.0850144 0
0 0.137132 0
0 0.185129 0
0 0.228882 0
0 0.268364 0
0 0.303651 0
0 0.334895 0
0 0.362307 0
0 0.386128 0
0 0.406614 0
0 0.424013 0
0 0.438562 0
0 0.450474 0
0 0.459936 0
0 0.467109 0
0 0.472125 0
0 0.475088 0
0 0.476078 0
0 0.475148 0
0 0.472326 0
0 0.467619 0
0 0.461011 0
0 0.452466 0
0 0.44193 0
0 0.429332 0
0 0.414585 0
0 0.397595 0
0 0.378262 0
0 0.35649 0
0 0.332197 0
0 0.305333 0
0 0.275894 0
0 0.243949 0
0 0.209668 0
0 0.173344 0
0 0.135421 0
0 0.0965063 0
0 0.0573716 0
0 0.0189276 0
0 0.0261496 0
0 0.0767772 0
0 0.123996 0
0 0.167681 0
0 0.20774 0
0 0.244139 0
0 0.27691 0
0 0.306145 0
0 0.331984 0
0 0.354595 0
0 0.374166 0
0 0.390884 0
0 0.404932 0
0 0.416482 0
0 0.425686 0
0 0.432677 0
0 0.437568 0
0 0.440449 0
0 0.441389 0
0 0.440437 0
0 0.437622 0
0 0.432953 0
0 0.426422 0
0 0.418005 0
0 0.407664 0
0 0.395349 0
0 0.381001 0
0 0.364556 0
0 0.345954 0
0 0.325141 0
0 0.302086 0
0 0.276786 0
0 0.249288 0
0 0.219703 0
0 0.188225 0
0 0.155149 0
0 0.120884 0
0 0.0859604 0
0 0.0510235 0
0 0.0168197 0
0 0.0236792 0
0 0.069558 0
0 0.112444 0
0 0.152263 0
0 0.188948 0
0 0.222465 0
0 0.252823 0
0 0.280074 0
0 0.304308 0
0 0.32564 0
0 0.344205 0
0 0.360142 0
0 0.373593 0
0 0.384692 0
0 0.39356 0
0 0.400308 0
0 0.405029 0
0 0.407801 0
0 0.408683 0
0 0.407721 0
0 0.404941 0
0 0.400357 0
0 0.393967 0
0 0.385759 0
0 0.375709 0
0 0.363785 0
0 0.349951 0
0 0.334172 0
0 0.316416 0
0 0.296666 0
0 0.274926 0
0 0.251229 0
0 0.225654 0
0 0.198334 0
0 0.169474 0
0 0.139355 0
0 0.108348 0
0 0.0769141 0
0 0.0455989 0
0 0.0150221 0
0 0.0214963 0
0 0.0631699 0
0 0.102193 0
0 0.138529 0
0 0.172132 0
0 0.202969 0
0 0.231037 0
0 0.256361 0
0 0.278997 0
0 0.299023 0
0 0.316532 0
0 0.331627 0
0 0.344415 0
0 0.354999 0
0 0.363476 0
0 0.369936 0
0 0.374454 0
0 0.377097 0
0 0.377917 0
0 0.376953 0
0 0.374233 0
0 0.369772 0
0 0.363576 0
0 0.35564 0
0 0.345954 0
0 0.334501 0
0 0.321266 0
0 0.306234 0
0 0.2894 0
0 0.270771 0
0 0.250377 0
0 0.228278 0
0 0.204569 0
0 0.179397 0
0 0.152962 0
0 0.12553 0
0 0.0974325 0
0 0.069071 0
0 0.04091 0
0 0.0134708 0
0 0.0195513 0
0 0.0574718 0
0 0.0930305 0
0 0.126216 0
0 0.156998 0
0 0.185348 0
0 0.211257 0
0 0.234732 0
0 0.255805 0
0 0.274527 0
0 0.290961 0
0 0.305181 0
0 0.317266 0
0 0.327294 0
0 0.335342 0
0 0.341481 0
0 0.345774 0
0 0.348275 0
0 0.34903 0
0 0.348074 0
0 0.345434 0
0 0.341127 0
0 0.335164 0
0 0.327548 0
0 0.31828 0
0 0.307356 0
0 0.294776 0
0 0.280544 0
0 0.264672 0
0 0.247189 0
0 0.22814 0
0 0.207602 0
0 0.185681 0
0 0.162526 0
0 0.138331 0
0 0.113339 0
0 0.0878488 0
0 0.0622085 0
0 0.0368172 0
0 0.0121183 0
0 0.0178062 0
0 0.0523548 0
0 0.0847881 0
0 0.115112 0
0 0.143309 0
0 0.169356 0
0 0.193238 0
0 0.214952 0
0 0.234515 0
0 0.251957 0
0 0.267318 0
0 0.280651 0
0 0.292013 0
0 0.301463 0
0 0.309059 0
0 0.314858 0
0 0.31891 0
0 0.321262 0
0 0.321951 0
0 0.321011 0
0 0.318466 0
0 0.314336 0
0 0.308636 0
0 0.301375 0
0 0.292562 0
0 0.282206 0
0 0.270317 0
0 0.256912 0
0 0.242019 0
0 0.225679 0
0 0.207951 0
0 0.18892 0
0 0.168696 0
0 0.147426 0
0 0.125293 0
0 0.10252 0
0 0.0793728 0
0 0.0561559 0
0 0.0332145 0
0 0.010929 0
0 0.0162313 0
0 0.0477336 0
0 0.0773342 0
0 0.105051 0
0 0.130876 0
0 0.154788 0
0 0.176773 0
0 0.196822 0
0 0.214937 0
0 0.231136 0
0 0.245444 0
0 0.257895 0
0 0.26853 0
0 0.277391 0
0 0.284524 0
0 0.289972 0
0 0.293776 0
0 0.295975 0
0 0.2966 0
0 0.295682 0
0 0.293245 0
0 0.289309 0
0 0.283893 0
0 0.27701 0
0 0.268677 0
0 0.258909 0
0 0.247728 0
0 0.235161 0
0 0.221245 0
0 0.206029 0
0 0.189581 0
0 0.171989 0
0 0.153366 0
0 0.133851 0
0 0.113615 0
0 0.0928625 0
0 0.0718282 0
0 0.0507808 0
0 0.03002 0
0 0.00987533 0
0 0.0148029 0
0 0.0435401 0
0 0.0705624 0
0 0.0958963 0
0 0.119539 0
0 0.141475 0
0 0.161688 0
0 0.180165 0
0 0.196904 0
0 0.211908 0
0 0.225192 0
0 0.236777 0
0 0.246692 0
0 0.254966 0
0 0.261634 0
0 0.266728 0
0 0.270282 0
0 0.272327 0
0 0.272892 0
0 0.272002 0
0 0.269681 0
0 0.265951 0
0 0.260831 0
0 0.25434 0
0 0.246499 0
0 0.23733 0
0 0.226862 0
0 0.215127 0
0 0.20217 0
0 0.188046 0
0 0.172828 0
0 0.156603 0
0 0.139482 0
0 0.121597 0
0 0.103108 0
0 0.0841965 0
0 0.0650745 0
0 0.0459781 0
0 0.0271695 0
0 0.00893571 0
0 0.0135019 0
0 0.0397186 0
0 0.0643859 0
0 0.087535 0
0 0.109168 0
0 0.129273 0
0 0.147832 0
0 0.164833 0
0 0.180265 0
0 0.194128 0
0 0.206426 0
0 0.217171 0
0 0.226381 0
0 0.234078 0
0 0.240285 0
0 0.245029 0
0 0.248334 0
0 0.250228 0
0 0.250735 0
0 0.249878 0
0 0.24768 0
0 0.244162 0
0 0.239346 0
0 0.233253 0
0 0.225909 0
0 0.217338 0
0 0.207575 0
0 0.196658 0
0 0.184634 0
0 0.171563 0
0 0.157516 0
0 0.142583 0
0 0.126868 0
0 0.110496 0
0 0.0936131 0
0 0.0763844 0
0 0.0589983 0
0 0.041664 0
0 0.0246116 0
0 0.00809303 0
0 0.0123124 0
0 0.0362234 0
0 0.0587326 0
0 0.0798738 0
0 0.0996524 0
0 0.118059 0
0 0.135077 0
0 0.150692 0
0 0.164891 0
0 0.177668 0
0 0.189022 0
0 0.198958 0
0 0.207486 0
0 0.21462 0
0 0.220377 0
0 0.224776 0
0 0.227839 0
0 0.229586 0
0 0.230039 0
0 0.229219 0
0 0.227147 0
0 0.223845 0
0 0.219335 0
0 0.213641 0
0 0.206789 0
0 0.198809 0
0 0.189737 0
0 0.179614 0
0 0.168491 0
0 0.156426 0
0 0.143493 0
0 0.129775 0
0 0.115374 0
0 0.100405 0
0 0.085001 0
0 0.0693123 0
0 0.0535068 0
0 0.0377699 0
0 0.0223049 0
0 0.00733343 0
0 0.0112213 0
0 0.0330162 0
0 0.0535419 0
0 0.0728332 0
0 0.0908979 0
0 0.107728 0
0 0.12331 0
0 0.137626 0
0 0.150663 0
0 0.162412 0
0 0.172867 0
0 0.182027 0
0 0.189898 0
0 0.196489 0
0 0.201809 0
0 0.205875 0
0 0.208702 0
0 0.210308 0
0 0.210711 0
0 0.209931 0
0 0.207987 0
0 0.204901 0
0 0.200695 0
0 0.195395 0
0 0.189028 0
0 0.181626 0
0 0.173225 0
0 0.163869 0
0 0.153609 0
0 0.142503 0
0 0.130621 0
0 0.118046 0
0 0.10487 0
0 0.0912016 0
0 0.0771615 0
0 0.0628853 0
0 0.0485232 0
0 0.0342399 0
0 0.0202154 0
0 0.0066456 0
0 0.0102173 0
0 0.0300645 0
0 0.0487622 0
0 0.0663455 0
0 0.0828233 0
0 0.0981896 0
0 0.112431 0
0 0.125531 0
0 0.137476 0
0 0.148252 0
0 0.157854 0
0 0.166275 0
0 0.173518 0
0 0.179586 0
0 0.184487 0
0 0.188232 0
0 0.190832 0
0 0.192303 0
0 0.192661 0
0 0.191922 0
0 0.190106 0
0 0.187234 0
0 0.183329 0
0 0.178415 0
0 0.17252 0
0 0.165678 0
0 0.157925 0
0 0.149305 0
0 0.139868 0
0 0.129671 0
0 0.118782 0
0 0.107277 0
0 0.0952446 0
0 0.0827826 0
0 0.0700015 0
0 0.0570236 0
0 0.0439832 0
0 0.031027 0
0 0.0183147 0
0 0.00602017 0
0 0.00929093 0
0 0.0273402 0
0 0.044349 0
0 0.0603516 0
0 0.0753576 0
0 0.0893622 0
0 0.102353 0
0 0.114315 0
0 0.125232 0
0 0.135093 0
0 0.143886 0
0 0.151605 0
0 0.158249 0
0 0.163818 0
0 0.168318 0
0 0.171754 0
0 0.174138 0
0 0.175481 0
0 0.175797 0
0 0.175102 0
0 0.173413 0
0 0.170752 0
0 0.167139 0
0 0.162601 0
0 0.157164 0
0 0.150862 0
0 0.143731 0
0 0.135814 0
0 0.12716 0
0 0.117823 0
0 0.107868 0
0 0.0973672 0
0 0.0864003 0
0 0.0750583 0
0 0.0634412 0
0 0.0516592 0
0 0.0398325 0
0 0.0280919 0
0 0.0165793 0
0 0.00544926 0
0 0.00843377 0
0 0.0248191 0
0 0.0402636 0
0 0.0548 0
0 0.0684384 0
0 0.0811749 0
0 0.0929983 0
0 0.103894 0
0 0.113847 0
0 0.122843 0
0 0.130872 0
0 0.137926 0
0 0.144001 0
0 0.149096 0
0 0.153212 0
0 0.156355 0
0 0.158532 0
0 0.159754 0
0 0.160032 0
0 0.159382 0
0 0.157819 0
0 0.155363 0
0 0.152035 0
0 0.147859 0
0 0.142864 0
0 0.13708 0
0 0.130545 0
0 0.123297 0
0 0.115386 0
0 0.106862 0
0 0.0977859 0
0 0.0882244 0
0 0.0782518 0
0 0.0679507 0
0 0.0574117 0
0 0.0467338 0
0 0.0360247 0
0 0.025401 0
0 0.014989 0
0 0.0049262 0
0 0.00763854 0
0 0.0224799 0
0 0.0364717 0
0 0.0496451 0
0 0.0620101 0
0 0.0735638 0
0 0.0842957 0
0 0.0941921 0
0 0.103239 0
0 0.111421 0
0 0.118729 0
0 0.125154 0
0 0.130689 0
0 0.135332 0
0 0.139084 0
0 0.141948 0
0 0.143929 0
0 0.145037 0
0 0.145282 0
0 0.144676 0
0 0.143236 0
0 0.140979 0
0 0.137926 0
0 0.134101 0
0 0.129529 0
0 0.124242 0
0 0.118274 0
0 0.111664 0
0 0.104455 0
0 0.0966988 0
0 0.088449 0
0 0.079768 0
0 0.0707238 0
0 0.0613914 0
0 0.0518528 0
0 0.0421968 0
0 0.0325197 0
0 0.0229255 0
0 0.0135266 0
0 0.00444527 0
0 0.00689873 0
0 0.0203034 0
0 0.0329428 0
0 0.0448461 0
0 0.056023 0
0 0.0664713 0
0 0.0761814 0
0 0.0851406 0
0 0.093335 0
0 0.100751 0
0 0.107379 0
0 0.113207 0
0 0.118231 0
0 0.122446 0
0 0.125853 0
0 0.128452 0
0 0.130248 0
0 0.131248 0
0 0.131462 0
0 0.130902 0
0 0.129582 0
0 0.127518 0
0 0.12473 0
0 0.121241 0
0 0.117075 0
0 0.112262 0
0 0.106835 0
0 0.100829 0
0 0.0942865 0
0 0.0872534 0
0 0.0797809 0
0 0.0719254 0
0 0.0637492 0
0 0.05532 0
0 0.0467117 0
0 0.0380038 0
0 0.0292824 0
0 0.0206401 0
0 0.0121769 0
0 0.0040015 0
0 0.00620852 0
0 0.0182725 0
0 0.0296494 0
0 0.0403661 0
0 0.0504319 0
0 0.059845 0
0 0.0685968 0
0 0.0766755 0
0 0.0840682 0
0 0.0907622 0
0 0.0967465 0
0 0.102012 0
0 0.106551 0
0 0.110361 0
0 0.11344 0
0 0.115787 0
0 0.117408 0
0 0.118308 0
0 0.118495 0
0 0.11798 0
0 0.116776 0
0 0.114898 0
0 0.112366 0
0 0.109199 0
0 0.105421 0
0 0.10106 0
0 0.096147 0
0 0.090715 0
0 0.0848027 0
0 0.0784526 0
0 0.0717116 0
0 0.0646313 0
0 0.0572679 0
0 0.0496826 0
0 0.0419415 0
0 0.0341158 0
0 0.0262822 0
0 0.0185229 0
0 0.0109268 0
0 0.00359055 0
0 0.00556261 0
0 0.0163719 0
0 0.0265667 0
0 0.0361717 0
0 0.0451956 0
0 0.053637 0
0 0.0614881 0
0 0.0687382 0
0 0.0753752 0
0 0.0813874 0
0 0.0867641 0
0 0.0914964 0
0 0.0955774 0
0 0.0990027 0
0 0.10177 0
0 0.10388 0
0 0.105335 0
0 0.10614 0
0 0.106303 0
0 0.105832 0
0 0.104741 0
0 0.103043 0
0 0.100755 0
0 0.097897 0
0 0.0944906 0
0 0.0905611 0
0 0.0861368 0
0 0.0812494 0
0 0.0759338 0
0 0.070229 0
0 0.0641777 0
0 0.0578263 0
0 0.0512257 0
0 0.0444306 0
0 0.0375002 0
0 0.0304978 0
0 0.0234915 0
0 0.0165543 0
0 0.00976475 0
0 0.00320858 0
0 0.00495619 0
0 0.0145874 0
0 0.0236719 0
0 0.0322322 0
0 0.0402762 0
0 0.0478029 0
0 0.0548054 0
0 0.0612739 0
0 0.0671973 0
0 0.0725648 0
0 0.0773664 0
0 0.0815936 0
0 0.0852397 0
0 0.0883001 0
0 0.0907726 0
0 0.0926569 0
0 0.093955 0
0 0.0946712 0
0 0.0948119 0
0 0.0943857 0
0 0.0934035 0
0 0.0918783 0
0 0.0898255 0
0 0.087263 0
0 0.0842112 0
0 0.0806931 0
0 0.0767346 0
0 0.0723645 0
0 0.0676148 0
0 0.0625206 0
0 0.0571205 0
0 0.0514562 0
0 0.0455732 0
0 0.0395203 0
0 0.03335 0
0 0.0271185 0
0 0.020886 0
0 0.0147167 0
0 0.00868031 0
0 0.00285215 0
0 0.00438482 0
0 0.0129059 0
0 0.0209439 0
0 0.0285191 0
0 0.0356386 0
0 0.0423017 0
0 0.0485022 0
0 0.0542313 0
0 0.0594792 0
0 0.0642357 0
0 0.0684918 0
0 0.0722395 0
0 0.0754725 0
0 0.0781863 0
0 0.0803785 0
0 0.0820485 0
0 0.083198 0
0 0.0838305 0
0 0.0839516 0
0 0.0835689 0
0 0.0826923 0
0 0.0813335 0
0 0.0795064 0
0 0.0772273 0
0 0.0745146 0
0 0.0713893 0
0 0.0678748 0
0 0.063997 0
0 0.0597848 0
0 0.0552697 0
0 0.050486 0
0 0.0454711 0
0 0.0402652 0
0 0.0349116 0
0 0.0294565 0
0 0.0239495 0
0 0.0184433 0
0 0.0129946 0
0 0.0076641 0
0 0.00251818 0
0 0.00384436 0
0 0.0113153 0
0 0.0183632 0
0 0.0250059 0
0 0.03125 0
0 0.0370948 0
0 0.0425348 0
0 0.0475624 0
0 0.0521687 0
0 0.0563446 0
0 0.0600819 0
0 0.0633733 0
0 0.0662129 0
0 0.0685966 0
0 0.0705219 0
0 0.0719881 0
0 0.0729964 0
0 0.0735499 0
0 0.0736533 0
0 0.0733135 0
0 0.0725391 0
0 0.0713406 0
0 0.0697305 0
0 0.0677233 0
0 0.0653356 0
0 0.062586 0
0 0.0594955 0
0 0.0560874 0
0 0.052387 0
0 0.0484225 0
0 0.0442242 0
0 0.0398249 0
0 0.0352601 0
0 0.0305677 0
0 0.0257882 0
0 0.0209647 0
0 0.0161433 0
0 0.0113733 0
0 0.00670757 0
0 0.00220384 0
0 0.00333096 0
0 0.00980434 0
0 0.0159114 0
0 0.0216679 0
0 0.0270796 0
0 0.0321459 0
0 0.0368622 0
0 0.0412216 0
0 0.0452165 0
0 0.0488387 0
0 0.0520809 0
0 0.0549367 0
0 0.0574007 0
0 0.0594691 0
0 0.0611395 0
0 0.0624112 0
0 0.0632851 0
0 0.0637637 0
0 0.0638513 0
0 0.0635536 0
0 0.0628782 0
0 0.0618345 0
0 0.0604333 0
0 0.0586876 0
0 0.0566119 0
0 0.0542226 0
0 0.0515383 0
0 0.0485792 0
0 0.0453678 0
0 0.0419285 0
0 0.0382879 0
0 0.0344745 0
0 0.0305191 0
0 0.0264546 0
0 0.0223158 0
0 0.0181402 0
0 0.0139673 0
0 0.00983969 0
0 0.00580289 0
0 0.00190656 0
0 0.00284098 0
0 0.00836219 0
0 0.0135712 0
0 0.0184815 0
0 0.0230982 0
0 0.0274207 0
0 0.0314451 0
0 0.0351655 0
0 0.0385753 0
0 0.0416674 0
0 0.0444355 0
0 0.0468739 0
0 0.0489779 0
0 0.0507441 0
0 0.0521703 0
0 0.0532557 0
0 0.0540011 0
0 0.0544086 0
0 0.0544817 0
0 0.0542254 0
0 0.0536462 0
0 0.0527522 0
0 0.0515528 0
0 0.0500592 0
0 0.0482839 0
0 0.0462412 0
0 0.0439471 0
0 0.041419 0
0 0.0386764 0
0 0.0357402 0
0 0.0326331 0
0 0.0293796 0
0 0.026006 0
0 0.0225403 0
0 0.0190123 0
0 0.0154536 0
0 0.011898 0
0 0.00838152 0
0 0.00494279 0
0 0.00162394 0
0 0.00237095 0
0 0.00697876 0
0 0.0113262 0
0 0.0154245 0
0 0.019278 0
0 0.0228863 0
0 0.0262462 0
0 0.0293526 0
0 0.0321999 0
0 0.0347823 0
0 0.0370943 0
0 0.0391311 0
0 0.0408886 0
0 0.0423639 0
0 0.0435551 0
0 0.0444615 0
0 0.0450835 0
0 0.045423 0
0 0.0454828 0
0 0.0452672 0
0 0.0447817 0
0 0.0440329 0
0 0.043029 0
0 0.0417792 0
0 0.0402943 0
0 0.0385863 0
0 0.0366685 0
0 0.0345559 0
0 0.0322646 0
0 0.0298122 0
0 0.0272178 0
0 0.024502 0
0 0.0216866 0
0 0.018795 0
0 0.0158521 0
0 0.0128841 0
0 0.00991923 0
0 0.00698729 0
0 0.00412047 0
0 0.00135375 0
0 0.00191757 0
0 0.00564429 0
0 0.0091605 0
0 0.0124754 0
0 0.0155925 0
0 0.0185114 0
0 0.0212296 0
0 0.0237429 0
0 0.0260469 0
0 0.0281366 0
0 0.0300077 0
0 0.0316561 0
0 0.0330786 0
0 0.0342726 0
0 0.0352366 0
0 0.0359699 0
0 0.036473 0
0 0.0367471 0
0 0.0367947 0
0 0.0366192 0
0 0.0362251 0
0 0.0356178 0
0 0.0348038 0
0 0.0337909 0
0 0.0325878 0
0 0.0312042 0
0 0.0296512 0
0 0.0279407 0
0 0.0260859 0
0 0.0241013 0
0 0.0220022 0
0 0.0198054 0
0 0.0175284 0
0 0.0151903 0
0 0.012811 0
0 0.0104119 0
0 0.00801561 0
0 0.00564616 0
0 0.00332952 0
0 0.00109388 0
0 0.00147766 0
0 0.00434944 0
0 0.00705906 0
0 0.00961364 0
0 0.0120159 0
0 0.0142655 0
0 0.0163606 0
0 0.0182979 0
0 0.0200739 0
0 0.0216849 0
0 0.0231275 0
0 0.0243984 0
0 0.0254951 0
0 0.0264156 0
0 0.0271588 0
0 0.0277241 0
0 0.0281117 0
0 0.0283227 0
0 0.0283589 0
0 0.028223 0
0 0.0279183 0
0 0.0274493 0
0 0.0268209 0
0 0.0260391 0
0 0.0251107 0
0 0.0240432 0
0 0.0228453 0
0 0.0215261 0
0 0.0200959 0
0 0.0185659 0
0 0.0169479 0
0 0.0152548 0
0 0.0135003 0
0 0.0116989 0
0 0.00986605 0
0 0.00801815 0
0 0.00617256 0
0 0.00434782 0
0 0.00256385 0
0 0.000842323 0
0 0.00104812 0
0 0.00308512 0
0 0.00500712 0
0 0.00681919 0
0 0.00852325 0
0 0.0101191 0
0 0.0116054 0
0 0.0129799 0
0 0.01424 0
0 0.015383 0
0 0.0164066 0
0 0.0173083 0
0 0.0180866 0
0 0.0187398 0
0 0.0192671 0
0 0.0196681 0