# vtk DataFile Version 2.0
Velocidades
ASCII

DATASET STRUCTURED_GRID
DIMENSIONS   40   40   20

POINTS   32000   double
0.0125   0.0125   0.025
0.0125   0.0375   0.025
0.0125   0.0625   0.025
0.0125   0.0875   0.025
0.0125   0.1125   0.025
0.0125   0.1375   0.025
0.0125   0.1625   0.025
0.0125   0.1875   0.025
0.0125   0.2125   0.025
0.0125   0.2375   0.025
0.0125   0.2625   0.025
0.0125   0.2875   0.025
0.0125   0.3125   0.025
0.0125   0.3375   0.025
0.0125   0.3625   0.025
0.0125   0.3875   0.025
0.0125   0.4125   0.025
0.0125   0.4375   0.025
0.0125   0.4625   0.025
0.0125   0.4875   0.025
0.0125   0.5125   0.025
0.0125   0.5375   0.025
0.0125   0.5625   0.025
0.0125   0.5875   0.025
0.0125   0.6125   0.025
0.0125   0.6375   0.025
0.0125   0.6625   0.025
0.0125   0.6875   0.025
0.0125   0.7125   0.025
0.0125   0.7375   0.025
0.0125   0.7625   0.025
0.0125   0.7875   0.025
0.0125   0.8125   0.025
0.0125   0.8375   0.025
0.0125   0.8625   0.025
0.0125   0.8875   0.025
0.0125   0.9125   0.025
0.0125   0.9375   0.025
0.0125   0.9625   0.025
0.0125   0.9875   0.025
0.0375   0.0125   0.025
0.0375   0.0375   0.025
0.0375   0.0625   0.025
0.0375   0.0875   0.025
0.0375   0.1125   0.025
0.0375   0.1375   0.025
0.0375   0.1625   0.025
0.0375   0.1875   0.025
0.0375   0.2125   0.025
0.0375   0.2375   0.025
0.0375   0.2625   0.025
0.0375   0.2875   0.025
0.0375   0.3125   0.025
0.0375   0.3375   0.025
0.0375   0.3625   0.025
0.0375   0.3875   0.025
0.0375   0.4125   0.025
0.0375   0.4375   0.025
0.0375   0.4625   0.025
0.0375   0.4875   0.025
0.0375   0.5125   0.025
0.0375   0.5375   0.025
0.0375   0.5625   0.025
0.0375   0.5875   0.025
0.0375   0.6125   0.025
0.0375   0.6375   0.025
0.0375   0.6625   0.025
0.0375   0.6875   0.025
0.0375   0.7125   0.025
0.0375   0.7375   0.025
0.0375   0.7625   0.025
0.0375   0.7875   0.025
0.0375   0.8125   0.025
0.0375   0.8375   0.025
0.0375   0.8625   0.025
0.0375   0.8875   0.025
0.0375   0.9125   0.025
0.0375   0.9375   0.025
0.0375   0.9625   0.025
0.0375   0.9875   0.025
0.0625   0.0125   0.025
0.0625   0.0375   0.025
0.0625   0.0625   0.025
0.0625   0.0875   0.025
0.0625   0.1125   0.025
0.0625   0.1375   0.025
0.0625   0.1625   0.025
0.0625   0.1875   0.025
0.0625   0.2125   0.025
0.0625   0.2375   0.025
0.0625   0.2625   0.025
0.0625   0.2875   0.025
0.0625   0.3125   0.025
0.0625   0.3375   0.025
0.0625   0.3625   0.025
0.0625   0.3875   0.025
0.0625   0.4125   0.025
0.0625   0.4375   0.025
0.0625   0.4625   0.025
0.0625   0.4875   0.025
0.0625   0.5125   0.025
0.0625   0.5375   0.025
0.0625   0.5625   0.025
0.0625   0.5875   0.025
0.0625   0.6125   0.025
0.0625   0.6375   0.025
0.0625   0.6625   0.025
0.0625   0.6875   0.025
0.0625   0.7125   0.025
0.0625   0.7375   0.025
0.0625   0.7625   0.025
0.0625   0.7875   0.025
0.0625   0.8125   0.025
0.0625   0.8375   0.025
0.0625   0.8625   0.025
0.0625   0.8875   0.025
0.0625   0.9125   0.025
0.0625   0.9375   0.025
0.0625   0.9625   0.025
0.0625   0.9875   0.025
0.0875   0.0125   0.025
0.0875   0.0375   0.025
0.0875   0.0625   0.025
0.0875   0.0875   0.025
0.0875   0.1125   0.025
0.0875   0.1375   0.025
0.0875   0.1625   0.025
0.0875   0.1875   0.025
0.0875   0.2125   0.025
0.0875   0.2375   0.025
0.0875   0.2625   0.025
0.0875   0.2875   0.025
0.0875   0.3125   0.025
0.0875   0.3375   0.025
0.0875   0.3625   0.025
0.0875   0.3875   0.025
0.0875   0.4125   0.025
0.0875   0.4375   0.025
0.0875   0.4625   0.025
0.0875   0.4875   0.025
0.0875   0.5125   0.025
0.0875   0.5375   0.025
0.0875   0.5625   0.025
0.0875   0.5875   0.025
0.0875   0.6125   0.025
0.0875   0.6375   0.025
0.0875   0.6625   0.025
0.0875   0.6875   0.025
0.0875   0.7125   0.025
0.0875   0.7375   0.025
0.0875   0.7625   0.025
0.0875   0.7875   0.025
0.0875   0.8125   0.025
0.0875   0.8375   0.025
0.0875   0.8625   0.025
0.0875   0.8875   0.025
0.0875   0.9125   0.025
0.0875   0.9375   0.025
0.0875   0.9625   0.025
0.0875   0.9875   0.025
0.1125   0.0125   0.025
0.1125   0.0375   0.025
0.1125   0.0625   0.025
0.1125   0.0875   0.025
0.1125   0.1125   0.025
0.1125   0.1375   0.025
0.1125   0.1625   0.025
0.1125   0.1875   0.025
0.1125   0.2125   0.025
0.1125   0.2375   0.025
0.1125   0.2625   0.025
0.1125   0.2875   0.025
0.1125   0.3125   0.025
0.1125   0.3375   0.025
0.1125   0.3625   0.025
0.1125   0.3875   0.025
0.1125   0.4125   0.025
0.1125   0.4375   0.025
0.1125   0.4625   0.025
0.1125   0.4875   0.025
0.1125   0.5125   0.025
0.1125   0.5375   0.025
0.1125   0.5625   0.025
0.1125   0.5875   0.025
0.1125   0.6125   0.025
0.1125   0.6375   0.025
0.1125   0.6625   0.025
0.1125   0.6875   0.025
0.1125   0.7125   0.025
0.1125   0.7375   0.025
0.1125   0.7625   0.025
0.1125   0.7875   0.025
0.1125   0.8125   0.025
0.1125   0.8375   0.025
0.1125   0.8625   0.025
0.1125   0.8875   0.025
0.1125   0.9125   0.025
0.1125   0.9375   0.025
0.1125   0.9625   0.025
0.1125   0.9875   0.025
0.1375   0.0125   0.025
0.1375   0.0375   0.025
0.1375   0.0625   0.025
0.1375   0.0875   0.025
0.1375   0.1125   0.025
0.1375   0.1375   0.025
0.1375   0.1625   0.025
0.1375   0.1875   0.025
0.1375   0.2125   0.025
0.1375   0.2375   0.025
0.1375   0.2625   0.025
0.1375   0.2875   0.025
0.1375   0.3125   0.025
0.1375   0.3375   0.025
0.1375   0.3625   0.025
0.1375   0.3875   0.025
0.1375   0.4125   0.025
0.1375   0.4375   0.025
0.1375   0.4625   0.025
0.1375   0.4875   0.025
0.1375   0.5125   0.025
0.1375   0.5375   0.025
0.1375   0.5625   0.025
0.1375   0.5875   0.025
0.1375   0.6125   0.025
0.1375   0.6375   0.025
0.1375   0.6625   0.025
0.1375   0.6875   0.025
0.1375   0.7125   0.025
0.1375   0.7375   0.025
0.1375   0.7625   0.025
0.1375   0.7875   0.025
0.1375   0.8125   0.025
0.1375   0.8375   0.025
0.1375   0.8625   0.025
0.1375   0.8875   0.025
0.1375   0.9125   0.025
0.1375   0.9375   0.025
0.1375   0.9625   0.025
0.1375   0.9875   0.025
0.1625   0.0125   0.025
0.1625   0.0375   0.025
0.1625   0.0625   0.025
0.1625   0.0875   0.025
0.1625   0.1125   0.025
0.1625   0.1375   0.025
0.1625   0.1625   0.025
0.1625   0.1875   0.025
0.1625   0.2125   0.025
0.1625   0.2375   0.025
0.1625   0.2625   0.025
0.1625   0.2875   0.025
0.1625   0.3125   0.025
0.1625   0.3375   0.025
0.1625   0.3625   0.025
0.1625   0.3875   0.025
0.1625   0.4125   0.025
0.1625   0.4375   0.025
0.1625   0.4625   0.025
0.1625   0.4875   0.025
0.1625   0.5125   0.025
0.1625   0.5375   0.025
0.1625   0.5625   0.025
0.1625   0.5875   0.025
0.1625   0.6125   0.025
0.1625   0.6375   0.025
0.1625   0.6625   0.025
0.1625   0.6875   0.025
0.1625   0.7125   0.025
0.1625   0.7375   0.025
0.1625   0.7625   0.025
0.1625   0.7875   0.025
0.1625   0.8125   0.025
0.1625   0.8375   0.025
0.1625   0.8625   0.025
0.1625   0.8875   0.025
0.1625   0.9125   0.025
0.1625   0.9375   0.025
0.1625   0.9625   0.025
0.1625   0.9875   0.025
0.1875   0.0125   0.025
0.1875   0.0375   0.025
0.1875   0.0625   0.025
0.1875   0.0875   0.025
0.1875   0.1125   0.025
0.1875   0.1375   0.025
0.1875   0.1625   0.025
0.1875   0.1875   0.025
0.1875   0.2125   0.025
0.1875   0.2375   0.025
0.1875   0.2625   0.025
0.1875   0.2875   0.025
0.1875   0.3125   0.025
0.1875   0.3375   0.025
0.1875   0.3625   0.025
0.1875   0.3875   0.025
0.1875   0.4125   0.025
0.1875   0.4375   0.025
0.1875   0.4625   0.025
0.1875   0.4875   0.025
0.1875   0.5125   0.025
0.1875   0.5375   0.025
0.1875   0.5625   0.025
0.1875   0.5875   0.025
0.1875   0.6125   0.025
0.1875   0.6375   0.025
0.1875   0.6625   0.025
0.1875   0.6875   0.025
0.1875   0.7125   0.025
0.1875   0.7375   0.025
0.1875   0.7625   0.025
0.1875   0.7875   0.025
0.1875   0.8125   0.025
0.1875   0.8375   0.025
0.1875   0.8625   0.025
0.1875   0.8875   0.025
0.1875   0.9125   0.025
0.1875   0.9375   0.025
0.1875   0.9625   0.025
0.1875   0.9875   0.025
0.2125   0.0125   0.025
0.2125   0.0375   0.025
0.2125   0.0625   0.025
0.2125   0.0875   0.025
0.2125   0.1125   0.025
0.2125   0.1375   0.025
0.2125   0.1625   0.025
0.2125   0.1875   0.025
0.2125   0.2125   0.025
0.2125   0.2375   0.025
0.2125   0.2625   0.025
0.2125   0.2875   0.025
0.2125   0.3125   0.025
0.2125   0.3375   0.025
0.2125   0.3625   0.025
0.2125   0.3875   0.025
0.2125   0.4125   0.025
0.2125   0.4375   0.025
0.2125   0.4625   0.025
0.2125   0.4875   0.025
0.2125   0.5125   0.025
0.2125   0.5375   0.025
0.2125   0.5625   0.025
0.2125   0.5875   0.025
0.2125   0.6125   0.025
0.2125   0.6375   0.025
0.2125   0.6625   0.025
0.2125   0.6875   0.025
0.2125   0.7125   0.025
0.2125   0.7375   0.025
0.2125   0.7625   0.025
0.2125   0.7875   0.025
0.2125   0.8125   0.025
0.2125   0.8375   0.025
0.2125   0.8625   0.025
0.2125   0.8875   0.025
0.2125   0.9125   0.025
0.2125   0.9375   0.025
0.2125   0.9625   0.025
0.2125   0.9875   0.025
0.2375   0.0125   0.025
0.2375   0.0375   0.025
0.2375   0.0625   0.025
0.2375   0.0875   0.025
0.2375   0.1125   0.025
0.2375   0.1375   0.025
0.2375   0.1625   0.025
0.2375   0.1875   0.025
0.2375   0.2125   0.025
0.2375   0.2375   0.025
0.2375   0.2625   0.025
0.2375   0.2875   0.025
0.2375   0.3125   0.025
0.2375   0.3375   0.025
0.2375   0.3625   0.025
0.2375   0.3875   0.025
0.2375   0.4125   0.025
0.2375   0.4375   0.025
0.2375   0.4625   0.025
0.2375   0.4875   0.025
0.2375   0.5125   0.025
0.2375   0.5375   0.025
0.2375   0.5625   0.025
0.2375   0.5875   0.025
0.2375   0.6125   0.025
0.2375   0.6375   0.025
0.2375   0.6625   0.025
0.2375   0.6875   0.025
0.2375   0.7125   0.025
0.2375   0.7375   0.025
0.2375   0.7625   0.025
0.2375   0.7875   0.025
0.2375   0.8125   0.025
0.2375   0.8375   0.025
0.2375   0.8625   0.025
0.2375   0.8875   0.025
0.2375   0.9125   0.025
0.2375   0.9375   0.025
0.2375   0.9625   0.025
0.2375   0.9875   0.025
0.2625   0.0125   0.025
0.2625   0.0375   0.025
0.2625   0.0625   0.025
0.2625   0.0875   0.025
0.2625   0.1125   0.025
0.2625   0.1375   0.025
0.2625   0.1625   0.025
0.2625   0.1875   0.025
0.2625   0.2125   0.025
0.2625   0.2375   0.025
0.2625   0.2625   0.025
[...]
POINT_DATA   32000
VECTORS Velocidades double

6.48756e-05 0.00120993 0
0.000254176 0.00216514 0
0.000151936 0.00175581 0
-7.92e-07 0.00159553 0
-0.000150757 0.00172891 0
-0.000288219 0.00213821 0
-0.000412882 0.0027963 0
-0.000526028 0.00367758 0
-0.000628808 0.00475933 0
-0.000721959 0.00602109 0
-0.00080581 0.00744378 0
-0.000880358 0.00900894 0
-0.000945345 0.0106981 0
-0.00100034 0.0124924 0
-0.00104483 0.0143722 0
-0.00107833 0.0163173 0
-0.00110049 0.0183068 0
-0.00111121 0.0203195 0
-0.00111081 0.0223351 0
-0.00110014 0.0243343 0
-0.00108077 0.0263006 0
-0.0010552 0.0282217 0
-0.00102707 0.0300917 0
-0.00100149 0.0319133 0
-0.000985566 0.0337016 0
-0.000989111 0.0354884 0
-0.00102581 0.0373288 0
-0.0011151 0.0393107 0
-0.0012851 0.0415695 0
-0.00157745 0.0443097 0
-0.00205499 0.0478401 0
-0.00281445 0.0526292 0
-0.00400734 0.0593944 0
-0.00587404 0.0692471 0
-0.00879352 0.0839225 0
-0.0133169 0.106094 0
-0.0199258 0.139482 0
-0.0268849 0.186567 0
-0.0163082 0.230241 0
0.124138 0.123426 0
0.000137165 0.00264584 0
0.000574348 0.00522536 0
0.00025116 0.0052095 0
-0.000288906 0.00554179 0
-0.000866826 0.00637898 0
-0.00142511 0.0077676 0
-0.00194661 0.00970001 0
-0.00242734 0.0121459 0
-0.0028672 0.0150665 0
-0.00326673 0.01842 0
-0.00362606 0.0221633 0
-0.00394458 0.0262528 0
-0.00422098 0.0306433 0
-0.00445346 0.0352887 0
-0.00464003 0.0401407 0
-0.00477887 0.0451498 0
-0.00486883 0.0502653 0
-0.00490994 0.0554368 0
-0.00490392 0.0606152 0
-0.00485489 0.0657552 0
-0.00477002 0.0708184 0
-0.00466034 0.0757764 0
-0.00454176 0.080616 0
-0.00443637 0.0853441 0
-0.0043743 0.0899961 0
-0.00439639 0.0946439 0
-0.00455823 0.0994093 0
-0.0049362 0.10448 0
-0.00563643 0.110129 0
-0.00680788 0.116748 0
-0.00866093 0.124878 0
-0.0114922 0.135245 0
-0.0157139 0.148794 0
-0.0218732 0.166641 0
-0.0305991 0.189845 0
-0.042221 0.218565 0
-0.0549949 0.249483 0
-0.0574454 0.268577 0
0.00402157 0.23605 0
0.348639 0.0998421 0
7.32557e-05 0.00386061 0
0.00044039 0.00792264 0
-0.000205375 0.00852763 0
-0.0012715 0.0096235 0
-0.00247029 0.0113472 0
-0.00367253 0.0137659 0
-0.00482286 0.0168917 0
-0.00589858 0.0207033 0
-0.00689067 0.0251607 0
-0.00779521 0.0302146 0
-0.00860957 0.03581 0
-0.00933085 0.0418882 0
-0.0099554 0.0483878 0
-0.0104789 0.0552441 0
-0.010897 0.0623902 0
-0.0112059 0.0697564 0
-0.0114034 0.0772719 0
-0.0114898 0.0848655 0
-0.0114695 0.092468 0
-0.011352 0.100015 0
-0.0111535 0.10745 0
-0.0108987 0.11473 0
-0.0106226 0.12183 0
-0.0103736 0.128751 0
-0.0102162 0.135524 0
-0.0102361 0.142227 0
-0.0105468 0.148987 0
-0.0112981 0.155999 0
-0.0126883 0.163536 0
-0.0149777 0.171958 0
-0.0185024 0.181712 0
-0.0236776 0.193302 0
-0.030966 0.207188 0
-0.0407395 0.223529 0
-0.0528385 0.241584 0
-0.0652542 0.258386 0
-0.0702113 0.266083 0
-0.0425925 0.247883 0
0.0914552 0.178969 0
0.51364 0.0642161 0
-0.00014514 0.00499945 0
-0.000204728 0.0104484 0
-0.00136651 0.0116581 0
-0.00307834 0.0135306 0
-0.00500853 0.0161405 0
-0.0069753 0.0195357 0
-0.00888445 0.0237284 0
-0.0106887 0.0287013 0
-0.0123644 0.0344169 0
-0.0138989 0.0408245 0
-0.0152836 0.0478648 0
-0.0165112 0.0554722 0
-0.017574 0.0635763 0
-0.0184641 0.0721023 0
-0.0191736 0.0809714 0
-0.0196959 0.0901015 0
-0.020027 0.0994078 0
-0.0201673 0.108805 0
-0.0201237 0.118207 0
-0.0199112 0.127536 0
-0.0195559 0.136716 0
-0.0190971 0.145688 0
-0.0185905 0.154409 0
-0.0181115 0.162857 0
-0.0177598 0.171043 0
-0.0176645 0.179011 0
-0.0179909 0.186851 0
-0.0189484 0.194695 0
-0.0207981 0.202722 0
-0.0238561 0.211139 0
-0.0284831 0.220148 0
-0.0350358 0.22986 0
-0.0437275 0.240121 0
-0.054273 0.250169 0
-0.0650257 0.258 0
-0.0709117 0.259285 0
-0.0585485 0.24592 0
0.00462466 0.205739 0
0.189878 0.129821 0
0.619857 0.0412217 0
-0.000503899 0.00606375 0
-0.00130197 0.0127874 0
-0.00318977 0.0145201 0
-0.00567257 0.0170808 0
-0.00841782 0.0204803 0
-0.0112192 0.0247313 0
-0.0139558 0.029831 0
-0.0165587 0.0357582 0
-0.0189888 0.0424751 0
-0.0212227 0.0499316 0
-0.0232439 0.0580678 0
-0.0250388 0.0668164 0
-0.0265943 0.0761036 0
-0.0278973 0.0858498 0
-0.0289351 0.0959699 0
-0.029697 0.106374 0
-0.0301763 0.116968 0
-0.0303719 0.127656 0
-0.0302917 0.138341 0
-0.029955 0.148926 0
-0.0293959 0.159321 0
-0.028666 0.169446 0
-0.0278386 0.179232 0
-0.027012 0.188627 0
-0.0263138 0.197603 0
-0.0259053 0.206156 0
-0.0259863 0.214304 0
-0.0267978 0.222089 0
-0.0286201 0.229556 0
-0.0317584 0.23673 0
-0.0364987 0.243554 0
-0.0429978 0.249787 0
-0.0510349 0.254819 0
-0.0594712 0.257356 0
-0.065104 0.254939 0
-0.0603 0.243328 0
-0.028345 0.216184 0
0.0645315 0.166736 0
0.277972 0.0954385 0
0.689358 0.0276053 0
-0.000979017 0.00702426 0
-0.00277207 0.0148781 0
-0.00557245 0.0170356 0
-0.00894321 0.0201615 0
-0.012573 0.0242135 0
-0.016253 0.0291667 0
-0.0198502 0.0349972 0
-0.0232817 0.0416741 0
-0.0264963 0.0491565 0
-0.0294603 0.0573944 0
-0.0321489 0.0663291 0
-0.0345412 0.0758941 0
-0.0366174 0.0860159 0
-0.0383578 0.0966137 0
-0.0397436 0.1076 0
-0.0407584 0.11888 0
-0.0413904 0.130355 0
-0.0416354 0.141918 0
-0.0414997 0.153461 0
-0.0410041 0.164874 0
-0.0401869 0.176049 0
-0.0391083 0.186882 0
-0.0378533 0.197275 0
-0.0365355 0.207143 0
-0.0353002 0.21641 0
-0.0343269 0.225014 0
-0.0338296 0.232901 0
-0.0340529 0.240011 0
-0.0352585 0.246267 0
-0.0376907 0.251531 0
-0.041499 0.255548 0
-0.0465744 0.257843 0
-0.0522166 0.257567 0
-0.0564749 0.253261 0
-0.0548848 0.242561 0
-0.0381595 0.221983 0
0.0116301 0.187295 0
0.126007 0.135765 0
0.352031 0.0722904 0
0.737027 0.0194629 0
-0.0015452 0.00785084 0
-0.00453465 0.0166616 0
-0.00839793 0.0191459 0
-0.012754 0.022708 0
-0.0173232 0.0272637 0
-0.0219092 0.0327554 0
-0.026379 0.0391378 0
-0.0306448 0.0463679 0
-0.0346479 0.0544002 0
-0.0383473 0.0631843 0
-0.0417106 0.0726632 0
-0.0447095 0.082773 0
-0.0473164 0.0934423 0
-0.049504 0.104592 0
-0.0512455 0.116133 0
-0.0525168 0.127971 0
-0.0532988 0.139999 0
-0.0535813 0.152106 0
-0.0533661 0.164172 0
-0.0526716 0.176073 0
-0.0515365 0.187683 0
-0.0500237 0.198873 0
-0.0482239 0.209518 0
-0.046258 0.219495 0
-0.0442787 0.228684 0
-0.0424704 0.236968 0
-0.0410449 0.244221 0
-0.0402298 0.250304 0
-0.040244 0.255038 0
-0.0412449 0.258169 0
-0.0432238 0.25932 0
-0.0458027 0.257902 0
-0.0478462 0.252998 0
-0.0467486 0.243214 0
-0.0371746 0.226539 0
-0.00900898 0.200398 0
0.0554957 0.162337 0
0.184276 0.112199 0
0.413578 0.0565908 0
0.771457 0.0144245 0
-0.00217883 0.0085198 0
-0.00651427 0.0180936 0
-0.0115523 0.0208131 0
-0.0169661 0.0246878 0
-0.0225131 0.0296016 0
-0.0280183 0.0354709 0
-0.0333589 0.0422316 0
-0.0384495 0.0498299 0
-0.0432299 0.0582156 0
-0.0476546 0.0673379 0
-0.0516856 0.0771421 0
-0.0552872 0.087568 0
-0.058424 0.0985477 0
-0.0610595 0.110005 0
-0.0631572 0.121852 0
-0.0646831 0.133993 0
-0.0656084 0.146318 0
-0.0659133 0.15871 0
-0.0655919 0.171038 0
-0.0646562 0.183166 0
-0.0631408 0.194947 0
-0.0611064 0.206233 0
-0.0586431 0.21687 0
-0.0558721 0.2267 0
-0.0529455 0.235565 0
-0.0500429 0.243299 0
-0.0473628 0.249722 0
-0.0451048 0.254631 0
-0.0434343 0.25778 0
-0.0424164 0.258849 0
-0.0418909 0.2574 0
-0.0412421 0.252816 0
-0.0389833 0.244223 0
-0.0320345 0.230399 0
-0.0145433 0.209758 0
0.0238319 0.180546 0
0.09989 0.141627 0
0.237754 0.0943477 0
0.465072 0.045683 0
0.797548 0.0111727 0
-0.00285885 0.00901463 0
-0.00864273 0.0191449 0
-0.0149303 0.0220167 0
-0.0214479 0.0260898 0
-0.0279928 0.0312251 0
-0.0344176 0.0373195 0
-0.0406164 0.0442947 0
-0.0465129 0.0520888 0
-0.0520501 0.0606484 0
-0.0571817 0.0699232 0
-0.0618656 0.0798619 0
-0.0660599 0.0904088 0
-0.0697205 0.101501 0
-0.0728007 0.113065 0
-0.0752527 0.125016 0
-0.0770299 0.137259 0
-0.0780907 0.149681 0
-0.0784031 0.162158 0
-0.0779496 0.174552 0
-0.0767319 0.186711 0
-0.0747762 0.198475 0
-0.0721365 0.209673 0
-0.0688977 0.220126 0
-0.0651762 0.229648 0
-0.0611176 0.238046 0
-0.0568914 0.245119 0
-0.0526779 0.250646 0
-0.0486446 0.254385 0
-0.0449041 0.256049 0
-0.0414364 0.255288 0
-0.0379506 0.251653 0
-0.033639 0.244553 0
-0.0267521 0.233204 0
-0.013898 0.216597 0
0.0110182 0.193543 0
0.0581722 0.162954 0
0.143061 0.124606 0
0.286244 0.0806641 0
0.508706 0.0378658 0
0.818151 0.00897783 0
-0.00356684 0.00932472 0
-0.0108594 0.0197978 0
-0.0184368 0.0227475 0
-0.0260779 0.026915 0
-0.0336222 0.0321454 0
-0.0409539 0.0383226 0
-0.0479892 0.0453594 0
-0.0546659 0.053189 0
-0.0609344 0.0617574 0
-0.0667504 0.071017 0
-0.0720699 0.0809209 0
-0.0768449 0.0914192 0
-0.0810227 0.102454 0
-0.084545 0.113958 0
-0.0873505 0.12585 0
-0.0893778 0.138034 0
-0.0905696 0.150396 0
-0.0908782 0.162807 0
-0.0902709 0.17512 0
-0.0887359 0.187173 0
-0.0862871 0.198789 0
-0.0829683 0.209779 0
-0.0788556 0.219942 0
-0.0740573 0.22907 0
-0.0687103 0.236944 0
-0.0629715 0.243334 0
-0.0570026 0.247996 0
-0.0509415 0.250664 0
-0.0448539 0.251034 0
-0.0386486 0.248753 0
-0.0319297 0.243389 0
-0.0237434 0.234403 0
-0.0121561 0.221122 0
0.00640493 0.202739 0
0.0380803 0.178408 0
0.0926432 0.147549 0
0.184171 0.110546 0
0.33007 0.0699669 0
0.546192 0.0320718 0
0.834969 0.00742785 0
-0.00428664 0.0094439 0
-0.0131103 0.0200429 0
-0.0219857 0.0230032 0
-0.0307447 0.0271698 0
-0.0392711 0.0323785 0
-0.0474841 0.0385059 0
-0.0553258 0.0454611 0
-0.0627517 0.0531767 0
-0.0697231 0.061601 0
-0.0762003 0.0706912 0
-0.0821382 0.0804072 0
-0.0874837 0.0907058 0
-0.0921745 0.101537 0
-0.0961397 0.112838 0
-0.0993027 0.124532 0
-0.101584 0.136526 0
-0.102909 0.148704 0
-0.103209 0.160933 0
-0.102435 0.17306 0
-0.100557 0.18491 0
-0.0975733 0.196295 0
-0.0935159 0.207008 0
-0.0884495 0.216833 0
-0.0824729 0.22554 0
-0.0757135 0.232892 0
-0.0683169 0.238644 0
-0.0604286 0.242535 0
-0.0521621 0.244289 0
-0.0435457 0.243603 0
-0.0344323 0.240134 0
-0.0243461 0.233483 0
-0.0122274 0.223174 0
0.00397651 0.208642 0
0.02792 0.189262 0
0.0656538 0.164464 0
0.126416 0.134044 0
0.222875 0.0987823 0
0.36971 0.0614065 0
0.578798 0.0276281 0
0.849057 0.00628406 0
-0.00500378 0.00936919 0
-0.0153467 0.0198765 0
-0.0254984 0.0227851 0
-0.0353456 0.0268626 0
-0.0448187 0.0319404 0
-0.0538745 0.0378938 0
-0.0624842 0.0446327 0
-0.0706241 0.0520934 0
-0.0782683 0.06023 0
-0.0853836 0.0690073 0
-0.091925 0.0783935 0
-0.0978343 0.0883544 0
-0.103039 0.0988481 0
-0.107454 0.10982 0
-0.110985 0.121198 0
-0.113533 0.13289 0
-0.115001 0.144784 0
-0.115299 0.156742 0
-0.114356 0.168604 0
-0.112121 0.180188 0
-0.108577 0.191293 0
-0.10374 0.201699 0
-0.0976616 0.211176 0
-0.0904324 0.219479 0
-0.0821711 0.226359 0
-0.0730144 0.231558 0
-0.0630961 0.23481 0
-0.0525121 0.235839 0
-0.0412631 0.23435 0
-0.0291609 0.23002 0
-0.0156714 0.222487 0
0.000337442 0.211337 0
0.0209867 0.196105 0
0.0499385 0.176319 0
0.0930635 0.151629 0
0.159 0.122104 0
0.259075 0.088772 0
0.405633 0.0543815 0
0.607454 0.0241034 0
0.861085 0.00540388 0
-0.00570482 0.00910015 0
-0.0175234 0.0192988 0
-0.0289017 0.0220972 0
-0.0397844 0.026002 0
-0.0501512 0.0308456 0
-0.0599991 0.036507 0
-0.0693306 0.0429019 0
-0.0781447 0.049974 0
-0.0864305 0.0576868 0
-0.0941621 0.0660151 0
-0.101295 0.0749379 0
-0.107766 0.0844317 0
-0.113492 0.0944645 0
-0.118371 0.10499 0
-0.12229 0.115943 0
-0.125126 0.127237 0
-0.126759 0.13876 0
-0.127073 0.150373 0
-0.125972 0.161911 0
-0.123385 0.173186 0
-0.119271 0.183986 0
-0.113633 0.194082 0
-0.10651 0.20323 0
-0.0979823 0.211176 0
-0.0881635 0.217662 0
-0.0771847 0.222423 0
-0.065173 0.225192 0
-0.0522135 0.225698 0
-0.038289 0.223658 0
-0.0231825 0.218773 0
-0.00632029 0.210719 0
0.0134758 0.199137 0
0.0383556 0.183651 0
0.0719354 0.163912 0
0.119847 0.139741 0
0.190103 0.111406 0
0.292787 0.0800846 0
0.438249 0.0484649 0
0.632836 0.0212146 0
0.871494 0.00469925 0
-0.00637685 0.00863854 0
-0.0195972 0.018314 0
-0.0321258 0.0209454 0
-0.0439698 0.0245972 0
-0.0551607 0.0291079 0
-0.065738 0.0343646 0
-0.0757374 0.0402933 0
-0.0851822 0.0468492 0
-0.0940772 0.0540079 0
-0.102405 0.061757 0
-0.110121 0.0700883 0
-0.117156 0.0789908 0
-0.123416 0.0884441 0
-0.128781 0.0984122 0
-0.133116 0.108839 0
-0.136274 0.119642 0
-0.138106 0.130714 0
-0.138469 0.141915 0
-0.137239 0.153081 0
-0.134319 0.164015 0
-0.129649 0.1745 0
-0.123211 0.184297 0
-0.115035 0.193154 0
-0.105193 0.200809 0
-0.0937939 0.206996 0
-0.0809677 0.211449 0
-0.06684 0.213901 0
-0.0514913 0.214089 0
-0.0348948 0.211744 0
-0.0168154 0.206589 0
0.00334608 0.198334 0
0.0267923 0.186669 0
0.0556717 0.171291 0
0.0935151 0.151953 0
0.145678 0.128608 0
0.21955 0.101664 0
0.324072 0.0723831 0
0.467893 0.0433488 0
0.655433 0.0187708 0
0.880576 0.00411378 0
-0.00700695 0.0079885 0
-0.0215255 0.0169307 0
-0.0351033 0.0193392 0
-0.0478138 0.0226601 0
-0.0597437 0.0267425 0
-0.0709769 0.0314866 0
-0.0815833 0.0368325 0
-0.0916112 0.0427499 0
-0.101082 0.0492295 0
-0.109985 0.0562737 0
-0.118278 0.0638891 0
-0.125885 0.072079 0
-0.132697 0.0808359 0
-0.138578 0.0901361 0
-0.143368 0.0999331 0
-0.146892 0.110154 0
-0.14897 0.120695 0
-0.14943 0.131422 0
-0.148116 0.142167 0
-0.144905 0.152733 0
-0.139712 0.162897 0
-0.132502 0.172415 0
-0.123293 0.181027 0
-0.112149 0.188465 0
-0.0991785 0.194459 0
-0.0845135 0.198741 0
-0.0682823 0.201047 0
-0.0505669 0.20112 0
-0.0313371 0.198704 0
-0.0103487 0.193542 0
0.0130112 0.185371 0
0.0399531 0.173927 0
0.0726002 0.158961 0
0.114369 0.140312 0
0.170318 0.118032 0
0.247227 0.0926288 0
0.352997 0.065401 0
0.494824 0.0388064 0
0.6756 0.0166388 0
0.888532 0.00360988 0
-0.00758199 0.00715693 0
-0.0232663 0.0151626 0
-0.037768 0.0172932 0
-0.0512316 0.0202074 0
-0.0638015 0.0237702 0
-0.0756069 0.0278988 0
-0.0867525 0.0325507 0
-0.0973116 0.0377132 0
-0.107321 0.0433939 0
-0.11678 0.0496118 0
-0.125645 0.0563898 0
-0.133833 0.0637465 0
-0.141222 0.0716897 0
-0.147654 0.0802091 0
-0.152945 0.0892709 0
-0.156889 0.0988124 0
-0.159275 0.108739 0
-0.159896 0.11892 0
-0.158563 0.129193 0
-0.155123 0.13936 0
-0.149466 0.149196 0
-0.141538 0.158453 0
-0.131342 0.166867 0
-0.11894 0.174164 0
-0.104438 0.180073 0
-0.0879745 0.184322 0
-0.0696839 0.18665 0
-0.0496543 0.186805 0
-0.0278577 0.184541 0
-0.00404745 0.179617 0
0.0223933 0.171793 0
0.0526689 0.160837 0
0.088859 0.14655 0
0.134245 0.128834 0
0.193576 0.10782 0
0.273044 0.0840819 0
0.379613 0.0589242 0
0.519234 0.0346657 0
0.693588 0.0147226 0
0.895498 0.00316149 0
-0.0080885 0.00615406 0
-0.0247777 0.0130305 0
-0.0400557 0.0148292 0
-0.0541421 0.0172641 0
-0.0672403 0.0202206 0
-0.0795252 0.0236369 0
-0.0911359 0.0274907 0
-0.10217 0.0317886 0
-0.11268 0.0365565 0
-0.122673 0.0418311 0
-0.132104 0.0476524 0
-0.140883 0.0540559 0
-0.148874 0.0610654 0
-0.155898 0.0686865 0
-0.161742 0.0768999 0
-0.166172 0.0856565 0
-0.168939 0.0948727 0
-0.1698 0.104428 0
-0.168533 0.114166 0
-0.164949 0.123892 0
-0.158912 0.133384 0
-0.150346 0.142391 0
-0.139241 0.150648 0
-0.125654 0.157877 0
-0.109692 0.163803 0
-0.0915007 0.168153 0
-0.071224 0.170666 0
-0.0489591 0.171093 0
-0.0246847 0.169193 0
0.00184239 0.164738 0
0.0312351 0.157503 0
0.0646806 0.147282 0
0.104199 0.133916 0
0.152923 0.117355 0
0.215286 0.0977878 0
0.296923 0.0758322 0
0.403948 0.0527762 0
0.541254 0.0307925 0
0.709571 0.0129502 0
0.901565 0.00274975 0
-0.00851279 0.00499404 0
-0.0260184 0.0105631 0
-0.041905 0.0119786 0
-0.0564691 0.0138661 0
-0.0699732 0.0161364 0
-0.082637 0.0187518 0
-0.0946323 0.021712 0
-0.10608 0.025044 0
-0.117048 0.0287925 0
-0.127548 0.0330122 0
-0.137536 0.0377605 0
-0.146915 0.0430903 0
-0.155533 0.0490429 0
-0.163189 0.0556413 0
-0.169645 0.0628836 0
-0.174631 0.0707372 0
-0.177864 0.0791338 0
-0.179062 0.0879669 0
-0.177963 0.09709 0
-0.174343 0.106319 0
-0.168037 0.115434 0
-0.158943 0.124188 0
-0.147039 0.132316 0
-0.132372 0.139538 0
-0.115054 0.145575 0
-0.0952358 0.150151 0
-0.0730741 0.153005 0
-0.0486775 0.153884 0
-0.0220348 0.152552 0
0.00708924 0.148784 0
0.0392968 0.142368 0
0.0757479 0.133117 0
0.118392 0.120898 0
0.170199 0.105701 0
0.23529 0.087758 0
0.318773 0.0677088 0
0.426001 0.0468081 0
0.560964 0.0270787 0
0.723659 0.0112659 0
0.906788 0.00236044 0
-0.00884126 0.00369553 0
-0.0269494 0.00779914 0
-0.0432588 0.00878405 0
-0.0581434 0.0100629 0
-0.0719223 0.0115764 0
-0.0848574 0.0133129 0
-0.0971509 0.0152953 0
-0.108945 0.0175708 0
-0.12032 0.0202024 0
-0.131296 0.0232625 0
-0.141827 0.0268253 0
-0.151808 0.0309614 0
-0.161072 0.0357303 0
-0.169401 0.0411742 0
-0.176526 0.0473112 0
-0.182146 0.0541287 0
-0.185938 0.0615783 0
-0.187581 0.069572 0
-0.186771 0.0779796 0
-0.183248 0.0866303 0
-0.17681 0.0953151 0
-0.167331 0.103793 0
-0.154768 0.111801 0
-0.139162 0.11906 0
-0.120624 0.125287 0
-0.0993129 0.130203 0
-0.0753961 0.13354 0
-0.0489964 0.135043 0
-0.0201147 0.134472 0
0.0114719 0.131602 0
0.0463489 0.126227 0
0.0856405 0.118171 0
0.131214 0.107322 0
0.185873 0.0936997 0
0.253427 0.0775612 0
0.33849 0.059556 0
0.445736 0.0408906 0
0.578394 0.023434 0
0.735914 0.00962467 0
0.911201 0.00198242 0
-0.00906092 0.00228203 0
-0.0275349 0.00478792 0
-0.0440673 0.00530118 0
-0.0591053 0.00591997 0
-0.0730212 0.00661806 0
-0.0861142 0.00741147 0
-0.0986135 0.00834592 0
-0.11068 0.00948775 0
-0.122405 0.010917 0
-0.133814 0.0127218 0
-0.144863 0.0149925 0
-0.155438 0.0178166 0
-0.165363 0.0212724 0
-0.174396 0.0254226 0
-0.182245 0.0303079 0
-0.188574 0.0359397 0
-0.193025 0.0422942 0
-0.195233 0.0493074 0
-0.194853 0.0568721 0
-0.191581 0.0648371 0
-0.185178 0.0730096 0
-0.175487 0.0811605 0
-0.162443 0.0890324 0
-0.146073 0.0963486 0
-0.126488 0.102824 0
-0.10385 0.108174 0
-0.0783395 0.112124 0
-0.0500916 0.114408 0
-0.0191221 0.114782 0
0.0147767 0.113013 0
0.0521676 0.108896 0
0.0941314 0.10226 0
0.142446 0.0930062 0
0.19974 0.0811725 0
0.269523 0.0670324 0
0.355949 0.051229 0
0.463085 0.0349082 0
0.593532 0.019781 0
0.746356 0.00798914 0
0.914814 0.00160664 0
-0.00916007 0.000782106 0
-0.0277448 0.00158988 0
-0.0442897 0.00159929 0
-0.0593084 0.00151923 0
-0.0732187 0.00135896 0
-0.0863513 0.00116217 0
-0.0989576 0.000995976 0
-0.111213 0.000943753 0
-0.123221 0.00109997 0
-0.13501 0.00156611 0
-0.146538 0.00244671 0
-0.157687 0.00384497 0
-0.168269 0.00585772 0
-0.178028 0.0085694 0
-0.186646 0.0120454 0
-0.193758 0.0163249 0
-0.198968 0.0214138 0
-0.20187 0.0272788 0
-0.202072 0.0338422 0
-0.199227 0.0409803 0
-0.193053 0.0485236 0
-0.183356 0.0562611 0
-0.170044 0.0639469 0
-0.153127 0.0713099 0
-0.132706 0.0780641 0
-0.108947 0.0839191 0
-0.0820374 0.0885888 0
-0.0521264 0.0917982 0
-0.0192449 0.0932877 0
0.0167959 0.092817 0
0.0565314 0.0901721 0
0.100992 0.0851826 0
0.151859 0.0777557 0
0.211584 0.0679382 0
0.283388 0.0560082 0
0.370996 0.0425895 0
0.477947 0.028755 0
0.606326 0.0160509 0
0.754967 0.00632701 0
0.917621 0.00122546 0
-0.00912916 -0.000770767 0
-0.0275568 -0.00172355 0
-0.043898 -0.00223863 0
-0.0587219 -0.0030404 0
-0.0724817 -0.00408313 0
-0.085532 -0.00529674 0
-0.0981401 -0.00659528 0
-0.110493 -0.00788167 0
-0.122703 -0.00905052 0
-0.134804 -0.00999019 0
-0.146755 -0.010585 0
-0.158438 -0.0107179 0
-0.169658 -0.0102746 0
-0.180145 -0.00914883 0
-0.189563 -0.00724849 0
-0.19752 -0.00450325 0
-0.203584 -0.000872309 0
-0.207309 0.003648 0
-0.208258 0.00901777 0
-0.206034 0.0151491 0
-0.200309 0.0219046 0
-0.190847 0.0290994 0
-0.177519 0.0365065 0
-0.160311 0.043865 0
-0.139309 0.0508911 0
-0.114675 0.057289 0
-0.0866014 0.0627611 0
-0.0552477 0.0670171 0
-0.0206608 0.0697806 0
0.0173271 0.0707955 0
0.0592189 0.0698358 0
0.105988 0.0667241 0
0.159214 0.0613662 0
0.221172 0.0538093 0
0.294805 0.0443243 0
0.383449 0.0335023 0
0.490183 0.0223302 0
0.616685 0.0121804 0
0.761699 0.00460935 0
0.919603 0.000832183 0
-0.00896168 -0.00233869 0
-0.0269584 -0.00507091 0
-0.0428796 -0.00611704 0
-0.0573343 -0.00764446 0
-0.070799 -0.00957166 0
-0.0836422 -0.0118048 0
-0.0961408 -0.0142428 0
-0.10849 -0.0167792 0
-0.120806 -0.0193021 0
-0.133132 -0.0216937 0
-0.14543 -0.0238311 0
-0.157583 -0.0255864 0
-0.169396 -0.0268299 0
-0.180592 -0.0274342 0
-0.190819 -0.0272797 0
-0.199665 -0.0262622 0
-0.206667 -0.0243016 0
-0.211341 -0.0213505 0
-0.213203 -0.0174028 0
-0.211808 -0.0125011 0