# vtk DataFile Version 2.0
Presion
ASCII

DATASET STRUCTURED_GRID
DIMENSIONS   40   40   20

POINTS   32000   double
0.0125   0.0125   0.025
0.0375   0.0125   0.025
0.0625   0.0125   0.025
0.0875   0.0125   0.025
0.1125   0.0125   0.025
0.1375   0.0125   0.025
0.1625   0.0125   0.025
0.1875   0.0125   0.025
0.2125   0.0125   0.025
0.2375   0.0125   0.025
0.2625   0.0125   0.025
0.2875   0.0125   0.025
0.3125   0.0125   0.025
0.3375   0.0125   0.025
0.3625   0.0125   0.025
0.3875   0.0125   0.025
0.4125   0.0125   0.025
0.4375   0.0125   0.025
0.4625   0.0125   0.025
0.4875   0.0125   0.025
0.5125   0.0125   0.025
0.5375   0.0125   0.025
0.5625   0.0125   0.025
0.5875   0.0125   0.025
0.6125   0.0125   0.025
0.6375   0.0125   0.025
0.6625   0.0125   0.025
0.6875   0.0125   0.025
0.7125   0.0125   0.025
0.7375   0.0125   0.025
0.7625   0.0125   0.025
0.7875   0.0125   0.025
0.8125   0.0125   0.025
0.8375   0.0125   0.025
0.8625   0.0125   0.025
0.8875   0.0125   0.025
0.9125   0.0125   0.025
0.9375   0.0125   0.025
0.9625   0.0125   0.025
0.9875   0.0125   0.025
0.0125   0.0375   0.025
0.0375   0.0375   0.025
0.0625   0.0375   0.025
0.0875   0.0375   0.025
0.1125   0.0375   0.025
0.1375   0.0375   0.025
0.1625   0.0375   0.025
0.1875   0.0375   0.025
0.2125   0.0375   0.025
0.2375   0.0375   0.025
0.2625   0.0375   0.025
0.2875   0.0375   0.025
0.3125   0.0375   0.025
0.3375   0.0375   0.025
0.3625   0.0375   0.025
0.3875   0.0375   0.025
0.4125   0.0375   0.025
0.4375   0.0375   0.025
0.4625   0.0375   0.025
0.4875   0.0375   0.025
0.5125   0.0375   0.025
0.5375   0.0375   0.025
0.5625   0.0375   0.025
0.5875   0.0375   0.025
0.6125   0.0375   0.025
0.6375   0.0375   0.025
0.6625   0.0375   0.025
0.6875   0.0375   0.025
0.7125   0.0375   0.025
0.7375   0.0375   0.025
0.7625   0.0375   0.025
0.7875   0.0375   0.025
0.8125   0.0375   0.025
0.8375   0.0375   0.025
0.8625   0.0375   0.025
0.8875   0.0375   0.025
0.9125   0.0375   0.025
0.9375   0.0375   0.025
0.9625   0.0375   0.025
0.9875   0.0375   0.025
0.0125   0.0625   0.025
0.0375   0.0625   0.025
0.0625   0.0625   0.025
0.0875   0.0625   0.025
0.1125   0.0625   0.025
0.1375   0.0625   0.025
0.1625   0.0625   0.025
0.1875   0.0625   0.025
0.2125   0.0625   0.025
0.2375   0.0625   0.025
0.2625   0.0625   0.025
0.2875   0.0625   0.025
0.3125   0.0625   0.025
0.3375   0.0625   0.025
0.3625   0.0625   0.025
0.3875   0.0625   0.025
0.4125   0.0625   0.025
0.4375   0.0625   0.025
0.4625   0.0625   0.025
0.4875   0.0625   0.025
0.5125   0.0625   0.025
0.5375   0.0625   0.025
0.5625   0.0625   0.025
0.5875   0.0625   0.025
0.6125   0.0625   0.025
0.6375   0.0625   0.025
0.6625   0.0625   0.025
0.6875   0.0625   0.025
0.7125   0.0625   0.025
0.7375   0.0625   0.025
0.7625   0.0625   0.025
0.7875   0.0625   0.025
0.8125   0.0625   0.025
0.8375   0.0625   0.025
0.8625   0.0625   0.025
0.8875   0.0625   0.025
0.9125   0.0625   0.025
0.9375   0.0625   0.025
0.9625   0.0625   0.025
0.9875   0.0625   0.025
0.0125   0.0875   0.025
0.0375   0.0875   0.025
0.0625   0.0875   0.025
0.0875   0.0875   0.025
0.1125   0.0875   0.025
0.1375   0.0875   0.025
0.1625   0.0875   0.025
0.1875   0.0875   0.025
0.2125   0.0875   0.025
0.2375   0.0875   0.025
0.2625   0.0875   0.025
0.2875   0.0875   0.025
0.3125   0.0875   0.025
0.3375   0.0875   0.025
0.3625   0.0875   0.025
0.3875   0.0875   0.025
0.4125   0.0875   0.025
0.4375   0.0875   0.025
0.4625   0.0875   0.025
0.4875   0.0875   0.025
0.5125   0.0875   0.025
0.5375   0.0875   0.025
0.5625   0.0875   0.025
0.5875   0.0875   0.025
0.6125   0.0875   0.025
0.6375   0.0875   0.025
0.6625   0.0875   0.025
0.6875   0.0875   0.025
0.7125   0.0875   0.025
0.7375   0.0875   0.025
0.7625   0.0875   0.025
0.7875   0.0875   0.025
0.8125   0.0875   0.025
0.8375   0.0875   0.025
0.8625   0.0875   0.025
0.8875   0.0875   0.025
0.9125   0.0875   0.025
0.9375   0.0875   0.025
0.9625   0.0875   0.025
0.9875   0.0875   0.025
0.0125   0.1125   0.025
0.0375   0.1125   0.025
0.0625   0.1125   0.025
0.0875   0.1125   0.025
0.1125   0.1125   0.025
0.1375   0.1125   0.025
0.1625   0.1125   0.025
0.1875   0.1125   0.025
0.2125   0.1125   0.025
0.2375   0.1125   0.025
0.2625   0.1125   0.025
0.2875   0.1125   0.025
0.3125   0.1125   0.025
0.3375   0.1125   0.025
0.3625   0.1125   0.025
0.3875   0.1125   0.025
0.4125   0.1125   0.025
0.4375   0.1125   0.025
0.4625   0.1125   0.025
0.4875   0.1125   0.025
0.5125   0.1125   0.025
0.5375   0.1125   0.025
0.5625   0.1125   0.025
0.5875   0.1125   0.025
0.6125   0.1125   0.025
0.6375   0.1125   0.025
0.6625   0.1125   0.025
0.6875   0.1125   0.025
0.7125   0.1125   0.025
0.7375   0.1125   0.025
0.7625   0.1125   0.025
0.7875   0.1125   0.025
0.8125   0.1125   0.025
0.8375   0.1125   0.025
0.8625   0.1125   0.025
0.8875   0.1125   0.025
0.9125   0.1125   0.025
0.9375   0.1125   0.025
0.9625   0.1125   0.025
0.9875   0.1125   0.025
0.0125   0.1375   0.025
0.0375   0.1375   0.025
0.0625   0.1375   0.025
0.0875   0.1375   0.025
0.1125   0.1375   0.025
0.1375   0.1375   0.025
0.1625   0.1375   0.025
0.1875   0.1375   0.025
0.2125   0.1375   0.025
0.2375   0.1375   0.025
0.2625   0.1375   0.025
0.2875   0.1375   0.025
0.3125   0.1375   0.025
0.3375   0.1375   0.025
0.3625   0.1375   0.025
0.3875   0.1375   0.025
0.4125   0.1375   0.025
0.4375   0.1375   0.025
0.4625   0.1375   0.025
0.4875   0.1375   0.025
0.5125   0.1375   0.025
0.5375   0.1375   0.025
0.5625   0.1375   0.025
0.5875   0.1375   0.025
0.6125   0.1375   0.025
0.6375   0.1375   0.025
0.6625   0.1375   0.025
0.6875   0.1375   0.025
0.7125   0.1375   0.025
0.7375   0.1375   0.025
0.7625   0.1375   0.025
0.7875   0.1375   0.025
0.8125   0.1375   0.025
0.8375   0.1375   0.025
0.8625   0.1375   0.025
0.8875   0.1375   0.025
0.9125   0.1375   0.025
0.9375   0.1375   0.025
0.9625   0.1375   0.025
0.9875   0.1375   0.025
0.0125   0.1625   0.025
0.0375   0.1625   0.025
0.0625   0.1625   0.025
0.0875   0.1625   0.025
0.1125   0.1625   0.025
0.1375   0.1625   0.025
0.1625   0.1625   0.025
0.1875   0.1625   0.025
0.2125   0.1625   0.025
0.2375   0.1625   0.025
0.2625   0.1625   0.025
0.2875   0.1625   0.025
0.3125   0.1625   0.025
0.3375   0.1625   0.025
0.3625   0.1625   0.025
0.3875   0.1625   0.025
0.4125   0.1625   0.025
0.4375   0.1625   0.025
0.4625   0.1625   0.025
0.4875   0.1625   0.025
0.5125   0.1625   0.025
0.5375   0.1625   0.025
0.5625   0.1625   0.025
0.5875   0.1625   0.025
0.6125   0.1625   0.025
0.6375   0.1625   0.025
0.6625   0.1625   0.025
0.6875   0.1625   0.025
0.7125   0.1625   0.025
0.7375   0.1625   0.025
0.7625   0.1625   0.025
0.7875   0.1625   0.025
0.8125   0.1625   0.025
0.8375   0.1625   0.025
0.8625   0.1625   0.025
0.8875   0.1625   0.025
0.9125   0.1625   0.025
0.9375   0.1625   0.025
0.9625   0.1625   0.025
0.9875   0.1625   0.025
0.0125   0.1875   0.025
0.0375   0.1875   0.025
0.0625   0.1875   0.025
0.0875   0.1875   0.025
0.1125   0.1875   0.025
0.1375   0.1875   0.025
0.1625   0.1875   0.025
0.1875   0.1875   0.025
0.2125   0.1875   0.025
0.2375   0.1875   0.025
0.2625   0.1875   0.025
0.2875   0.1875   0.025
0.3125   0.1875   0.025
0.3375   0.1875   0.025
0.3625   0.1875   0.025
0.3875   0.1875   0.025
0.4125   0.1875   0.025
0.4375   0.1875   0.025
0.4625   0.1875   0.025
0.4875   0.1875   0.025
0.5125   0.1875   0.025
0.5375   0.1875   0.025
0.5625   0.1875   0.025
0.5875   0.1875   0.025
0.6125   0.1875   0.025
0.6375   0.1875   0.025
0.6625   0.1875   0.025
0.6875   0.1875   0.025
0.7125   0.1875   0.025
0.7375   0.1875   0.025
0.7625   0.1875   0.025
0.7875   0.1875   0.025
0.8125   0.1875   0.025
0.8375   0.1875   0.025
0.8625   0.1875   0.025
0.8875   0.1875   0.025
0.9125   0.1875   0.025
0.9375   0.1875   0.025
0.9625   0.1875   0.025
0.9875   0.1875   0.025
0.0125   0.2125   0.025
0.0375   0.2125   0.025
0.0625   0.2125   0.025
0.0875   0.2125   0.025
0.1125   0.2125   0.025
0.1375   0.2125   0.025
0.1625   0.2125   0.025
0.1875   0.2125   0.025
0.2125   0.2125   0.025
0.2375   0.2125   0.025
0.2625   0.2125   0.025
0.2875   0.2125   0.025
0.3125   0.2125   0.025
0.3375   0.2125   0.025
0.3625   0.2125   0.025
0.3875   0.2125   0.025
0.4125   0.2125   0.025
0.4375   0.2125   0.025
0.4625   0.2125   0.025
0.4875   0.2125   0.025
0.5125   0.2125   0.025
0.5375   0.2125   0.025
0.5625   0.2125   0.025
0.5875   0.2125   0.025
0.6125   0.2125   0.025
0.6375   0.2125   0.025
0.6625   0.2125   0.025
0.6875   0.2125   0.025
0.7125   0.2125   0.025
0.7375   0.2125   0.025
0.7625   0.2125   0.025
0.7875   0.2125   0.025
0.8125   0.2125   0.025
0.8375   0.2125   0.025
0.8625   0.2125   0.025
0.8875   0.2125   0.025
0.9125   0.2125   0.025
0.9375   0.2125   0.025
0.9625   0.2125   0.025
0.9875   0.2125   0.025
0.0125   0.2375   0.025
0.0375   0.2375   0.025
0.0625   0.2375   0.025
0.0875   0.2375   0.025
0.1125   0.2375   0.025
0.1375   0.2375   0.025
0.1625   0.2375   0.025
0.1875   0.2375   0.025
0.2125   0.2375   0.025
0.2375   0.2375   0.025
0.2625   0.2375   0.025
0.2875   0.2375   0.025
0.3125   0.2375   0.025
0.3375   0.2375   0.025
0.3625   0.2375   0.025
0.3875   0.2375   0.025
0.4125   0.2375   0.025
0.4375   0.2375   0.025
0.4625   0.2375   0.025
0.4875   0.2375   0.025
0.5125   0.2375   0.025
0.5375   0.2375   0.025
0.5625   0.2375   0.025
0.5875   0.2375   0.025
0.6125   0.2375   0.025
0.6375   0.2375   0.025
0.6625   0.2375   0.025
0.6875   0.2375   0.025
0.7125   0.2375   0.025
0.7375   0.2375   0.025
0.7625   0.2375   0.025
0.7875   0.2375   0.025
0.8125   0.2375   0.025
0.8375   0.2375   0.025
0.8625   0.2375   0.025
0.8875   0.2375   0.025
0.9125   0.2375   0.025
0.9375   0.2375   0.025
0.9625   0.2375   0.025
0.9875   0.2375   0.025
0.0125   0.2625   0.025
0.0375   0.2625   0.025
0.0625   0.2625   0.025
0.0875   0.2625   0.025
0.1125   0.2625   0.025
0.1375   0.2625   0.025
0.1625   0.2625   0.025
0.1875   0.2625   0.025
0.2125   0.2625   0.025
0.2375   0.2625   0.025
0.2625   0.2625   0.025
[...]
POINT_DATA   32000
SCALARS Presion double
LOOKUP_TABLE   Presion

0 0 0 0 0 0 0 0 0 0 0 0 0 0 0 0 0 0 0 0 0 0 0 0 0 0 0 0 0 0 0 0 0 0 0 0 0 0 0 0 -0.00201005 -0.00238784 -0.0030293 -0.0037633 -0.00451096 -0.00522118 -0.00585648 -0.00638904 -0.00679878 -0.00707184 -0.00719932 -0.00717627 -0.00700108 -0.00667511 -0.00620258 -0.00559065 -0.00484958 -0.00399283 -0.00303712 -0.00200238 -0.000911407 0.000210515 0.0013363 0.00243781 0.0034868 0.00445585 0.00531937 0.0060546 0.0066425 0.00706863 0.00732393 0.00740528 0.00731598 0.00706589 0.00667112 0.00615334 0.00553883 0.00485996 0.00417252 0.00366202 -0.00217786 -0.00239781 -0.00290077 -0.00354183 -0.00422967 -0.00490353 -0.00552085 -0.00605121 -0.00647294 -0.0067709 -0.00693501 -0.00695913 -0.00684038 -0.00657879 -0.0061771 -0.00564082 -0.00497835 -0.00420104 -0.00332329 -0.00236251 -0.00133889 -0.000275097 0.000804223 0.00187309 0.00290496 0.00387352 0.00475368 0.00552243 0.00615988 0.00665012 0.00698215 0.00715068 0.00715684 0.00700877 0.00672212 0.00632092 0.00583957 0.0053294 0.00487886 0.00467066 -0.00185785 -0.00214433 -0.00264233 -0.00326163 -0.00392924 -0.00459054 -0.00520548 -0.00574492 -0.00618783 -0.00651917 -0.00672846 -0.00680871 -0.00675583 -0.00656823 -0.00624677 -0.00579472 -0.005218 -0.00452524 -0.003728 -0.00284075 -0.00188086 -0.000868402 0.000174196 0.00122262 0.00225133 0.0032343 0.00414592 0.00496199 0.00566075 0.00622399 0.00663811 0.00689519 0.00699388 0.00694032 0.00674903 0.00644405 0.00606129 0.00565342 0.00530094 0.00513105 -0.00126702 -0.00169986 -0.00227149 -0.00292665 -0.00361341 -0.00428914 -0.00492087 -0.00548381 -0.00595951 -0.0063343 -0.00659805 -0.00674334 -0.00676492 -0.00665954 -0.00642582 -0.0060645 -0.00557856 -0.00497355 -0.00425781 -0.00344269 -0.00254262 -0.00157512 -0.000560629 0.000477862 0.0015153 0.00252532 0.00348109 0.00435645 0.005127 0.00577148 0.00627296 0.00662019 0.00680871 0.0068419 0.00673192 0.00650079 0.0061819 0.00582269 0.00548901 0.00526888 -0.000546357 -0.00114853 -0.00183253 -0.00256106 -0.00329802 -0.00401266 -0.00468039 -0.00528221 -0.00580346 -0.00623266 -0.00656064 -0.00677983 -0.00688402 -0.00686821 -0.00672873 -0.00646351 -0.00607242 -0.00555767 -0.00492421 -0.00418008 -0.00333674 -0.00240916 -0.00141589 -0.000378822 0.000677195 0.00172504 0.00273621 0.00368197 0.00453465 0.00526916 0.00586451 0.00630527 0.00658301 0.00669743 0.00665736 0.00648158 0.00619967 0.00585312 0.00549649 0.00519645 0.000206668 -0.000565414 -0.00137713 -0.00219982 -0.00300804 -0.00378074 -0.00450123 -0.00515643 -0.0057358 -0.00623046 -0.00663245 -0.00693433 -0.00712897 -0.00720972 -0.00717055 -0.00700655 -0.00671433 -0.00629265 -0.00574293 -0.00506982 -0.00428166 -0.00339085 -0.00241399 -0.00137192 -0.000289355 0.000805643 0.00188258 0.00290972 0.00385553 0.0046904 0.00538836 0.00592893 0.00629868 0.00649273 0.00651574 0.00638269 0.00611935 0.00576263 0.00536037 0.00496955 0.000919305 -1.43911e-05 -0.000956269 -0.00188217 -0.00277389 -0.00361792 -0.00440426 -0.00512516 -0.00577404 -0.00634453 -0.00682996 -0.00722303 -0.00751584 -0.00770008 -0.00776744 -0.00771011 -0.00752146 -0.00719669 -0.0067336 -0.00613331 -0.00540088 -0.00454592 -0.00358295 -0.00253154 -0.00141619 -0.000265903 0.000886712 0.0020066 0.00305786 0.00400557 0.00481792 0.00546825 0.00593709 0.00621391 0.00629842 0.00620146 0.00594541 0.00556417 0.00510266 0.00461506 0.00153346 0.000450042 -0.000617451 -0.00164792 -0.00262856 -0.0035518 -0.00441315 -0.0052094 -0.00593735 -0.00659287 -0.00717042 -0.00766284 -0.00806143 -0.00835631 -0.00853689 -0.00859255 -0.00851335 -0.00829092 -0.00791931 -0.00739589 -0.0067222 -0.00590475 -0.00495558 -0.00389267 -0.00274002 -0.00152734 -0.00028935 0.000935375 0.00210607 0.0031818 0.00412385 0.00489819 0.00547801 0.00584596 0.00599586 0.00593397 0.00567956 0.00526489 0.00473457 0.0041442 0.00200036 0.000780632 -0.00040407 -0.00153554 -0.00260554 -0.00361149 -0.0045534 -0.00543182 -0.00624635 -0.00699467 -0.00767214 -0.0082716 -0.00878355 -0.00919656 -0.00949785 -0.00967398 -0.00971173 -0.00959907 -0.00932611 -0.00888624 -0.0082771 -0.00750161 -0.00656885 -0.00549464 -0.00430196 -0.00302087 -0.00168801 -0.000345531 0.000960521 0.00218242 0.00327342 0.00419078 0.00489881 0.00537184 0.00559663 0.00557414 0.00532051 0.00486716 0.00426024 0.00355931 0.00227759 0.000935785 -0.000355489 -0.00158123 -0.00273756 -0.00382628 -0.00485126 -0.00581612 -0.00672268 -0.00757009 -0.00835428 -0.00906798 -0.00970087 -0.01024 -0.0106704 -0.0109759 -0.0111399 -0.0111467 -0.0109822 -0.0106355 -0.0100998 -0.00937384 -0.00846305 -0.00738037 -0.00614703 -0.00479284 -0.00335597 -0.00188209 -0.000422828 0.000966528 0.00223003 0.0033146 0.00417388 0.00477204 0.00508716 0.00511378 0.00486443 0.00437007 0.00367944 0.00285781 0.00232766 0.000878566 -0.000507264 -0.00181853 -0.00305572 -0.00422472 -0.00533278 -0.00638611 -0.00738833 -0.00833963 -0.00923637 -0.010071 -0.0108324 -0.0115061 -0.012075 -0.0125202 -0.0128218 -0.0129602 -0.0129168 -0.0126759 -0.0122258 -0.0115604 -0.0106805 -0.00959522 -0.00832312 -0.00689294 -0.00534373 -0.00372441 -0.00209235 -0.000511118 0.000952867 0.00223442 0.00327435 0.00402439 0.00445178 0.00454295 0.00430589 0.00377088 0.00298988 0.0020349 0.0021172 0.000576152 -0.000891285 -0.00227798 -0.00358889 -0.00483377 -0.00602297 -0.00716493 -0.00826473 -0.00932339 -0.0103375 -0.0112993 -0.0121966 -0.0130137 -0.0137315 -0.0143282 -0.0147807 -0.015065 -0.0151582 -0.015039 -0.0146903 -0.0141001 -0.0132636 -0.0121851 -0.0108793 -0.00937269 -0.00770432 -0.00592578 -0.00410014 -0.00229979 -0.000602899 0.000911268 0.00216816 0.00310422 0.00367308 0.00385072 0.00363892 0.00306661 0.00218904 0.00108565 0.00161678 -3.53445e-07 -0.00153579 -0.00298693 -0.0043632 -0.00567815 -0.00694497 -0.00817408 -0.00937185 -0.01054 -0.0116753 -0.0127696 -0.0138102 -0.0147798 -0.0156573 -0.0164185 -0.0170367 -0.0174837 -0.0177315 -0.0177531 -0.017525 -0.0170284 -0.0162521 -0.0151938 -0.0138632 -0.012283 -0.0104911 -0.00854083 -0.00650049 -0.00445163 -0.00248535 -0.000697059 0.000820425 0.00198484 0.00273259 0.00302599 0.00285823 0.00225552 0.00127607 7.05918e-06 0.000801002 -0.000875873 -0.00246524 -0.00396921 -0.00540165 -0.00677969 -0.00811922 -0.0094325 -0.0107271 -0.0120054 -0.0132643 -0.0144957 -0.0156861 -0.016817 -0.0178656 -0.018805 -0.0196049 -0.020233 -0.0206556 -0.0208399 -0.0207548 -0.0203743 -0.0196789 -0.0186589 -0.0173169 -0.0156704 -0.0137543 -0.0116223 -0.00934721 -0.00701948 -0.0047441 -0.00263469 -0.000805518 0.00063835 0.00161163 0.00205865 0.00196061 0.00133885 0.000253681 -0.00119996 -0.000351217 -0.00207115 -0.00370014 -0.00524494 -0.00672365 -0.00815678 -0.00956274 -0.0109556 -0.0123441 -0.0137315 -0.0151151 -0.0164866 -0.0178322 -0.0191325 -0.0203629 -0.021494 -0.0224923 -0.0233207 -0.0239401 -0.0243107 -0.0243941 -0.0241554 -0.0235659 -0.0226068 -0.021272 -0.0195718 -0.0175359 -0.0152166 -0.0126894 -0.0100533 -0.00742744 -0.00494544 -0.00274639 -0.000962848 0.000292677 0.000940991 0.000946576 0.000322713 -0.000869675 -0.00252828 -0.0018562 -0.00360246 -0.00525676 -0.00683019 -0.00834464 -0.00982374 -0.0112883 -0.0127543 -0.0142317 -0.0157248 -0.0172317 -0.0187444 -0.0202488 -0.0217248 -0.0231465 -0.024482 -0.0256945 -0.0267424 -0.0275808 -0.0281628 -0.0284417 -0.0283731 -0.0279182 -0.0270473 -0.0257437 -0.0240083 -0.0218635 -0.0193572 -0.0165658 -0.013595 -0.0105778 -0.00766916 -0.00503611 -0.00284386 -0.00123869 -0.000330402 -0.000177595 -0.000779613 -0.00207735 -0.00396193 -0.0037251 -0.00548136 -0.00714702 -0.00873678 -0.0102758 -0.0117904 -0.0133038 -0.0148339 -0.0163926 -0.0179852 -0.0196111 -0.0212629 -0.0229268 -0.0245823 -0.0262022 -0.0277525 -0.0291932 -0.0304782 -0.0315568 -0.0323748 -0.0328766 -0.0330079 -0.0327185 -0.0319667 -0.0307236 -0.028978 -0.0267423 -0.0240573 -0.0209971 -0.0176714 -0.0142257 -0.0108366 -0.00770163 -0.00502393 -0.00299107 -0.00175218 -0.00139735 -0.001945 -0.00334154 -0.00547301 -0.00596355 -0.00771451 -0.00937831 -0.0109722 -0.0125238 -0.0140618 -0.0156117 -0.0171939 -0.0188222 -0.0205043 -0.0222408 -0.0240258 -0.0258459 -0.0276808 -0.0295021 -0.0312742 -0.0329537 -0.0344903 -0.0358275 -0.0369036 -0.0376543 -0.0380146 -0.0379225 -0.037323 -0.0361733 -0.0344483 -0.0321475 -0.0293011 -0.025977 -0.0222855 -0.0183817 -0.0144622 -0.0107571 -0.00751178 -0.00496344 -0.00331095 -0.0026867 -0.00313719 -0.00461984 -0.007018 -0.00857147 -0.0103037 -0.0119537 -0.0135397 -0.0150908 -0.0166376 -0.0182084 -0.0198263 -0.0215083 -0.0232645 -0.0250983 -0.0270053 -0.0289734 -0.0309824 -0.0330034 -0.0349991 -0.0369232 -0.0387211 -0.0403306 -0.0416828 -0.0427045 -0.0433199 -0.0434549 -0.0430407 -0.0420194 -0.0403501 -0.0380165 -0.0350352 -0.0314634 -0.0274072 -0.0230266 -0.0185357 -0.014196 -0.0102993 -0.00714011 -0.00497901 -0.00400435 -0.00430283 -0.00585101 -0.00853343 -0.0115431 -0.013246 -0.0148722 -0.0164388 -0.0179748 -0.0195129 -0.0210843 -0.0227161 -0.0244296 -0.0262387 -0.02815 -0.0301616 -0.0322631 -0.0344349 -0.0366478 -0.0388628 -0.0410309 -0.0430934 -0.0449824 -0.0466222 -0.0479306 -0.0488217 -0.049209 -0.0490097 -0.0481503 -0.0465729 -0.0442437 -0.0411616 -0.0373694 -0.0329632 -0.0281019 -0.0230116 -0.0179823 -0.0133536 -0.00948407 -0.00670891 -0.00528877 -0.00536669 -0.00695011 -0.00993073 -0.0148675 -0.0165347 -0.0181298 -0.0196656 -0.02117 -0.0226774 -0.0242234 -0.0258406 -0.027556 -0.0293891 -0.0313507 -0.0334424 -0.0356558 -0.0379722 -0.0403622 -0.0427851 -0.0451892 -0.0475119 -0.0496798 -0.0516103 -0.0532129 -0.0543917 -0.0550485 -0.0550868 -0.0544175 -0.0529655 -0.0506778 -0.0475338 -0.0435573 -0.0388288 -0.033499 -0.0277984 -0.0220396 -0.0166071 -0.0119289 -0.00842667 -0.00645234 -0.00622602 -0.00780262 -0.0110902 -0.018529 -0.0201601 -0.0217202 -0.0232145 -0.0246678 -0.026117 -0.027604 -0.0291694 -0.0308483 -0.0326677 -0.0346442 -0.0367836 -0.03908 -0.0415156 -0.0440606 -0.0466727 -0.0492973 -0.0518674 -0.0543044 -0.0565192 -0.0584132 -0.059881 -0.0608134 -0.0611013 -0.0606406 -0.0593393 -0.0571253 -0.0539571 -0.0498364 -0.0448232 -0.0390525 -0.0327495 -0.02624 -0.0199475 -0.0143691 -0.0100235 -0.00737412 -0.00674375 -0.00825765 -0.0118541 -0.0225092 -0.0241116 -0.0256375 -0.0270792 -0.0284576 -0.0298136 -0.0311984 -0.0326645 -0.0342585 -0.036017 -0.0379643 -0.040111 -0.0424541 -0.0449766 -0.0476479 -0.0504235 -0.0532453 -0.056042 -0.0587295 -0.061212 -0.0633832 -0.065129 -0.0663299 -0.0668651 -0.0666171 -0.0654782 -0.0633582 -0.0601949 -0.0559669 -0.0507097 -0.0445357 -0.0376552 -0.030395 -0.023206 -0.0166493 -0.0113463 -0.00789147 -0.00674057 -0.00811991 -0.0120185 -0.0267885 -0.0283801 -0.0298778 -0.0312553 -0.0325287 -0.0337463 -0.0349738 -0.0362808 -0.0377298 -0.0393703 -0.0412356 -0.0433421 -0.0456894 -0.0482608 -0.0510241 -0.0539317 -0.0569214 -0.0599168 -0.0628276 -0.0655514 -0.0679744 -0.0699741 -0.0714215 -0.0721852 -0.072136 -0.0711523 -0.0691279 -0.0659816 -0.0616696 -0.0562019 -0.0496637 -0.042241 -0.034248 -0.0261479 -0.0185532 -0.0121867 -0.00779016 -0.00598559 -0.00714021 -0.0113236 -0.0313496 -0.0329621 -0.0344438 -0.0357429 -0.0368717 -0.0378921 -0.0388924 -0.0399664 -0.0411981 -0.0426534 -0.0443763 -0.0463892 -0.0486938 -0.0512724 -0.05409 -0.0570945 -0.0602183 -0.0633789 -0.0664794 -0.0694099 -0.072049 -0.0742658 -0.0759226 -0.0768784 -0.0769935 -0.0761346 -0.0741824 -0.0710395 -0.0666426 -0.060978 -0.0541022 -0.0461708 -0.0374728 -0.0284651 -0.0197928 -0.0122697 -0.0067931 -0.00418537 -0.00500424 -0.00944268 -0.0361824 -0.0378653 -0.0393494 -0.0405501 -0.0414804 -0.0422265 -0.0429111 -0.0436623 -0.0445922 -0.0457864 -0.047301 -0.0491638 -0.0513769 -0.0539202 -0.0567536 -0.0598188 -0.0630412 -0.0663307 -0.0695826 -0.0726788 -0.0754898 -0.077876 -0.0796911 -0.080785 -0.0810085 -0.0802187 -0.0782855 -0.0750993 -0.070582 -0.0647 -0.0574844 -0.0490586 -0.0396773 -0.0297734 -0.0200003 -0.0112415 -0.0045476 -0.000970786 -0.00131858 -0.00596752 -0.0412916 -0.0431176 -0.0446271 -0.0456976 -0.0463538 -0.0467238 -0.0469821 -0.0473034 -0.0478353 -0.0486862 -0.049924 -0.0515804 -0.0536554 -0.0561234 -0.0589366 -0.0620283 -0.0653148 -0.0686965 -0.0720595 -0.0752768 -0.0782093 -0.0807085 -0.0826186 -0.0837807 -0.0840366 -0.0832344 -0.0812356 -0.0779219 -0.073205 -0.0670387 -0.0594346 -0.0504883 -0.0404174 -0.0296169 -0.018723 -0.00865869 -0.000610875 0.00411901 0.00440718 -0.000390179 -0.0467097 -0.0487803 -0.0503387 -0.0512249 -0.0514982 -0.0513574 -0.0510521 -0.0508187 -0.0508472 -0.0512698 -0.0521646 -0.0535629 -0.0554591 -0.0578181 -0.0605811 -0.06367 -0.0669894 -0.0704287 -0.0738632 -0.0771551 -0.0801552 -0.0827045 -0.0846374 -0.0857849 -0.0859793 -0.0850601 -0.0828808 -0.0793166 -0.0742739 -0.0676999 -0.0595965 -0.0500405 -0.0392179 -0.0274803 -0.0154251 -0.00397931 0.00556606 0.011657 0.0127847 0.00792327 -0.0525182 -0.0549709 -0.0565912 -0.0571982 -0.0569297 -0.0560993 -0.0550625 -0.054133 -0.0535474 -0.0534597 -0.0539525 -0.0550511 -0.0567381 -0.058964 -0.0616553 -0.064719 -0.0680458 -0.0715119 -0.0749801 -0.0783007 -0.0813127 -0.0838458 -0.0857229 -0.0867636 -0.0867896 -0.0856299 -0.0831295 -0.0791573 -0.073616 -0.0664517 -0.0576655 -0.0473281 -0.0356064 -0.0228142 -0.00949861 0.00344198 0.0146564 0.0223557 0.0245821 0.0197723 -0.0588867 -0.0618982 -0.0635599 -0.0637204 -0.0626761 -0.0609202 -0.0589502 -0.0571699 -0.0558605 -0.05519 -0.0552355 -0.0560072 -0.0574684 -0.0595496 -0.0621577 -0.065182 -0.0684967 -0.0719632 -0.0754301 -0.0787347 -0.081703 -0.084152 -0.0858917 -0.0867287 -0.0864713 -0.0849362 -0.0819568 -0.0773931 -0.0711425 -0.0631511 -0.0534246 -0.0420389 -0.0291586 -0.0150755 -0.000290215 0.0143488 0.0274758 0.0371044 0.0407772 0.0361868 -0.0661419 -0.0699237 -0.0715237 -0.070945 -0.0687803 -0.0657902 -0.0626503 -0.0598567 -0.0577232 -0.0564144 -0.0559866 -0.0564227 -0.0576576 -0.0595953 -0.0621189 -0.065097 -0.0683856 -0.0718297 -0.0752629 -0.0785083 -0.0813784 -0.0836761 -0.0851971 -0.0857332 -0.085077 -0.0830294 -0.0794077 -0.0740576 -0.0668653 -0.0577717 -0.0467844 -0.0339894 -0.0195619 -0.00379248 0.0128466 0.0295589 0.0449965 0.0570211 0.0626433 0.0585388 -0.0748977 -0.0796623 -0.0809156 -0.0790905 -0.0753 -0.0706778 -0.0660984 -0.0621309 -0.059091 -0.0571124 -0.0562089 -0.0563208 -0.0573446 -0.0591516 -0.0615976 -0.0645282 -0.0677801 -0.071181 -0.0745496 -0.0776944 -0.0804137 -0.082496 -0.0837219 -0.0838665 -0.0827048 -0.0800176 -0.0756012 -0.0692791 -0.060916 -0.0504346 -0.0378317 -0.0231925 -0.00670287 0.0113354 0.0304565 0.0498992 0.0683414 0.083521 0.091888 0.088747 -0.0863059 -0.0921528 -0.0923885 -0.0884484 -0.0822996 -0.0755435 -0.0692283 -0.0639387 -0.0599378 -0.057287 -0.0559304 -0.0557487 -0.0565901 -0.0582879 -0.0606682 -0.0635527 -0.0667584 -0.0700967 -0.0733712 -0.0763765 -0.0788973 -0.0807077 -0.081573 -0.0812512 -0.0794976 -0.0760703 -0.0707388 -0.0632957 -0.0535704 -0.0414477 -0.0268873 -0.00994435 0.00921306 0.0302873 0.0528168 0.076063 0.0987193 0.118387 0.130879 0.129655 -0.102562 -0.109133 -0.106876 -0.0993559 -0.0898091 -0.0803037 -0.0719429 -0.06521 -0.0602304 -0.0569391 -0.0551783 -0.0547515 -0.0554506 -0.0570672 -0.059397 -0.0622383 -0.06539 -0.0686481 -0.0718031 -0.0746371 -0.0769221 -0.0784197 -0.0788803 -0.0780456 -0.0756509 -0.0714297 -0.0651209 -0.0564777 -0.04528 -0.0313507 -0.0145756 0.00507243 0.0275077 0.0525055 0.0796677 0.108323 0.137214 0.16378 0.182992 0.185736 -0.12798 -0.133443 -0.125565 -0.112055 -0.0976802 -0.0847073 -0.0740095 -0.065769 -0.0598523 -0.0560001 -0.0539186 -0.0533186 -0.05393 -0.0555029 -0.057804 -0.0606111 -0.0637077 -0.0668775 -0.0699 -0.0725476 -0.0745822 -0.0757547 -0.0758036 -0.0744559 -0.0714286 -0.0664313 -0.0591709 -0.0493562 -0.0367063 -0.0209598 -0.00188856 0.0206839 0.0468568 0.0766191 0.109807 0.14601 0.184255 0.221995 0.253048 0.264388 -0.171448 -0.169435 -0.149521 -0.126211 -0.105161 -0.0879955 -0.0748006 -0.0651389 -0.0584528 -0.0542126 -0.0519586 -0.0513016 -0.0519114 -0.0535017 -0.0558163 -0.0586182 -0.0616802 -0.064778 -0.0676844 -0.0701652 -0.0719761 -0.0728606 -0.0725487 -0.0707566 -0.0671868 -0.0615287 -0.0534596 -0.0426453 -0.0287402 -0.0113868 0.00978635 0.0351664 0.0651548 0.100157 0.140559 0.186671 0.23848 0.294445 0.347582 0.378286 -0.252265 -0.222589 -0.178107 -0.139426 -0.109792 -0.0881811 -0.0728472 -0.0622592 -0.0552566 -0.0509911 -0.048839 -0.0483283 -0.049087 -0.0508082 -0.0532256 -0.0560969 -0.059192 -0.0622845 -0.0651457 -0.0675396 -0.0692199 -0.0699273 -0.069388 -0.0673125 -0.0633944 -0.0573094 -0.048713 -0.0372364 -0.0224787 -0.00399375 0.0187326 0.0463185 0.0795398 0.119406 0.167259 0.22489 0.294643 0.37876 0.47356 0.550052 -0.413213 -0.294638 -0.202854 -0.143116 -0.105344 -0.0811775 -0.0654935 -0.0553382 -0.0489819 -0.0453624 -0.043785 -0.0437624 -0.0449278 -0.0469844 -0.0496768 -0.052772 -0.0560474 -0.0592827 -0.062254 -0.064729 -0.0664645 -0.0672034 -0.0666732 -0.0645845 -0.060629 -0.0544773 -0.0457751 -0.0341351 -0.0191245 -0.000241856 0.0231234 0.0517598 0.0867554 0.129711 0.18312 0.251034 0.340236 0.462023 0.630252 0.823279 -0.752816 -0.345318 -0.186294 -0.116544 -0.0812947 -0.0614275 -0.0495004 -0.0422535 -0.038087 -0.0361215 -0.0358138 -0.0367877 -0.0387546 -0.0414727 -0.0447251 -0.0483067 -0.0520154 -0.0556464 -0.0589881 -0.0618182 -0.0639018 -0.0649891 -0.0648139 -0.0630925 -0.0595217 -0.0537766 -0.0455064 -0.0343269 -0.0198069 -0.00144396 0.0213778 0.0494643 0.0839544 0.126603 0.180389 0.250957 0.35027 0.505472 0.774777 1.27439 0 0 0 0 0 0 0 0 0 0 0 0 0 0 0 0 0 0 0 0 0 0 0 0 0 0 0 0 0 0 0 0 0 0 0 0 0 0 0 0 -0.00204569 -0.00240876 -0.00293565 -0.0034869 -0.00401164 -0.00448097 -0.00487427 -0.0051762 -0.00537576 -0.00546558 -0.00544137 -0.00530151 -0.0050468 -0.00468032 -0.00420754 -0.00363638 -0.00297736 -0.00224361 -0.00145091 -0.000617425 0.000236637 0.00108953 0.00191865 0.00270137 0.00341587 0.00404205 0.00456244 0.00496304 0.00523395 0.00537006 0.00537137 0.00524328 0.00499651 0.00464688 0.00421466 0.00372383 0.00320131 0.00267847 0.00220365 0.00190804 -0.00234796 -0.00254215 -0.00291638 -0.00335292 -0.00378841 -0.00418594 -0.00452183 -0.00478 -0.00494938 -0.0050226 -0.00499516 -0.00486502 -0.00463233 -0.00429939 -0.0038707 -0.00335308 -0.00275575 -0.00209044 -0.00137129 -0.000614744 0.000160823 0.000935551 0.00168872 0.00239951 0.0030478 0.00361506 0.00408523 0.00444553 0.00468719 0.00480603 0.00480285 0.00468365 0.0044596 0.00414687 0.0037664 0.00334386 0.00291082 0.00250887 0.00220172 0.00210261 -0.00227219 -0.00249569 -0.00283342 -0.00321779 -0.00360089 -0.00395099 -0.00424704 -0.00447484 -0.00462471 -0.00469008 -0.00466677 -0.00455251 -0.00434682 -0.00405101 -0.00366828 -0.00320391 -0.00266543 -0.00206273 -0.00140809 -0.000716099 -3.38686e-06 0.000711731 0.00140983 0.00207105 0.00267596 0.00320639 0.00364645 0.00398338 0.00420839 0.00431735 0.00431125 0.0041964 0.00398446 0.00369216 0.00334114 0.00295785 0.00257435 0.00223058 0.00197845 0.00188513 -0.00201559 -0.00233642 -0.00270366 -0.00308407 -0.00344858 -0.00377567 -0.00405036 -0.00426238 -0.00440462 -0.00447206 -0.0044612 -0.00436973 -0.00419653 -0.00394174 -0.00360704 -0.00319588 -0.00271378 -0.00216855 -0.0015704 -0.000932034 -0.00026847 0.000403225 0.00106442 0.00169558 0.00227708 0.00279022 0.00321823 0.00354735 0.00376785 0.00387482 0.00386879 0.00375597 0.0035482 0.00326264 0.00292119 0.00255005 0.00217936 0.00184321 0.00157912 0.00142439 -0.00169715 -0.00213546 -0.00256465 -0.00297194 -0.00334362 -0.00366869 -0.0039393 -0.00415004 -0.004297 -0.00437712 -0.00438779 -0.00432674 -0.00419215 -0.00398288 -0.00369888 -0.00334155 -0.00291418 -0.00242229 -0.00187393 -0.00127988 -0.000653634 -1.1231e-05 0.000629116 0.00124766 0.00182398 0.00233801 0.00277128 0.00310814 0.00333702 0.00345139 0.0034506 0.00334016 0.00313171 0.00284243 0.00249424 0.00211264 0.00172549 0.00136157 0.0010485 0.000808731 -0.00139525 -0.00195327 -0.00245822 -0.00290996 -0.00330645 -0.00364591 -0.00392735 -0.00415026 -0.00431408 -0.00441774 -0.00445954 -0.00443718 -0.00434806 -0.00418962 -0.00395991 -0.00365809 -0.00328