# vtk DataFile Version 2.0
Velocidades
ASCII

DATASET STRUCTURED_GRID
DIMENSIONS   40   40   20

POINTS   32000   double
0.0125   0.0125   0.025
0.0125   0.0375   0.025
0.0125   0.0625   0.025
0.0125   0.0875   0.025
0.0125   0.1125   0.025
0.0125   0.1375   0.025
0.0125   0.1625   0.025
0.0125   0.1875   0.025
0.0125   0.2125   0.025
0.0125   0.2375   0.025
0.0125   0.2625   0.025
0.0125   0.2875   0.025
0.0125   0.3125   0.025
0.0125   0.3375   0.025
0.0125   0.3625   0.025
0.0125   0.3875   0.025
0.0125   0.4125   0.025
0.0125   0.4375   0.025
0.0125   0.4625   0.025
0.0125   0.4875   0.025
0.0125   0.5125   0.025
0.0125   0.5375   0.025
0.0125   0.5625   0.025
0.0125   0.5875   0.025
0.0125   0.6125   0.025
0.0125   0.6375   0.025
0.0125   0.6625   0.025
0.0125   0.6875   0.025
0.0125   0.7125   0.025
0.0125   0.7375   0.025
0.0125   0.7625   0.025
0.0125   0.7875   0.025
0.0125   0.8125   0.025
0.0125   0.8375   0.025
0.0125   0.8625   0.025
0.0125   0.8875   0.025
0.0125   0.9125   0.025
0.0125   0.9375   0.025
0.0125   0.9625   0.025
0.0125   0.9875   0.025
0.0375   0.0125   0.025
0.0375   0.0375   0.025
0.0375   0.0625   0.025
0.0375   0.0875   0.025
0.0375   0.1125   0.025
0.0375   0.1375   0.025
0.0375   0.1625   0.025
0.0375   0.1875   0.025
0.0375   0.2125   0.025
0.0375   0.2375   0.025
0.0375   0.2625   0.025
0.0375   0.2875   0.025
0.0375   0.3125   0.025
0.0375   0.3375   0.025
0.0375   0.3625   0.025
0.0375   0.3875   0.025
0.0375   0.4125   0.025
0.0375   0.4375   0.025
0.0375   0.4625   0.025
0.0375   0.4875   0.025
0.0375   0.5125   0.025
0.0375   0.5375   0.025
0.0375   0.5625   0.025
0.0375   0.5875   0.025
0.0375   0.6125   0.025
0.0375   0.6375   0.025
0.0375   0.6625   0.025
0.0375   0.6875   0.025
0.0375   0.7125   0.025
0.0375   0.7375   0.025
0.0375   0.7625   0.025
0.0375   0.7875   0.025
0.0375   0.8125   0.025
0.0375   0.8375   0.025
0.0375   0.8625   0.025
0.0375   0.8875   0.025
0.0375   0.9125   0.025
0.0375   0.9375   0.025
0.0375   0.9625   0.025
0.0375   0.9875   0.025
0.0625   0.0125   0.025
0.0625   0.0375   0.025
0.0625   0.0625   0.025
0.0625   0.0875   0.025
0.0625   0.1125   0.025
0.0625   0.1375   0.025
0.0625   0.1625   0.025
0.0625   0.1875   0.025
0.0625   0.2125   0.025
0.0625   0.2375   0.025
0.0625   0.2625   0.025
0.0625   0.2875   0.025
0.0625   0.3125   0.025
0.0625   0.3375   0.025
0.0625   0.3625   0.025
0.0625   0.3875   0.025
0.0625   0.4125   0.025
0.0625   0.4375   0.025
0.0625   0.4625   0.025
0.0625   0.4875   0.025
0.0625   0.5125   0.025
0.0625   0.5375   0.025
0.0625   0.5625   0.025
0.0625   0.5875   0.025
0.0625   0.6125   0.025
0.0625   0.6375   0.025
0.0625   0.6625   0.025
0.0625   0.6875   0.025
0.0625   0.7125   0.025
0.0625   0.7375   0.025
0.0625   0.7625   0.025
0.0625   0.7875   0.025
0.0625   0.8125   0.025
0.0625   0.8375   0.025
0.0625   0.8625   0.025
0.0625   0.8875   0.025
0.0625   0.9125   0.025
0.0625   0.9375   0.025
0.0625   0.9625   0.025
0.0625   0.9875   0.025
0.0875   0.0125   0.025
0.0875   0.0375   0.025
0.0875   0.0625   0.025
0.0875   0.0875   0.025
0.0875   0.1125   0.025
0.0875   0.1375   0.025
0.0875   0.1625   0.025
0.0875   0.1875   0.025
0.0875   0.2125   0.025
0.0875   0.2375   0.025
0.0875   0.2625   0.025
0.0875   0.2875   0.025
0.0875   0.3125   0.025
0.0875   0.3375   0.025
0.0875   0.3625   0.025
0.0875   0.3875   0.025
0.0875   0.4125   0.025
0.0875   0.4375   0.025
0.0875   0.4625   0.025
0.0875   0.4875   0.025
0.0875   0.5125   0.025
0.0875   0.5375   0.025
0.0875   0.5625   0.025
0.0875   0.5875   0.025
0.0875   0.6125   0.025
0.0875   0.6375   0.025
0.0875   0.6625   0.025
0.0875   0.6875   0.025
0.0875   0.7125   0.025
0.0875   0.7375   0.025
0.0875   0.7625   0.025
0.0875   0.7875   0.025
0.0875   0.8125   0.025
0.0875   0.8375   0.025
0.0875   0.8625   0.025
0.0875   0.8875   0.025
0.0875   0.9125   0.025
0.0875   0.9375   0.025
0.0875   0.9625   0.025
0.0875   0.9875   0.025
0.1125   0.0125   0.025
0.1125   0.0375   0.025
0.1125   0.0625   0.025
0.1125   0.0875   0.025
0.1125   0.1125   0.025
0.1125   0.1375   0.025
0.1125   0.1625   0.025
0.1125   0.1875   0.025
0.1125   0.2125   0.025
0.1125   0.2375   0.025
0.1125   0.2625   0.025
0.1125   0.2875   0.025
0.1125   0.3125   0.025
0.1125   0.3375   0.025
0.1125   0.3625   0.025
0.1125   0.3875   0.025
0.1125   0.4125   0.025
0.1125   0.4375   0.025
0.1125   0.4625   0.025
0.1125   0.4875   0.025
0.1125   0.5125   0.025
0.1125   0.5375   0.025
0.1125   0.5625   0.025
0.1125   0.5875   0.025
0.1125   0.6125   0.025
0.1125   0.6375   0.025
0.1125   0.6625   0.025
0.1125   0.6875   0.025
0.1125   0.7125   0.025
0.1125   0.7375   0.025
0.1125   0.7625   0.025
0.1125   0.7875   0.025
0.1125   0.8125   0.025
0.1125   0.8375   0.025
0.1125   0.8625   0.025
0.1125   0.8875   0.025
0.1125   0.9125   0.025
0.1125   0.9375   0.025
0.1125   0.9625   0.025
0.1125   0.9875   0.025
0.1375   0.0125   0.025
0.1375   0.0375   0.025
0.1375   0.0625   0.025
0.1375   0.0875   0.025
0.1375   0.1125   0.025
0.1375   0.1375   0.025
0.1375   0.1625   0.025
0.1375   0.1875   0.025
0.1375   0.2125   0.025
0.1375   0.2375   0.025
0.1375   0.2625   0.025
0.1375   0.2875   0.025
0.1375   0.3125   0.025
0.1375   0.3375   0.025
0.1375   0.3625   0.025
0.1375   0.3875   0.025
0.1375   0.4125   0.025
0.1375   0.4375   0.025
0.1375   0.4625   0.025
0.1375   0.4875   0.025
0.1375   0.5125   0.025
0.1375   0.5375   0.025
0.1375   0.5625   0.025
0.1375   0.5875   0.025
0.1375   0.6125   0.025
0.1375   0.6375   0.025
0.1375   0.6625   0.025
0.1375   0.6875   0.025
0.1375   0.7125   0.025
0.1375   0.7375   0.025
0.1375   0.7625   0.025
0.1375   0.7875   0.025
0.1375   0.8125   0.025
0.1375   0.8375   0.025
0.1375   0.8625   0.025
0.1375   0.8875   0.025
0.1375   0.9125   0.025
0.1375   0.9375   0.025
0.1375   0.9625   0.025
0.1375   0.9875   0.025
0.1625   0.0125   0.025
0.1625   0.0375   0.025
0.1625   0.0625   0.025
0.1625   0.0875   0.025
0.1625   0.1125   0.025
0.1625   0.1375   0.025
0.1625   0.1625   0.025
0.1625   0.1875   0.025
0.1625   0.2125   0.025
0.1625   0.2375   0.025
0.1625   0.2625   0.025
0.1625   0.2875   0.025
0.1625   0.3125   0.025
0.1625   0.3375   0.025
0.1625   0.3625   0.025
0.1625   0.3875   0.025
0.1625   0.4125   0.025
0.1625   0.4375   0.025
0.1625   0.4625   0.025
0.1625   0.4875   0.025
0.1625   0.5125   0.025
0.1625   0.5375   0.025
0.1625   0.5625   0.025
0.1625   0.5875   0.025
0.1625   0.6125   0.025
0.1625   0.6375   0.025
0.1625   0.6625   0.025
0.1625   0.6875   0.025
0.1625   0.7125   0.025
0.1625   0.7375   0.025
0.1625   0.7625   0.025
0.1625   0.7875   0.025
0.1625   0.8125   0.025
0.1625   0.8375   0.025
0.1625   0.8625   0.025
0.1625   0.8875   0.025
0.1625   0.9125   0.025
0.1625   0.9375   0.025
0.1625   0.9625   0.025
0.1625   0.9875   0.025
0.1875   0.0125   0.025
0.1875   0.0375   0.025
0.1875   0.0625   0.025
0.1875   0.0875   0.025
0.1875   0.1125   0.025
0.1875   0.1375   0.025
0.1875   0.1625   0.025
0.1875   0.1875   0.025
0.1875   0.2125   0.025
0.1875   0.2375   0.025
0.1875   0.2625   0.025
0.1875   0.2875   0.025
0.1875   0.3125   0.025
0.1875   0.3375   0.025
0.1875   0.3625   0.025
0.1875   0.3875   0.025
0.1875   0.4125   0.025
0.1875   0.4375   0.025
0.1875   0.4625   0.025
0.1875   0.4875   0.025
0.1875   0.5125   0.025
0.1875   0.5375   0.025
0.1875   0.5625   0.025
0.1875   0.5875   0.025
0.1875   0.6125   0.025
0.1875   0.6375   0.025
0.1875   0.6625   0.025
0.1875   0.6875   0.025
0.1875   0.7125   0.025
0.1875   0.7375   0.025
0.1875   0.7625   0.025
0.1875   0.7875   0.025
0.1875   0.8125   0.025
0.1875   0.8375   0.025
0.1875   0.8625   0.025
0.1875   0.8875   0.025
0.1875   0.9125   0.025
0.1875   0.9375   0.025
0.1875   0.9625   0.025
0.1875   0.9875   0.025
0.2125   0.0125   0.025
0.2125   0.0375   0.025
0.2125   0.0625   0.025
0.2125   0.0875   0.025
0.2125   0.1125   0.025
0.2125   0.1375   0.025
0.2125   0.1625   0.025
0.2125   0.1875   0.025
0.2125   0.2125   0.025
0.2125   0.2375   0.025
0.2125   0.2625   0.025
0.2125   0.2875   0.025
0.2125   0.3125   0.025
0.2125   0.3375   0.025
0.2125   0.3625   0.025
0.2125   0.3875   0.025
0.2125   0.4125   0.025
0.2125   0.4375   0.025
0.2125   0.4625   0.025
0.2125   0.4875   0.025
0.2125   0.5125   0.025
0.2125   0.5375   0.025
0.2125   0.5625   0.025
0.2125   0.5875   0.025
0.2125   0.6125   0.025
0.2125   0.6375   0.025
0.2125   0.6625   0.025
0.2125   0.6875   0.025
0.2125   0.7125   0.025
0.2125   0.7375   0.025
0.2125   0.7625   0.025
0.2125   0.7875   0.025
0.2125   0.8125   0.025
0.2125   0.8375   0.025
0.2125   0.8625   0.025
0.2125   0.8875   0.025
0.2125   0.9125   0.025
0.2125   0.9375   0.025
0.2125   0.9625   0.025
0.2125   0.9875   0.025
0.2375   0.0125   0.025
0.2375   0.0375   0.025
0.2375   0.0625   0.025
0.2375   0.0875   0.025
0.2375   0.1125   0.025
0.2375   0.1375   0.025
0.2375   0.1625   0.025
0.2375   0.1875   0.025
0.2375   0.2125   0.025
0.2375   0.2375   0.025
0.2375   0.2625   0.025
0.2375   0.2875   0.025
0.2375   0.3125   0.025
0.2375   0.3375   0.025
0.2375   0.3625   0.025
0.2375   0.3875   0.025
0.2375   0.4125   0.025
0.2375   0.4375   0.025
0.2375   0.4625   0.025
0.2375   0.4875   0.025
0.2375   0.5125   0.025
0.2375   0.5375   0.025
0.2375   0.5625   0.025
0.2375   0.5875   0.025
0.2375   0.6125   0.025
0.2375   0.6375   0.025
0.2375   0.6625   0.025
0.2375   0.6875   0.025
0.2375   0.7125   0.025
0.2375   0.7375   0.025
0.2375   0.7625   0.025
0.2375   0.7875   0.025
0.2375   0.8125   0.025
0.2375   0.8375   0.025
0.2375   0.8625   0.025
0.2375   0.8875   0.025
0.2375   0.9125   0.025
0.2375   0.9375   0.025
0.2375   0.9625   0.025
0.2375   0.9875   0.025
0.2625   0.0125   0.025
0.2625   0.0375   0.025
0.2625   0.0625   0.025
0.2625   0.0875   0.025
0.2625   0.1125   0.025
0.2625   0.1375   0.025
0.2625   0.1625   0.025
0.2625   0.1875   0.025
0.2625   0.2125   0.025
0.2625   0.2375   0.025
0.2625   0.2625   0.025
[...]
POINT_DATA   32000
VECTORS Velocidades double

6.59139e-05 0.00123364 0
0.000256853 0.00220988 0
0.000154773 0.00179514 0
3.00311e-06 0.00162845 0
-0.000145308 0.00175298 0
-0.000280761 0.00214998 0
-0.000403319 0.0027919 0
-0.000514438 0.00365313 0
-0.000615393 0.00471124 0
-0.000707011 0.00594625 0
-0.000789696 0.00733973 0
-0.000863499 0.00887396 0
-0.000928202 0.0105313 0
-0.0009834 0.0122939 0
-0.00102859 0.014143 0
-0.00106329 0.0160593 0
-0.00108711 0.0180227 0
-0.00109994 0.0200133 0
-0.00110203 0.022011 0
-0.00109417 0.0239975 0
-0.00107786 0.0259567 0
-0.00105552 0.0278767 0
-0.0010307 0.0297518 0
-0.00100845 0.0315849 0
-0.000995799 0.0333907 0
-0.00100248 0.0352011 0
-0.00104212 0.0370707 0
-0.00113406 0.0390871 0
-0.00130634 0.0413847 0
-0.00160041 0.0441674 0
-0.00207888 0.0477426 0
-0.0028381 0.0525769 0
-0.00402909 0.0593848 0
-0.00589174 0.0692742 0
-0.00880477 0.0839758 0
-0.0133198 0.106159 0
-0.0199202 0.139541 0
-0.0268741 0.186608 0
-0.0162988 0.230259 0
0.12414 0.12343 0
0.000140413 0.00268582 0
0.000582706 0.00530233 0
0.000263362 0.00527698 0
-0.000270681 0.00559227 0
-0.000840724 0.00640394 0
-0.00139018 0.00775784 0
-0.0019027 0.00964617 0
-0.00237492 0.012039 0
-0.00280719 0.0148984 0
-0.00320043 0.0181836 0
-0.00355507 0.0218534 0
-0.00387072 0.0258658 0
-0.00414623 0.0301778 0
-0.00437991 0.0347451 0
-0.00456978 0.0395219 0
-0.00471403 0.0444608 0
-0.0048114 0.0495132 0
-0.00486176 0.0546306 0
-0.00486662 0.0597657 0
-0.00482983 0.0648749 0
-0.00475826 0.0699208 0
-0.00466261 0.0748761 0
-0.00455844 0.0797279 0
-0.0044675 0.0844836 0
-0.00441958 0.0891781 0
-0.0044552 0.093883 0
-0.00462962 0.0987191 0
-0.00501881 0.103872 0
-0.00572842 0.109615 0
-0.00690671 0.116335 0
-0.00876302 0.12457 0
-0.0115926 0.135043 0
-0.015806 0.14869 0
-0.0219486 0.166624 0
-0.0306492 0.189893 0
-0.0422391 0.21865 0
-0.0549809 0.249575 0
-0.0574101 0.26865 0
0.00405688 0.23609 0
0.348655 0.0998533 0
7.93585e-05 0.00390206 0
0.000456379 0.00800088 0
-0.000176405 0.00859098 0
-0.00122592 0.00965995 0
-0.00240547 0.0113436 0
-0.00358729 0.0137088 0
-0.00471736 0.0167681 0
-0.00577415 0.0205008 0
-0.00674957 0.0248686 0
-0.00764048 0.0298237 0
-0.00844487 0.0353135 0
-0.0091603 0.0412819 0
-0.00978347 0.0476699 0
-0.0103103 0.054416 0
-0.0107364 0.061456 0
-0.011058 0.0687234 0
-0.0112726 0.07615 0
-0.0113803 0.0836674 0
-0.011385 0.0912087 0
-0.0112954 0.0987115 0
-0.0111272 0.106121 0
-0.0109044 0.113396 0
-0.0106613 0.120512 0
-0.0104452 0.127469 0
-0.01032 0.134301 0
-0.0103708 0.141081 0
-0.0107099 0.147938 0
-0.0114864 0.155064 0
-0.0128973 0.162728 0
-0.0152014 0.171288 0
-0.0187326 0.181187 0
-0.0239035 0.192921 0
-0.0311735 0.206945 0
-0.0409119 0.223408 0
-0.0529588 0.24156 0
-0.0653098 0.258427 0
-0.0702014 0.266153 0
-0.0425358 0.24795 0
0.0915222 0.179011 0
0.513677 0.0642289 0
-0.000134919 0.00503426 0
-0.000176981 0.0105108 0
-0.00131315 0.0116991 0
-0.00299393 0.0135353 0
-0.00488991 0.0160929 0
-0.00682147 0.0194197 0
-0.00869637 0.0235286 0
-0.010469 0.0284038 0
-0.0121172 0.0340094 0
-0.0136294 0.040297 0
-0.0149981 0.0472098 0
-0.0162167 0.0546854 0
-0.0172781 0.0626563 0
-0.0181745 0.0710511 0
-0.0188983 0.0797943 0
-0.0194426 0.0888071 0
-0.0198032 0.0980078 0
-0.0199799 0.107314 0
-0.0199787 0.116643 0
-0.0198139 0.125918 0
-0.0195102 0.135067 0
-0.0191058 0.144031 0
-0.0186552 0.152768 0
-0.0182324 0.161257 0
-0.0179357 0.169508 0
-0.0178927 0.177565 0
-0.0182675 0.185515 0
-0.0192676 0.19349 0
-0.0211521 0.201664 0
-0.0242346 0.21024 0
-0.0288725 0.219417 0
-0.0354184 0.229298 0
-0.0440812 0.239721 0
-0.0545722 0.249916 0
-0.0652443 0.25787 0
-0.0710304 0.259246 0
-0.058565 0.245937 0
0.00468624 0.205775 0
0.189968 0.129849 0
0.619914 0.0412312 0
-0.000488019 0.00608755 0
-0.00125734 0.0128251 0
-0.0031044 0.01453 0
-0.00553938 0.0170459 0
-0.00823333 0.0203831 0
-0.010983 0.0245543 0
-0.0136699 0.029558 0
-0.0162275 0.0353744 0
-0.0186186 0.0419679 0
-0.0208212 0.0492908 0
-0.0228204 0.0572863 0
-0.0246034 0.0658899 0
-0.0261578 0.0750312 0
-0.0274709 0.0846341 0
-0.0285302 0.094617 0
-0.0293249 0.104893 0
-0.0298474 0.115373 0
-0.0300962 0.125962 0
-0.0300779 0.136566 0
-0.0298106 0.147092 0
-0.0293266 0.157452 0
-0.028676 0.167565 0
-0.0279302 0.177365 0
-0.0271854 0.186802 0
-0.0265673 0.195845 0
-0.0262353 0.20449 0
-0.0263868 0.212754 0
-0.0272603 0.220676 0
-0.0291334 0.228298 0
-0.0323078 0.235641 0
-0.0370647 0.242644 0
-0.043556 0.249059 0
-0.0515551 0.254267 0
-0.0599187 0.256968 0
-0.0654441 0.254695 0
-0.0605064 0.243198 0
-0.0284125 0.216132 0
0.0645756 0.166728 0
0.278068 0.0954449 0
0.689426 0.0276089 0
-0.000955995 0.00703509 0
-0.0027056 0.0148875 0
-0.00544819 0.0170116 0
-0.00875304 0.0200858 0
-0.0123134 0.0240677 0
-0.0159245 0.0289332 0
-0.0194562 0.0346596 0
-0.0228287 0.0412176 0
-0.0259927 0.048569 0
-0.0289168 0.0566661 0
-0.0315776 0.0654533 0
-0.0339556 0.0748672 0
-0.0360317 0.0848375 0
-0.0377867 0.0952871 0
-0.0392019 0.106132 0
-0.0402607 0.11728 0
-0.0409506 0.128636 0
-0.0412663 0.140097 0
-0.0412127 0.151557 0
-0.0408089 0.162909 0
-0.0400913 0.174046 0
-0.0391177 0.184865 0
-0.0379706 0.195271 0
-0.0367612 0.205179 0
-0.0356322 0.214512 0
-0.0347602 0.223207 0
-0.0343564 0.231209 0
-0.0346622 0.238456 0
-0.0359357 0.244868 0
-0.0384167 0.250302 0
-0.0422489 0.2545 0
-0.0473173 0.256981 0
-0.0529146 0.256889 0
-0.057085 0.252756 0
-0.0553638 0.242211 0
-0.0384741 0.221763 0
0.0114886 0.187175 0
0.12601 0.135711 0
0.352112 0.072273 0
0.737093 0.0194601 0
-0.00151381 0.00784835 0
-0.00444221 0.0166425 0
-0.00822921 0.019089 0
-0.0125006 0.0225943 0
-0.0169822 0.0270747 0
-0.0214821 0.0324736 0
-0.025871 0.0387473 0
-0.0300644 0.0458549 0
-0.0340063 0.0537532 0
-0.0376577 0.0623943 0
-0.0409882 0.0717243 0
-0.043971 0.0816824 0
-0.0465793 0.0922003 0
-0.0487864 0.103202 0
-0.0505656 0.114603 0
-0.0518924 0.126309 0
-0.0527471 0.138221 0
-0.0531179 0.150226 0
-0.053005 0.16221 0
-0.0524248 0.17405 0
-0.0514134 0.185621 0
-0.050031 0.196798 0
-0.0483653 0.207455 0
-0.0465341 0.217469 0
-0.0446869 0.226722 0
-0.0430046 0.235093 0
-0.0416956 0.242458 0
-0.0409835 0.248673 0
-0.0410829 0.253557 0
-0.0421458 0.256855 0
-0.0441572 0.258184 0
-0.0467316 0.256948 0
-0.0487258 0.252227 0
-0.0475282 0.242619 0
-0.0378033 0.226105 0
-0.00944696 0.200103 0
0.0552609 0.162157 0
0.184217 0.112103 0
0.413624 0.056552 0
0.771509 0.0144159 0
-0.00213816 0.00850471 0
-0.0063928 0.018048 0
-0.0113351 0.0207268 0
-0.0166454 0.0245413 0
-0.0220869 0.0293769 0
-0.0274895 0.0351511 0
-0.0327347 0.0418019 0
-0.0377405 0.0492774 0
-0.0424498 0.0575299 0
-0.0468195 0.0665112 0
-0.0508135 0.0761694 0
-0.0543979 0.0864472 0
-0.0575382 0.0972798 0
-0.0601985 0.108594 0
-0.0623425 0.120305 0
-0.0639355 0.13232 0
-0.0649478 0.144533 0
-0.0653584 0.156828 0
-0.065159 0.169078 0
-0.0643594 0.181147 0
-0.0629911 0.192893 0
-0.0611115 0.204167 0
-0.0588074 0.214815 0
-0.0561963 0.224682 0
-0.0534264 0.233607 0
-0.0506735 0.241423 0
-0.0481318 0.247952 0
-0.0459965 0.252987 0
-0.044428 0.256278 0
-0.0434854 0.257504 0
-0.0430013 0.256224 0
-0.0423518 0.251815 0
-0.0400415 0.243397 0
-0.0329836 0.229745 0
-0.0153258 0.209264 0
0.0232614 0.180195 0
0.0995479 0.1414 0
0.237614 0.0942192 0
0.465064 0.0456273 0
0.797577 0.0111597 0
-0.00280831 0.00898836 0
-0.00849024 0.0190762 0
-0.0146622 0.0219056 0
-0.0210576 0.0259172 0
-0.0274799 0.0309734 0
-0.0337868 0.0369729 0
-0.0398768 0.0438397 0
-0.0456774 0.0515139 0
-0.0511348 0.0599443 0
-0.0562054 0.0690834 0
-0.0608491 0.0788825 0
-0.0650258 0.0892884 0
-0.0686925 0.100241 0
-0.0718031 0.11167 0
-0.0743099 0.123494 0
-0.0761657 0.135619 0
-0.0773278 0.147936 0
-0.0777625 0.160324 0
-0.0774498 0.172645 0
-0.076389 0.184752 0
-0.0746025 0.196485 0
-0.0721409 0.207672 0
-0.0690849 0.218138 0
-0.0655466 0.227695 0
-0.0616676 0.236151 0
-0.0576128 0.243303 0
-0.0535578 0.248929 0
-0.0496654 0.252784 0
-0.0460425 0.25458 0
-0.0426626 0.253965 0
-0.039227 0.250486 0
-0.034919 0.243548 0
-0.0279798 0.232363 0
-0.0150105 0.215917 0
0.0100838 0.193016 0
0.0574658 0.162569 0
0.142602 0.124348 0
0.28601 0.0805134 0
0.508632 0.0377988 0
0.818148 0.00896191 0
-0.00350617 0.00928915 0
-0.010675 0.0197102 0
-0.018117 0.0226172 0
-0.0256179 0.0267234 0
-0.0330235 0.0318759 0
-0.0402233 0.0379609 0
-0.0471378 0.0448932 0
-0.053709 0.0526084 0
-0.0598903 0.0610545 0
-0.0656405 0.0701864 0
-0.0709175 0.0799597 0
-0.0756753 0.0903268 0
-0.0798621 0.101233 0
-0.0834205 0.112613 0
-0.0862893 0.124387 0
-0.0884063 0.136464 0
-0.089713 0.148731 0
-0.0901598 0.161061 0
-0.0897115 0.173311 0
-0.0883528 0.185318 0
-0.0860939 0.196908 0
-0.0829746 0.207892 0
-0.0790664 0.218071 0
-0.0744728 0.227234 0
-0.0693259 0.235164 0
-0.0637778 0.241628 0
-0.0579853 0.246382 0
-0.0520809 0.249157 0
-0.0461245 0.249648 0
-0.0400179 0.247498 0
-0.0333571 0.242274 0
-0.0251786 0.233433 0
-0.0135394 0.2203 0
0.00514042 0.202064 0
0.0370013 0.177875 0
0.0918029 0.147151 0
0.183593 0.110273 0
0.329735 0.0698046 0
0.546042 0.0319989 0
0.834932 0.00741052 0
-0.00421583 0.00940121 0
-0.0128939 0.0199413 0
-0.0216146 0.0228597 0
-0.0302167 0.0269668 0
-0.0385897 0.0321007 0
-0.0466582 0.0381407 0
-0.0543687 0.0449977 0
-0.0616809 0.0526066 0
-0.0685591 0.0609178 0
-0.0749666 0.0698908 0
-0.0808606 0.0794873 0
-0.0861897 0.0896668 0
-0.090893 0.100381 0
-0.0949002 0.11157 0
-0.0981347 0.12316 0
-0.100517 0.135058 0
-0.101969 0.147152 0
-0.102423 0.159312 0
-0.101824 0.171385 0
-0.100141 0.183198 0
-0.0973664 0.194564 0
-0.093528 0.205277 0
-0.0886857 0.215119 0
-0.0829328 0.223863 0
-0.0763915 0.23127 0
-0.0692023 0.237091 0
-0.0615054 0.241066 0
-0.0534087 0.242917 0
-0.0449346 0.242338 0
-0.0359286 0.238986 0
-0.0259068 0.232457 0
-0.0137997 0.222274 0
0.00245508 0.20787 0
0.0265189 0.188619 0
0.0644418 0.163948 0
0.125449 0.133653 0
0.222179 0.0985098 0
0.369271 0.0612427 0
0.578569 0.0275543 0
0.848983 0.00626663 0
-0.00492306 0.00932175 0
-0.0150992 0.019766 0
-0.025078 0.0226346 0
-0.0347528 0.0266559 0
-0.0440594 0.0316639 0
-0.0529598 0.0375364 0
-0.0614296 0.0441855 0
-0.0694489 0.0515494 0
-0.0769952 0.0595842 0
-0.084038 0.0682564 0
-0.0905348 0.0775363 0
-0.0964291 0.0873917 0
-0.10165 0.0977825 0
-0.106113 0.108656 0
-0.109723 0.119943 0
-0.112382 0.131553 0
-0.11399 0.143375 0
-0.114456 0.155275 0
-0.113703 0.167093 0
-0.11168 0.178649 0
-0.108363 0.189743 0
-0.103762 0.200155 0
-0.0979256 0.209653 0
-0.0909367 0.217995 0
-0.0829088 0.224927 0
-0.0739732 0.230192 0
-0.0642582 0.233521 0
-0.053854 0.234635 0
-0.0427553 0.233239 0
-0.0307667 0.229009 0
-0.0173459 0.221579 0
-0.00135144 0.210534 0
0.0193472 0.19541 0
0.048419 0.175733 0
0.0917336 0.151152 0
0.157916 0.121736 0
0.258267 0.0885132 0
0.405094 0.054225 0
0.607148 0.024033 0
0.860976 0.00538745 0
-0.00561466 0.0090504 0
-0.0172465 0.0191847 0
-0.0284352 0.021946 0
-0.0391317 0.0257993 0
-0.0493207 0.0305798 0
-0.0590041 0.0361687 0
-0.0681885 0.0424839 0
-0.0768768 0.0494709 0
-0.0850611 0.0570948 0
-0.0927184 0.065332 0
-0.0998068 0.0741631 0
-0.106264 0.0835662 0
-0.112009 0.093511 0
-0.116942 0.103953 0
-0.120947 0.114829 0
-0.123904 0.126055 0
-0.125688 0.137519 0
-0.126183 0.149085 0
-0.125289 0.16059 0
-0.122928 0.171846 0
-0.119057 0.182642 0
-0.113671 0.192749 0
-0.106804 0.201923 0
-0.0985311 0.209909 0
-0.088958 0.216446 0
-0.0782109 0.221267 0
-0.0664111 0.224106 0
-0.053638 0.224686 0
-0.0398687 0.222726 0
-0.0248793 0.217923 0
-0.00808793 0.209951 0
0.0116923 0.198454 0
0.0366201 0.183052 0
0.070318 0.1634 0
0.118417 0.139319 0
0.188917 0.111077 0
0.291877 0.0798507 0
0.437617 0.048323 0
0.632457 0.0211512 0
0.871353 0.00468467 0
-0.00627792 0.00858896 0
-0.0192932 0.0182017 0
-0.0316176 0.0207998 0
-0.0432634 0.0244061 0
-0.0542673 0.0288617 0
-0.0646729 0.0340561 0
-0.0745198 0.0399169 0
-0.0838348 0.046401 0
-0.0926258 0.0534851 0
-0.100878 0.0611583 0
-0.108549 0.0694134 0
-0.115573 0.0782409 0
-0.121855 0.0876217 0
-0.127279 0.0975213 0
-0.131708 0.107885 0
-0.134995 0.118633 0
-0.136989 0.129659 0
-0.137544 0.140826 0
-0.136533 0.151968 0
-0.133854 0.162893 0
-0.129441 0.173381 0
-0.12327 0.183195 0
-0.115363 0.192081 0
-0.105786 0.199776 0
-0.0946423 0.206013 0
-0.0820552 0.210522 0
-0.0681445 0.213035 0
-0.0529857 0.213287 0
-0.0365459 0.211006 0
-0.018584 0.205915 0
0.00150661 0.197722 0
0.0249367 0.18612 0
0.0538629 0.170804 0
0.0918216 0.151531 0
0.144167 0.128254 0
0.218279 0.101385 0
0.323075 0.0721829 0
0.467178 0.0432273 0
0.654991 0.018717 0
0.880408 0.00410166 0
-0.00690014 0.00794149 0
-0.0211976 0.0168253 0
-0.0345587 0.0192053 0
-0.0470616 0.0224878 0
-0.0587973 0.0265247 0
-0.0698534 0.031218 0
-0.0803035 0.0365091 0
-0.0901988 0.0423692 0
-0.0995635 0.0487898 0
-0.10839 0.0557741 0
-0.116639 0.0633297 0
-0.124236 0.0714607 0
-0.131074 0.0801609 0
-0.137018 0.0894077 0
-0.141907 0.0991564 0
-0.145568 0.109335 0
-0.147818 0.119843 0
-0.148481 0.130545 0
-0.147398 0.141277 0
-0.14444 0.151841 0
-0.139516 0.162016 0
-0.132585 0.171555 0
-0.123655 0.180198 0
-0.112786 0.187677 0
-0.100077 0.193718 0
-0.0856557 0.198051 0
-0.0696436 0.20041 0
-0.052118 0.200535 0
-0.0330434 0.198169 0
-0.0121701 0.193053 0
0.0111211 0.184926 0
0.0380481 0.173522 0
0.0707411 0.158596 0
0.112622 0.139989 0
0.168747 0.117756 0
0.245888 0.0924075 0
0.351927 0.065241 0
0.494039 0.0387093 0
0.675104 0.0165965 0
0.888343 0.00360063 0
-0.00746839 0.00711476 0
-0.0229183 0.015069 0
-0.0371935 0.0171766 0
-0.0504425 0.0200608 0
-0.0628131 0.0235887 0
-0.074438 0.027679 0
-0.0854249 0.0322906 0
-0.0958499 0.0374113 0
-0.105753 0.0430492 0
-0.115135 0.0492239 0
-0.123956 0.0559587 0
-0.132136 0.0632729 0
-0.139552 0.0711751 0
-0.14605 0.0796561 0
-0.151446 0.0886833 0
-0.155533 0.0981956 0
-0.158099 0.108099 0
-0.158932 0.118267 0
-0.157841 0.128534 0
-0.154665 0.138707 0
-0.149288 0.148558 0
-0.141648 0.15784 0
-0.131741 0.166287 0
-0.119619 0.173625 0
-0.105383 0.179577 0
-0.0891645 0.183871 0
-0.0710921 0.186243 0
-0.0512492 0.186439 0
-0.0296033 0.184211 0
-0.00590332 0.179316 0
0.0204731 0.171516 0
0.0507364 0.16058 0
0.086972 0.146312 0
0.132466 0.128616 0
0.191966 0.107628 0
0.271658 0.0839239 0
0.378489 0.0588085 0
0.518396 0.0345958 0
0.693052 0.0146929 0
0.895293 0.00315533 0
-0.00796941 0.00611876 0
-0.024414 0.0129529 0
-0.0394587 0.0147352 0
-0.053326 0.0171492 0
-0.0662222 0.0200823 0
-0.0783249 0.023474 0
-0.0897758 0.0273025 0
-0.100675 0.0315746 0
-0.111078 0.0363165 0
-0.120994 0.0415649 0
-0.130381 0.0473598 0
-0.139152 0.053737 0
-0.147172 0.0607209 0
-0.154265 0.0683178 0
-0.160218 0.0765098 0
-0.164796 0.0852489 0
-0.167749 0.0944529 0
-0.168831 0.104003 0
-0.167814 0.113743 0
-0.164503 0.12348 0
-0.158755 0.132991 0
-0.150485 0.142025 0
-0.139676 0.150315 0
-0.126373 0.157582 0
-0.110679 0.163548 0
-0.0927312 0.167937 0
-0.0726688 0.170485 0
-0.0505849 0.170941 0
-0.0264543 0.169064 0
-3.02727e-05 0.164622 0
0.0293043 0.157393 0
0.0627413 0.147173 0
0.102306 0.133805 0
0.151133 0.117243 0
0.213658 0.0976817 0
0.295508 0.0757401 0
0.402789 0.0527069 0
0.54038 0.030751 0
0.709007 0.0129336 0
0.901351 0.00274672 0
-0.00838971 0.00496735 0
-0.025644 0.0105054 0
-0.0412935 0.0119113 0
-0.0556368 0.0137878 0
-0.0689384 0.016047 0
-0.08142 0.0186519 0
-0.0932557 0.0216023 0
-0.104569 0.024925 0
-0.115429 0.0286643 0
-0.125852 0.0328746 0
-0.135796 0.0376131 0
-0.145167 0.0429325 0
-0.153814 0.0488744 0
-0.16154 0.0554624 0
-0.168107 0.0626955 0
-0.173245 0.0705422 0
-0.176669 0.0789358 0
-0.178094 0.0877707 0
-0.177252 0.0969017 0
-0.173914 0.106145 0
-0.167903 0.115281 0
-0.159112 0.124063 0
-0.147507 0.132223 0
-0.133128 0.139479 0
-0.116077 0.145551 0
-0.0964989 0.15016 0
-0.0745457 0.153039 0
-0.0503221 0.153937 0
-0.023814 0.152614 0
0.00521614 0.148845 0
0.0373733 0.142419 0
0.0738208 0.13315 0
0.116511 0.120911 0
0.168419 0.105695 0
0.233664 0.0877373 0
0.317351 0.0676825 0
0.424826 0.0467853 0
0.560071 0.0270654 0
0.723081 0.0112621 0
0.906573 0.00236045 0
-0.00871584 0.00367877 0
-0.0265697 0.00776424 0
-0.0426416 0.00874688 0
-0.0573062 0.010025 0
-0.0708841 0.01154 0
-0.0836385 0.0132803 0
-0.0957737 0.0152685 0
-0.107434 0.017551 0
-0.118702 0.0201903 0
-0.1296 0.0232575 0
-0.140086 0.0268267 0
-0.150057 0.0309677 0
-0.159351 0.0357401 0
-0.167749 0.0411865 0
-0.174986 0.0473256 0
-0.180759 0.0541459 0
-0.184746 0.0616002 0
-0.18662 0.0696015 0
-0.186073 0.0780209 0
-0.182837 0.0866882 0
-0.176701 0.0953945 0
-0.167529 0.103899 0
-0.155268 0.111936 0
-0.13995 0.119225 0
-0.121676 0.12548 0
-0.1006 0.130421 0
-0.0768845 0.133775 0
-0.050648 0.135285 0
-0.0218902 0.134711 0
0.00961318 0.131827 0
0.0444488 0.126427 0
0.0837428 0.118338 0
0.129365 0.107452 0
0.184121 0.0937929 0
0.251822 0.0776223 0
0.33708 0.0595931 0
0.444564 0.0409127 0
0.577499 0.023448 0
0.735337 0.00963307 0
0.910989 0.00198525 0
-0.00893499 0.00227607 0
-0.0271558 0.0047776 0
-0.0434533 0.00529616 0
-0.0582749 0.00592465 0
-0.0719932 0.00663689 0
-0.0849086 0.00744839 0
-0.0972517 0.00840396 0
-0.109185 0.00956884 0
-0.120803 0.0110219 0
-0.132134 0.01285 0
-0.143136 0.0151425 0
-0.1537 0.0179863 0
-0.163652 0.0214592 0
-0.172753 0.0256241 0
-0.180712 0.0305219 0
-0.187195 0.0361649 0
-0.191842 0.0425305 0
-0.194284 0.0495557 0
-0.19417 0.0571344 0
-0.191188 0.0651162 0
-0.185091 0.0733086 0
-0.175709 0.0814821 0
-0.162969 0.0893781 0
-0.146886 0.0967182 0
-0.127562 0.103215 0
-0.105153 0.108581 0
-0.0798346 0.112538 0
-0.0517391 0.114821 0
-0.0208815 0.11518 0
0.0129457 0.113385 0
0.0503052 0.10923 0
0.0922783 0.102548 0
0.140644 0.0932431 0
0.198033 0.0813574 0
0.267957 0.0671692 0
0.354568 0.051325 0
0.461934 0.034972 0
0.592653 0.0198201 0
0.745792 0.00800861 0
0.914612 0.00161198 0
-0.00903555 0.000787264 0
-0.0273722 0.00160481 0
-0.043688 0.00162711 0
-0.0584961 0.00156705 0
-0.0722141 0.00143324 0
-0.0851735 0.0012683 0
-0.0976266 0.00113798 0
-0.109751 0.00112413 0
-0.121652 0.00131963 0
-0.133362 0.00182446 0
-0.144841 0.0027418 0
-0.155975 0.00417382 0
-0.166581 0.0062166 0
-0.176404 0.0089543 0
-0.18513 0.0124524 0
-0.192394 0.0167507 0
-0.197799 0.021856 0
-0.200934 0.027736 0
-0.201404 0.034314 0
-0.198851 0.0414674 0
-0.192984 0.049027 0
-0.183599 0.0567817 0
-0.17059 0.0644849 0
-0.153958 0.071864 0
-0.133794 0.0786309 0
-0.110257 0.0844926 0
-0.0835295 0.0891607 0
-0.0537595 0.092358 0
-0.0209776 0.0938235 0
0.0150038 0.0933163 0
0.0547185 0.0906235 0
0.099196 0.0855767 0
0.150118 0.0780867 0
0.209937 0.0682046 0
0.281875 0.0562126 0
0.369661 0.0427381 0
0.476834 0.0288559 0
0.605477 0.0161121 0
0.754428 0.00635602 0
0.917433 0.00123289 0
-0.00900801 -0.000754717 0
-0.0271964 -0.00168388 0
-0.0433174 -0.00217875 0
-0.0579388 -0.00295071 0
-0.0715133 -0.00395534 0
-0.0843957 -0.00512415 0
-0.0968544 -0.00637297 0
-0.109079 -0.0076066 0
-0.121181 -0.00872154 0
-0.133201 -0.00960799 0
-0.145101 -0.0101519 0
-0.156765 -0.0102376 0
-0.168004 -0.00975198 0
-0.178551 -0.00858936 0
-0.188072 -0.00665791 0
-0.196177 -0.00388706 0
-0.202432 -0.000235376 0
-0.206389 0.00430172 0
-0.207603 0.0096854 0
-0.205671 0.0158288 0
-0.200254 0.0225953 0
-0.191102 0.0298002 0
-0.178077 0.0372161 0
-0.161151 0.0445813 0
-0.140401 0.0516102 0
-0.115982 0.0580049 0
-0.0880811 0.0634657 0
-0.0568571 0.0677003 0
-0.0223574 0.0704308 0
0.0155833 0.0714006 0
0.057465 0.0703844 0
0.104259 0.0672067 0
0.157544 0.0617765 0
0.219596 0.0541447 0
0.29336 0.0445863 0
0.382175 0.0336958 0
0.489121 0.0224626 0
0.61588 0.0122601 0
0.761194 0.00464616 0
0.919434 0.000841248 0
-0.00884583 -0.00231256 0
-0.0266159 -0.00500834 0
-0.0423284 -0.00602744 0
-0.0565907 -0.00751603 0
-0.0698784 -0.00939449 0
-0.0825602 -0.011571 0
-0.0949139 -0.0139467 0
-0.107136 -0.0164171 0
-0.119346 -0.0188725 0
-0.13159 -0.0211974 0
-0.143832 -0.0232704 0
-0.155963 -0.0249657 0
-0.167789 -0.0261551 0
-0.179038 -0.0267122 0
-0.189362 -0.0265179 0
-0.198348 -0.0254685 0
-0.205535 -0.0234833 0
-0.210435 -0.0205143 0
-0.212559 -0.0165546 0
-0.211453 -0.0116453 0