# vtk DataFile Version 2.0
Velocidades
ASCII

DATASET STRUCTURED_GRID
DIMENSIONS   40   40   20

POINTS   32000   double
0.0125   0.0125   0.025
0.0125   0.0375   0.025
0.0125   0.0625   0.025
0.0125   0.0875   0.025
0.0125   0.1125   0.025
0.0125   0.1375   0.025
0.0125   0.1625   0.025
0.0125   0.1875   0.025
0.0125   0.2125   0.025
0.0125   0.2375   0.025
0.0125   0.2625   0.025
0.0125   0.2875   0.025
0.0125   0.3125   0.025
0.0125   0.3375   0.025
0.0125   0.3625   0.025
0.0125   0.3875   0.025
0.0125   0.4125   0.025
0.0125   0.4375   0.025
0.0125   0.4625   0.025
0.0125   0.4875   0.025
0.0125   0.5125   0.025
0.0125   0.5375   0.025
0.0125   0.5625   0.025
0.0125   0.5875   0.025
0.0125   0.6125   0.025
0.0125   0.6375   0.025
0.0125   0.6625   0.025
0.0125   0.6875   0.025
0.0125   0.7125   0.025
0.0125   0.7375   0.025
0.0125   0.7625   0.025
0.0125   0.7875   0.025
0.0125   0.8125   0.025
0.0125   0.8375   0.025
0.0125   0.8625   0.025
0.0125   0.8875   0.025
0.0125   0.9125   0.025
0.0125   0.9375   0.025
0.0125   0.9625   0.025
0.0125   0.9875   0.025
0.0375   0.0125   0.025
0.0375   0.0375   0.025
0.0375   0.0625   0.025
0.0375   0.0875   0.025
0.0375   0.1125   0.025
0.0375   0.1375   0.025
0.0375   0.1625   0.025
0.0375   0.1875   0.025
0.0375   0.2125   0.025
0.0375   0.2375   0.025
0.0375   0.2625   0.025
0.0375   0.2875   0.025
0.0375   0.3125   0.025
0.0375   0.3375   0.025
0.0375   0.3625   0.025
0.0375   0.3875   0.025
0.0375   0.4125   0.025
0.0375   0.4375   0.025
0.0375   0.4625   0.025
0.0375   0.4875   0.025
0.0375   0.5125   0.025
0.0375   0.5375   0.025
0.0375   0.5625   0.025
0.0375   0.5875   0.025
0.0375   0.6125   0.025
0.0375   0.6375   0.025
0.0375   0.6625   0.025
0.0375   0.6875   0.025
0.0375   0.7125   0.025
0.0375   0.7375   0.025
0.0375   0.7625   0.025
0.0375   0.7875   0.025
0.0375   0.8125   0.025
0.0375   0.8375   0.025
0.0375   0.8625   0.025
0.0375   0.8875   0.025
0.0375   0.9125   0.025
0.0375   0.9375   0.025
0.0375   0.9625   0.025
0.0375   0.9875   0.025
0.0625   0.0125   0.025
0.0625   0.0375   0.025
0.0625   0.0625   0.025
0.0625   0.0875   0.025
0.0625   0.1125   0.025
0.0625   0.1375   0.025
0.0625   0.1625   0.025
0.0625   0.1875   0.025
0.0625   0.2125   0.025
0.0625   0.2375   0.025
0.0625   0.2625   0.025
0.0625   0.2875   0.025
0.0625   0.3125   0.025
0.0625   0.3375   0.025
0.0625   0.3625   0.025
0.0625   0.3875   0.025
0.0625   0.4125   0.025
0.0625   0.4375   0.025
0.0625   0.4625   0.025
0.0625   0.4875   0.025
0.0625   0.5125   0.025
0.0625   0.5375   0.025
0.0625   0.5625   0.025
0.0625   0.5875   0.025
0.0625   0.6125   0.025
0.0625   0.6375   0.025
0.0625   0.6625   0.025
0.0625   0.6875   0.025
0.0625   0.7125   0.025
0.0625   0.7375   0.025
0.0625   0.7625   0.025
0.0625   0.7875   0.025
0.0625   0.8125   0.025
0.0625   0.8375   0.025
0.0625   0.8625   0.025
0.0625   0.8875   0.025
0.0625   0.9125   0.025
0.0625   0.9375   0.025
0.0625   0.9625   0.025
0.0625   0.9875   0.025
0.0875   0.0125   0.025
0.0875   0.0375   0.025
0.0875   0.0625   0.025
0.0875   0.0875   0.025
0.0875   0.1125   0.025
0.0875   0.1375   0.025
0.0875   0.1625   0.025
0.0875   0.1875   0.025
0.0875   0.2125   0.025
0.0875   0.2375   0.025
0.0875   0.2625   0.025
0.0875   0.2875   0.025
0.0875   0.3125   0.025
0.0875   0.3375   0.025
0.0875   0.3625   0.025
0.0875   0.3875   0.025
0.0875   0.4125   0.025
0.0875   0.4375   0.025
0.0875   0.4625   0.025
0.0875   0.4875   0.025
0.0875   0.5125   0.025
0.0875   0.5375   0.025
0.0875   0.5625   0.025
0.0875   0.5875   0.025
0.0875   0.6125   0.025
0.0875   0.6375   0.025
0.0875   0.6625   0.025
0.0875   0.6875   0.025
0.0875   0.7125   0.025
0.0875   0.7375   0.025
0.0875   0.7625   0.025
0.0875   0.7875   0.025
0.0875   0.8125   0.025
0.0875   0.8375   0.025
0.0875   0.8625   0.025
0.0875   0.8875   0.025
0.0875   0.9125   0.025
0.0875   0.9375   0.025
0.0875   0.9625   0.025
0.0875   0.9875   0.025
0.1125   0.0125   0.025
0.1125   0.0375   0.025
0.1125   0.0625   0.025
0.1125   0.0875   0.025
0.1125   0.1125   0.025
0.1125   0.1375   0.025
0.1125   0.1625   0.025
0.1125   0.1875   0.025
0.1125   0.2125   0.025
0.1125   0.2375   0.025
0.1125   0.2625   0.025
0.1125   0.2875   0.025
0.1125   0.3125   0.025
0.1125   0.3375   0.025
0.1125   0.3625   0.025
0.1125   0.3875   0.025
0.1125   0.4125   0.025
0.1125   0.4375   0.025
0.1125   0.4625   0.025
0.1125   0.4875   0.025
0.1125   0.5125   0.025
0.1125   0.5375   0.025
0.1125   0.5625   0.025
0.1125   0.5875   0.025
0.1125   0.6125   0.025
0.1125   0.6375   0.025
0.1125   0.6625   0.025
0.1125   0.6875   0.025
0.1125   0.7125   0.025
0.1125   0.7375   0.025
0.1125   0.7625   0.025
0.1125   0.7875   0.025
0.1125   0.8125   0.025
0.1125   0.8375   0.025
0.1125   0.8625   0.025
0.1125   0.8875   0.025
0.1125   0.9125   0.025
0.1125   0.9375   0.025
0.1125   0.9625   0.025
0.1125   0.9875   0.025
0.1375   0.0125   0.025
0.1375   0.0375   0.025
0.1375   0.0625   0.025
0.1375   0.0875   0.025
0.1375   0.1125   0.025
0.1375   0.1375   0.025
0.1375   0.1625   0.025
0.1375   0.1875   0.025
0.1375   0.2125   0.025
0.1375   0.2375   0.025
0.1375   0.2625   0.025
0.1375   0.2875   0.025
0.1375   0.3125   0.025
0.1375   0.3375   0.025
0.1375   0.3625   0.025
0.1375   0.3875   0.025
0.1375   0.4125   0.025
0.1375   0.4375   0.025
0.1375   0.4625   0.025
0.1375   0.4875   0.025
0.1375   0.5125   0.025
0.1375   0.5375   0.025
0.1375   0.5625   0.025
0.1375   0.5875   0.025
0.1375   0.6125   0.025
0.1375   0.6375   0.025
0.1375   0.6625   0.025
0.1375   0.6875   0.025
0.1375   0.7125   0.025
0.1375   0.7375   0.025
0.1375   0.7625   0.025
0.1375   0.7875   0.025
0.1375   0.8125   0.025
0.1375   0.8375   0.025
0.1375   0.8625   0.025
0.1375   0.8875   0.025
0.1375   0.9125   0.025
0.1375   0.9375   0.025
0.1375   0.9625   0.025
0.1375   0.9875   0.025
0.1625   0.0125   0.025
0.1625   0.0375   0.025
0.1625   0.0625   0.025
0.1625   0.0875   0.025
0.1625   0.1125   0.025
0.1625   0.1375   0.025
0.1625   0.1625   0.025
0.1625   0.1875   0.025
0.1625   0.2125   0.025
0.1625   0.2375   0.025
0.1625   0.2625   0.025
0.1625   0.2875   0.025
0.1625   0.3125   0.025
0.1625   0.3375   0.025
0.1625   0.3625   0.025
0.1625   0.3875   0.025
0.1625   0.4125   0.025
0.1625   0.4375   0.025
0.1625   0.4625   0.025
0.1625   0.4875   0.025
0.1625   0.5125   0.025
0.1625   0.5375   0.025
0.1625   0.5625   0.025
0.1625   0.5875   0.025
0.1625   0.6125   0.025
0.1625   0.6375   0.025
0.1625   0.6625   0.025
0.1625   0.6875   0.025
0.1625   0.7125   0.025
0.1625   0.7375   0.025
0.1625   0.7625   0.025
0.1625   0.7875   0.025
0.1625   0.8125   0.025
0.1625   0.8375   0.025
0.1625   0.8625   0.025
0.1625   0.8875   0.025
0.1625   0.9125   0.025
0.1625   0.9375   0.025
0.1625   0.9625   0.025
0.1625   0.9875   0.025
0.1875   0.0125   0.025
0.1875   0.0375   0.025
0.1875   0.0625   0.025
0.1875   0.0875   0.025
0.1875   0.1125   0.025
0.1875   0.1375   0.025
0.1875   0.1625   0.025
0.1875   0.1875   0.025
0.1875   0.2125   0.025
0.1875   0.2375   0.025
0.1875   0.2625   0.025
0.1875   0.2875   0.025
0.1875   0.3125   0.025
0.1875   0.3375   0.025
0.1875   0.3625   0.025
0.1875   0.3875   0.025
0.1875   0.4125   0.025
0.1875   0.4375   0.025
0.1875   0.4625   0.025
0.1875   0.4875   0.025
0.1875   0.5125   0.025
0.1875   0.5375   0.025
0.1875   0.5625   0.025
0.1875   0.5875   0.025
0.1875   0.6125   0.025
0.1875   0.6375   0.025
0.1875   0.6625   0.025
0.1875   0.6875   0.025
0.1875   0.7125   0.025
0.1875   0.7375   0.025
0.1875   0.7625   0.025
0.1875   0.7875   0.025
0.1875   0.8125   0.025
0.1875   0.8375   0.025
0.1875   0.8625   0.025
0.1875   0.8875   0.025
0.1875   0.9125   0.025
0.1875   0.9375   0.025
0.1875   0.9625   0.025
0.1875   0.9875   0.025
0.2125   0.0125   0.025
0.2125   0.0375   0.025
0.2125   0.0625   0.025
0.2125   0.0875   0.025
0.2125   0.1125   0.025
0.2125   0.1375   0.025
0.2125   0.1625   0.025
0.2125   0.1875   0.025
0.2125   0.2125   0.025
0.2125   0.2375   0.025
0.2125   0.2625   0.025
0.2125   0.2875   0.025
0.2125   0.3125   0.025
0.2125   0.3375   0.025
0.2125   0.3625   0.025
0.2125   0.3875   0.025
0.2125   0.4125   0.025
0.2125   0.4375   0.025
0.2125   0.4625   0.025
0.2125   0.4875   0.025
0.2125   0.5125   0.025
0.2125   0.5375   0.025
0.2125   0.5625   0.025
0.2125   0.5875   0.025
0.2125   0.6125   0.025
0.2125   0.6375   0.025
0.2125   0.6625   0.025
0.2125   0.6875   0.025
0.2125   0.7125   0.025
0.2125   0.7375   0.025
0.2125   0.7625   0.025
0.2125   0.7875   0.025
0.2125   0.8125   0.025
0.2125   0.8375   0.025
0.2125   0.8625   0.025
0.2125   0.8875   0.025
0.2125   0.9125   0.025
0.2125   0.9375   0.025
0.2125   0.9625   0.025
0.2125   0.9875   0.025
0.2375   0.0125   0.025
0.2375   0.0375   0.025
0.2375   0.0625   0.025
0.2375   0.0875   0.025
0.2375   0.1125   0.025
0.2375   0.1375   0.025
0.2375   0.1625   0.025
0.2375   0.1875   0.025
0.2375   0.2125   0.025
0.2375   0.2375   0.025
0.2375   0.2625   0.025
0.2375   0.2875   0.025
0.2375   0.3125   0.025
0.2375   0.3375   0.025
0.2375   0.3625   0.025
0.2375   0.3875   0.025
0.2375   0.4125   0.025
0.2375   0.4375   0.025
0.2375   0.4625   0.025
0.2375   0.4875   0.025
0.2375   0.5125   0.025
0.2375   0.5375   0.025
0.2375   0.5625   0.025
0.2375   0.5875   0.025
0.2375   0.6125   0.025
0.2375   0.6375   0.025
0.2375   0.6625   0.025
0.2375   0.6875   0.025
0.2375   0.7125   0.025
0.2375   0.7375   0.025
0.2375   0.7625   0.025
0.2375   0.7875   0.025
0.2375   0.8125   0.025
0.2375   0.8375   0.025
0.2375   0.8625   0.025
0.2375   0.8875   0.025
0.2375   0.9125   0.025
0.2375   0.9375   0.025
0.2375   0.9625   0.025
0.2375   0.9875   0.025
0.2625   0.0125   0.025
0.2625   0.0375   0.025
0.2625   0.0625   0.025
0.2625   0.0875   0.025
0.2625   0.1125   0.025
0.2625   0.1375   0.025
0.2625   0.1625   0.025
0.2625   0.1875   0.025
0.2625   0.2125   0.025
0.2625   0.2375   0.025
0.2625   0.2625   0.025
[...]
POINT_DATA   32000
VECTORS Velocidades double

6.48824e-05 0.00121009 0
0.000254194 0.00216543 0
0.000151954 0.00175607 0
-7.67351e-07 0.00159575 0
-0.000150722 0.00172907 0
-0.00028817 0.00213829 0
-0.00041282 0.00279627 0
-0.000525952 0.00367742 0
-0.000628721 0.00475902 0
-0.000721861 0.00602061 0
-0.000805705 0.00744311 0
-0.000880248 0.00900807 0
-0.000945234 0.010697 0
-0.00100023 0.0124911 0
-0.00104473 0.0143707 0
-0.00107823 0.0163156 0
-0.0011004 0.0183049 0
-0.00111114 0.0203176 0
-0.00111075 0.022333 0
-0.0011001 0.0243321 0
-0.00108076 0.0262983 0
-0.00105521 0.0282195 0
-0.00102709 0.0300895 0
-0.00100153 0.0319112 0
-0.000985632 0.0336996 0
-0.000989198 0.0354865 0
-0.00102592 0.0373271 0
-0.00111522 0.0393093 0
-0.00128524 0.0415683 0
-0.0015776 0.0443088 0
-0.00205515 0.0478395 0
-0.00281461 0.0526289 0
-0.00400748 0.0593944 0
-0.00587415 0.0692473 0
-0.0087936 0.0839229 0
-0.0133169 0.106095 0
-0.0199258 0.139482 0
-0.0268848 0.186568 0
-0.0163081 0.230241 0
0.124138 0.123426 0
0.000137186 0.00264611 0
0.000574403 0.00522587 0
0.000251239 0.00520994 0
-0.000288788 0.00554212 0
-0.000866657 0.00637915 0
-0.00142488 0.00776754 0
-0.00194632 0.00969966 0
-0.002427 0.0121452 0
-0.00286681 0.0150654 0
-0.0032663 0.0184185 0
-0.0036256 0.0221613 0
-0.0039441 0.0262502 0
-0.00422049 0.0306403 0
-0.00445298 0.0352851 0
-0.00463957 0.0401366 0
-0.00477845 0.0451453 0
-0.00486846 0.0502604 0
-0.00490962 0.0554315 0
-0.00490368 0.0606096 0
-0.00485473 0.0657495 0
-0.00476994 0.0708126 0
-0.00466035 0.0757706 0
-0.00454186 0.0806102 0
-0.00443657 0.0853385 0
-0.00437459 0.0899907 0
-0.00439677 0.094639 0
-0.00455869 0.0994048 0
-0.00493674 0.104476 0
-0.00563702 0.110126 0
-0.00680852 0.116746 0
-0.00866159 0.124876 0
-0.0114929 0.135244 0
-0.0157145 0.148793 0
-0.0218737 0.166641 0
-0.0305995 0.189845 0
-0.0422211 0.218566 0
-0.0549948 0.249483 0
-0.0574452 0.268577 0
0.0040218 0.23605 0
0.34864 0.0998421 0
7.32954e-05 0.00386088 0
0.000440494 0.00792315 0
-0.000205187 0.00852805 0
-0.0012712 0.00962374 0
-0.00246987 0.0113472 0
-0.00367198 0.0137655 0
-0.00482218 0.0168909 0
-0.00589777 0.0207019 0
-0.00688975 0.0251588 0
-0.0077942 0.0302121 0
-0.0086085 0.0358068 0
-0.00932974 0.0418843 0
-0.00995428 0.0483831 0
-0.0104778 0.0552388 0
-0.010896 0.0623841 0
-0.011205 0.0697497 0
-0.0114025 0.0772646 0
-0.0114891 0.0848577 0
-0.011469 0.0924598 0
-0.0113516 0.100006 0
-0.0111533 0.107441 0
-0.0108987 0.114721 0
-0.0106229 0.121822 0
-0.0103741 0.128742 0
-0.0102169 0.135516 0
-0.010237 0.142219 0
-0.0105478 0.14898 0
-0.0112993 0.155993 0
-0.0126896 0.16353 0
-0.0149792 0.171953 0
-0.0185039 0.181708 0
-0.0236791 0.193299 0
-0.0309674 0.207186 0
-0.0407406 0.223528 0
-0.0528393 0.241584 0
-0.0652546 0.258386 0
-0.0702112 0.266084 0
-0.0425922 0.247883 0
0.0914556 0.178969 0
0.51364 0.0642162 0
-0.000145074 0.00499968 0
-0.000204548 0.0104488 0
-0.00136616 0.0116584 0
-0.0030778 0.0135307 0
-0.00500776 0.0161402 0
-0.0069743 0.019535 0
-0.00888323 0.0237271 0
-0.0106873 0.0286994 0
-0.0123628 0.0344143 0
-0.0138971 0.0408211 0
-0.0152817 0.0478605 0
-0.0165092 0.0554671 0
-0.0175721 0.0635703 0
-0.0184622 0.0720955 0
-0.0191718 0.0809638 0
-0.0196942 0.0900931 0
-0.0200255 0.0993987 0
-0.0201661 0.108795 0
-0.0201227 0.118197 0
-0.0199106 0.127525 0
-0.0195556 0.136705 0
-0.0190971 0.145678 0
-0.0185909 0.154398 0
-0.0181123 0.162847 0
-0.017761 0.171033 0
-0.017666 0.179002 0
-0.0179927 0.186842 0
-0.0189505 0.194687 0
-0.0208004 0.202715 0
-0.0238585 0.211133 0
-0.0284856 0.220143 0
-0.0350383 0.229857 0
-0.0437298 0.240119 0
-0.054275 0.250168 0
-0.0650271 0.257999 0
-0.0709125 0.259284 0
-0.0585486 0.24592 0
0.00462506 0.205739 0
0.189879 0.129821 0
0.619857 0.0412218 0
-0.000503796 0.00606391 0
-0.00130168 0.0127876 0
-0.00318921 0.0145202 0
-0.00567171 0.0170805 0
-0.00841662 0.0204797 0
-0.0112177 0.0247302 0
-0.0139539 0.0298293 0
-0.0165565 0.0357557 0
-0.0189864 0.0424718 0
-0.0212201 0.0499274 0
-0.0232412 0.0580627 0
-0.025036 0.0668104 0
-0.0265915 0.0760966 0
-0.0278945 0.0858419 0
-0.0289324 0.0959611 0
-0.0296946 0.106364 0
-0.0301741 0.116958 0
-0.0303701 0.127645 0
-0.0302903 0.138329 0
-0.0299541 0.148914 0
-0.0293954 0.159309 0
-0.0286661 0.169434 0
-0.0278392 0.179219 0
-0.0270131 0.188615 0
-0.0263154 0.197592 0
-0.0259075 0.206145 0
-0.0259889 0.214294 0
-0.0268008 0.22208 0
-0.0286234 0.229548 0
-0.031762 0.236723 0
-0.0365024 0.243548 0
-0.0430014 0.249782 0
-0.0510383 0.254815 0
-0.0594741 0.257353 0
-0.0651062 0.254938 0
-0.0603014 0.243328 0
-0.0283454 0.216184 0
0.0645318 0.166736 0
0.277973 0.0954386 0
0.689359 0.0276053 0
-0.000978868 0.00702433 0
-0.00277164 0.0148782 0
-0.00557164 0.0170355 0
-0.00894197 0.0201611 0
-0.0125713 0.0242125 0
-0.0162509 0.0291652 0
-0.0198476 0.0349951 0
-0.0232788 0.0416711 0
-0.026493 0.0491527 0
-0.0294567 0.0573897 0
-0.0321452 0.0663234 0
-0.0345374 0.0758875 0
-0.0366136 0.0860082 0
-0.0383541 0.096605 0
-0.0397401 0.10759 0
-0.0407552 0.11887 0
-0.0413876 0.130344 0
-0.041633 0.141906 0
-0.0414978 0.153449 0
-0.0410028 0.164862 0
-0.0401863 0.176036 0
-0.0391084 0.186869 0
-0.0378541 0.197262 0
-0.036537 0.20713 0
-0.0353024 0.216398 0
-0.0343297 0.225003 0
-0.033833 0.23289 0
-0.0340568 0.240001 0
-0.0352629 0.246258 0
-0.0376955 0.251523 0
-0.0415039 0.255541 0
-0.0465792 0.257837 0
-0.0522211 0.257563 0
-0.0564788 0.253258 0
-0.0548879 0.242558 0
-0.0381616 0.221981 0
0.0116292 0.187294 0
0.126007 0.135765 0
0.352031 0.0722903 0
0.737027 0.0194629 0
-0.001545 0.00785082 0
-0.00453405 0.0166615 0
-0.00839683 0.0191455 0
-0.0127523 0.0227073 0
-0.017321 0.0272625 0
-0.0219064 0.0327536 0
-0.0263757 0.0391352 0
-0.030641 0.0463645 0
-0.0346438 0.054396 0
-0.0383428 0.0631792 0
-0.0417059 0.0726571 0
-0.0447047 0.0827659 0
-0.0473116 0.0934343 0
-0.0494993 0.104583 0
-0.0512411 0.116123 0
-0.0525127 0.12796 0
-0.0532952 0.139988 0
-0.0535782 0.152094 0
-0.0533637 0.164159 0
-0.05267 0.17606 0
-0.0515357 0.187669 0
-0.0500238 0.198859 0
-0.0482249 0.209505 0
-0.0462598 0.219482 0
-0.0442814 0.228672 0
-0.0424739 0.236955 0
-0.0410491 0.24421 0
-0.0402347 0.250294 0
-0.0402495 0.255028 0
-0.0412507 0.258161 0
-0.0432299 0.259313 0
-0.0458087 0.257896 0
-0.0478519 0.252993 0
-0.0467536 0.24321 0
-0.0371787 0.226536 0
-0.00901184 0.200396 0
0.0554941 0.162336 0
0.184276 0.112198 0
0.413578 0.0565905 0
0.771457 0.0144244 0
-0.00217857 0.00851971 0
-0.00651349 0.0180933 0
-0.0115509 0.0208126 0
-0.016964 0.0246868 0
-0.0225103 0.0296002 0
-0.0280149 0.0354688 0
-0.0333548 0.0422288 0
-0.0384449 0.0498263 0
-0.0432249 0.0582112 0
-0.0476492 0.0673325 0
-0.0516799 0.0771358 0
-0.0552814 0.0875607 0
-0.0584182 0.0985395 0
-0.0610539 0.109995 0
-0.0631519 0.121842 0
-0.0646783 0.133982 0
-0.065604 0.146307 0
-0.0659096 0.158698 0
-0.0655891 0.171025 0
-0.0646543 0.183152 0
-0.0631398 0.194934 0
-0.0611064 0.20622 0
-0.0586441 0.216856 0
-0.0558742 0.226687 0
-0.0529486 0.235553 0
-0.050047 0.243287 0
-0.0473678 0.24971 0
-0.0451106 0.25462 0
-0.0434408 0.25777 0
-0.0424234 0.25884 0
-0.0418981 0.257392 0
-0.0412493 0.25281 0
-0.0389902 0.244217 0
-0.0320406 0.230395 0
-0.0145484 0.209754 0
0.0238282 0.180544 0
0.0998878 0.141626 0
0.237754 0.0943469 0
0.465072 0.0456826 0
0.797549 0.0111726 0
-0.00285852 0.00901446 0
-0.00864174 0.0191445 0
-0.0149286 0.022016 0
-0.0214454 0.0260887 0
-0.0279895 0.0312235 0
-0.0344135 0.0373172 0
-0.0406116 0.0442918 0
-0.0465075 0.0520851 0
-0.0520442 0.0606438 0
-0.0571753 0.0699177 0
-0.061859 0.0798556 0
-0.0660532 0.0904015 0
-0.0697138 0.101492 0
-0.0727942 0.113056 0
-0.0752466 0.125007 0
-0.0770243 0.137248 0
-0.0780857 0.14967 0
-0.078399 0.162146 0
-0.0779463 0.174539 0
-0.0767296 0.186699 0
-0.074775 0.198462 0
-0.0721365 0.20966 0
-0.0688989 0.220113 0
-0.0651785 0.229635 0
-0.0611212 0.238034 0
-0.0568961 0.245107 0
-0.0526836 0.250635 0
-0.0486512 0.254374 0
-0.0449115 0.256039 0
-0.0414444 0.255279 0
-0.0379589 0.251645 0
-0.0336474 0.244546 0
-0.0267601 0.233199 0
-0.0139053 0.216593 0
0.0110121 0.19354 0
0.0581676 0.162951 0
0.143058 0.124604 0
0.286242 0.0806631 0
0.508706 0.0378654 0
0.818151 0.00897773 0
-0.00356645 0.00932449 0
-0.0108582 0.0197972 0
-0.0184347 0.0227467 0
-0.0260749 0.0269137 0
-0.0336183 0.0321436 0
-0.0409491 0.0383202 0
-0.0479836 0.0453563 0
-0.0546597 0.0531852 0
-0.0609276 0.0617529 0
-0.0667432 0.0710116 0
-0.0720624 0.0809147 0
-0.0768373 0.0914121 0
-0.0810151 0.102446 0
-0.0845376 0.11395 0
-0.0873436 0.125841 0
-0.0893714 0.138023 0
-0.090564 0.150385 0
-0.0908735 0.162795 0
-0.0902673 0.175108 0
-0.0887334 0.187161 0
-0.0862858 0.198777 0
-0.0829683 0.209766 0
-0.078857 0.21993 0
-0.07406 0.229058 0
-0.0687142 0.236932 0
-0.0629767 0.243323 0
-0.0570089 0.247986 0
-0.0509489 0.250654 0
-0.0448622 0.251025 0
-0.0386575 0.248745 0
-0.031939 0.243382 0
-0.0237527 0.234397 0
-0.0121651 0.221117 0
0.00639669 0.202735 0
0.0380733 0.178405 0
0.0926377 0.147546 0
0.184167 0.110544 0
0.330068 0.0699659 0
0.546191 0.0320713 0
0.834969 0.00742773 0
-0.00428618 0.00944362 0
-0.0131089 0.0200423 0
-0.0219833 0.0230022 0
-0.0307412 0.0271685 0
-0.0392667 0.0323767 0
-0.0474787 0.0385036 0
-0.0553195 0.0454581 0
-0.0627448 0.053173 0
-0.0697156 0.0615966 0
-0.0761923 0.070686 0
-0.0821299 0.0804012 0
-0.0874753 0.090699 0
-0.0921661 0.101529 0
-0.0961317 0.11283 0
-0.099295 0.124523 0
-0.101577 0.136516 0
-0.102903 0.148694 0
-0.103204 0.160923 0
-0.102431 0.173049 0
-0.100554 0.184899 0
-0.0975719 0.196284 0
-0.0935159 0.206997 0
-0.088451 0.216821 0
-0.0824759 0.225529 0
-0.0757179 0.232882 0
-0.0683226 0.238634 0
-0.0604356 0.242525 0
-0.0521702 0.24428 0
-0.0435547 0.243594 0
-0.0344421 0.240127 0
-0.0243563 0.233477 0
-0.0122376 0.223168 0
0.00396659 0.208637 0
0.0279109 0.189258 0
0.0656459 0.164461 0
0.12641 0.134042 0
0.222871 0.0987806 0
0.369707 0.0614054 0
0.578796 0.0276276 0
0.849057 0.00628394 0
-0.00500325 0.00936888 0
-0.0153451 0.0198757 0
-0.0254956 0.0227842 0
-0.0353417 0.0268613 0
-0.0448138 0.0319386 0
-0.0538686 0.0378914 0
-0.0624774 0.0446298 0
-0.0706164 0.0520899 0
-0.07826 0.0602258 0
-0.0853748 0.0690024 0
-0.091916 0.0783879 0
-0.0978252 0.0883482 0
-0.10303 0.0988412 0
-0.107445 0.109812 0
-0.110977 0.121189 0
-0.113526 0.132881 0
-0.114994 0.144775 0
-0.115294 0.156732 0
-0.114351 0.168594 0
-0.112118 0.180178 0
-0.108576 0.191283 0
-0.10374 0.201689 0
-0.0976633 0.211166 0
-0.0904357 0.219469 0
-0.0821759 0.22635 0
-0.0730206 0.231549 0
-0.0631037 0.234802 0
-0.0525208 0.235831 0
-0.0412728 0.234343 0
-0.0291713 0.230013 0
-0.0156823 0.222481 0
0.000326442 0.211331 0
0.020976 0.196101 0
0.0499286 0.176316 0
0.0930548 0.151626 0
0.158993 0.122101 0
0.25907 0.0887703 0
0.405629 0.0543805 0
0.607452 0.0241029 0
0.861085 0.00540377 0
-0.00570424 0.00909982 0
-0.0175216 0.019298 0
-0.0288986 0.0220962 0
-0.0397802 0.0260006 0
-0.0501458 0.0308439 0
-0.0599927 0.0365048 0
-0.0693231 0.0428991 0
-0.0781364 0.0499707 0
-0.0864216 0.057683 0
-0.0941527 0.0660106 0
-0.101286 0.0749328 0
-0.107757 0.0844261 0
-0.113482 0.0944583 0
-0.118362 0.104983 0
-0.122281 0.115936 0
-0.125118 0.12723 0
-0.126752 0.138752 0
-0.127068 0.150364 0
-0.125968 0.161902 0
-0.123382 0.173177 0
-0.11927 0.183977 0
-0.113633 0.194073 0
-0.106512 0.203221 0
-0.0979859 0.211168 0
-0.0881686 0.217654 0
-0.0771913 0.222415 0
-0.065181 0.225185 0
-0.0522227 0.225691 0
-0.0382992 0.223652 0
-0.0231936 0.218768 0
-0.00633179 0.210714 0
0.0134642 0.199133 0
0.0383443 0.183647 0
0.0719249 0.163908 0
0.119837 0.139738 0
0.190095 0.111404 0
0.292781 0.0800831 0
0.438245 0.048464 0
0.632833 0.0212142 0
0.871493 0.00469916 0
-0.0063762 0.00863821 0
-0.0195952 0.0183133 0
-0.0321225 0.0209444 0
-0.0439652 0.0245959 0
-0.0551549 0.0291063 0
-0.0657311 0.0343626 0
-0.0757295 0.0402908 0
-0.0851735 0.0468463 0
-0.0940678 0.0540045 0
-0.102395 0.0617531 0
-0.110111 0.0700839 0
-0.117146 0.0789859 0
-0.123406 0.0884387 0
-0.128771 0.0984064 0
-0.133107 0.108832 0
-0.136266 0.119635 0
-0.138099 0.130707 0
-0.138463 0.141908 0
-0.137234 0.153073 0
-0.134316 0.164008 0
-0.129647 0.174492 0
-0.123212 0.18429 0
-0.115037 0.193147 0
-0.105197 0.200802 0
-0.0937994 0.20699 0
-0.0809748 0.211443 0
-0.0668484 0.213896 0
-0.051501 0.214084 0
-0.0349055 0.211739 0
-0.0168269 0.206585 0
0.00333411 0.19833 0
0.0267802 0.186666 0
0.0556599 0.171288 0
0.0935041 0.15195 0
0.145669 0.128606 0
0.219542 0.101663 0
0.324066 0.0723818 0
0.467888 0.043348 0
0.65543 0.0187704 0
0.880575 0.0041137 0
-0.00700625 0.00798819 0
-0.0215234 0.01693 0
-0.0350998 0.0193383 0
-0.0478089 0.0226589 0
-0.0597375 0.0267411 0
-0.0709696 0.0314849 0
-0.081575 0.0368304 0
-0.091602 0.0427474 0
-0.101072 0.0492266 0
-0.109974 0.0562704 0
-0.118267 0.0638855 0
-0.125874 0.0720749 0
-0.132686 0.0808315 0
-0.138568 0.0901313 0
-0.143358 0.099928 0
-0.146883 0.110149 0
-0.148962 0.12069 0
-0.149424 0.131416 0
-0.148111 0.142161 0
-0.144902 0.152727 0
-0.139711 0.162891 0
-0.132503 0.172409 0
-0.123295 0.181021 0
-0.112153 0.18846 0
-0.0991843 0.194454 0
-0.0845209 0.198736 0
-0.0682911 0.201043 0
-0.050577 0.201116 0
-0.0313482 0.1987 0
-0.0103605 0.193539 0
0.0129989 0.185368 0
0.0399407 0.173924 0
0.072588 0.158959 0
0.114358 0.14031 0
0.170308 0.11803 0
0.247218 0.0926274 0
0.35299 0.0654 0
0.494819 0.0388057 0
0.675597 0.0166385 0
0.888531 0.00360982 0
-0.00758125 0.00715665 0
-0.0232641 0.015162 0
-0.0377643 0.0172924 0
-0.0512265 0.0202064 0
-0.063795 0.023769 0
-0.0755993 0.0278973 0
-0.0867439 0.032549 0
-0.0973021 0.0377113 0
-0.107311 0.0433916 0
-0.11677 0.0496093 0
-0.125634 0.0563869 0
-0.133822 0.0637434 0
-0.141211 0.0716863 0
-0.147644 0.0802055 0
-0.152935 0.089267 0
-0.15688 0.0988084 0
-0.159268 0.108734 0
-0.15989 0.118916 0
-0.158559 0.129188 0
-0.15512 0.139355 0
-0.149465 0.149192 0
-0.141539 0.158449 0
-0.131345 0.166863 0
-0.118944 0.174161 0
-0.104444 0.180069 0
-0.0879822 0.184319 0
-0.0696931 0.186647 0
-0.0496647 0.186802 0
-0.027869 0.184539 0
-0.00405952 0.179615 0
0.0223808 0.171791 0
0.0526563 0.160835 0
0.0888467 0.146549 0
0.134234 0.128833 0
0.193566 0.107819 0
0.273035 0.0840808 0
0.379606 0.0589234 0
0.519228 0.0346652 0
0.693585 0.0147224 0
0.895497 0.00316145 0
-0.00808773 0.00615382 0
-0.0247753 0.0130299 0
-0.0400518 0.0148286 0
-0.0541368 0.0172633 0
-0.0672337 0.0202197 0
-0.0795174 0.0236359 0
-0.091127 0.0274895 0
-0.10216 0.0317872 0
-0.11267 0.0365549 0
-0.122662 0.0418294 0
-0.132093 0.0476505 0
-0.140872 0.0540538 0
-0.148863 0.0610632 0
-0.155887 0.0686841 0
-0.161732 0.0768974 0
-0.166163 0.0856538 0
-0.168931 0.0948699 0
-0.169794 0.104425 0
-0.168528 0.114163 0
-0.164946 0.12389 0
-0.158911 0.133381 0
-0.150347 0.142389 0
-0.139244 0.150645 0
-0.125658 0.157875 0
-0.109699 0.163801 0
-0.0915087 0.168151 0
-0.0712333 0.170665 0
-0.0489696 0.171092 0
-0.0246962 0.169193 0
0.00183021 0.164737 0
0.0312226 0.157502 0
0.064668 0.147282 0
0.104187 0.133915 0
0.152911 0.117354 0
0.215276 0.0977871 0
0.296914 0.0758316 0
0.403941 0.0527757 0
0.541248 0.0307923 0
0.709567 0.0129501 0
0.901563 0.00274973 0
-0.00851199 0.00499387 0
-0.026016 0.0105627 0
-0.041901 0.0119782 0
-0.0564637 0.0138655 0
-0.0699665 0.0161358 0
-0.0826291 0.0187511 0
-0.0946234 0.0217113 0
-0.10607 0.0250432 0
-0.117037 0.0287916 0
-0.127537 0.0330113 0
-0.137525 0.0377595 0
-0.146904 0.0430892 0
-0.155522 0.0490418 0
-0.163178 0.0556401 0
-0.169635 0.0628824 0
-0.174622 0.0707359 0
-0.177857 0.0791325 0
-0.179056 0.0879656 0
-0.177958 0.0970888 0
-0.17434 0.106317 0
-0.168036 0.115433 0
-0.158944 0.124187 0
-0.147042 0.132315 0
-0.132377 0.139537 0
-0.11506 0.145574 0
-0.095244 0.150151 0
-0.0730836 0.153005 0
-0.0486882 0.153884 0
-0.0220464 0.152553 0
0.00707706 0.148785 0
0.0392843 0.142369 0
0.0757354 0.133117 0
0.118379 0.120898 0
0.170187 0.105701 0
0.23528 0.0877579 0
0.318764 0.0677086 0
0.425993 0.0468079 0
0.560958 0.0270786 0
0.723655 0.0112659 0
0.906787 0.00236044 0
-0.00884045 0.00369542 0
-0.0269469 0.00779891 0
-0.0432548 0.00878381 0
-0.0581379 0.0100627 0
-0.0719155 0.0115762 0
-0.0848494 0.0133127 0
-0.097142 0.0152951 0
-0.108935 0.0175706 0
-0.12031 0.0202024 0
-0.131285 0.0232624 0
-0.141815 0.0268253 0
-0.151796 0.0309614 0
-0.161061 0.0357303 0
-0.16939 0.0411743 0
-0.176516 0.0473112 0
-0.182137 0.0541288 0
-0.18593 0.0615785 0
-0.187574 0.0695722 0
-0.186767 0.0779799 0
-0.183246 0.0866306 0
-0.17681 0.0953156 0
-0.167332 0.103794 0
-0.154772 0.111802 0
-0.139167 0.119061 0
-0.120631 0.125288 0
-0.0993212 0.130205 0
-0.0754058 0.133542 0
-0.0490071 0.135045 0
-0.0201263 0.134474 0
0.0114598 0.131604 0
0.0463365 0.126229 0
0.0856281 0.118172 0
0.131202 0.107323 0
0.185861 0.0937003 0
0.253417 0.0775616 0
0.338481 0.0595562 0
0.445728 0.0408907 0
0.578388 0.0234341 0
0.73591 0.00962472 0
0.911199 0.00198244 0
-0.0090601 0.00228199 0
-0.0275324 0.00478785 0
-0.0440633 0.00530114 0
-0.0590999 0.00591999 0
-0.0730145 0.00661817 0
-0.0861063 0.0074117 0
-0.0986046 0.00834628 0
-0.11067 0.00948826 0
-0.122395 0.0109177 0
-0.133803 0.0127226 0
-0.144852 0.0149935 0
-0.155427 0.0178177 0
-0.165352 0.0212736 0
-0.174385 0.0254239 0
-0.182235 0.0303093 0
-0.188565 0.0359411 0
-0.193017 0.0422957 0
-0.195227 0.049309 0
-0.194849 0.0568738 0
-0.191579 0.0648389 0
-0.185177 0.0730115 0
-0.175488 0.0811626 0
-0.162446 0.0890346 0
-0.146079 0.096351 0
-0.126495 0.102827 0
-0.103859 0.108177 0
-0.0783492 0.112126 0
-0.0501023 0.114411 0
-0.0191335 0.114784 0
0.0147648 0.113016 0
0.0521555 0.108898 0
0.0941193 0.102262 0
0.142434 0.0930077 0
0.199729 0.0811737 0
0.269513 0.0670333 0
0.35594 0.0512296 0
0.463078 0.0349087 0
0.593526 0.0197813 0
0.746352 0.00798927 0
0.914812 0.00160668 0
-0.00915926 0.000782136 0
-0.0277424 0.00158997 0
-0.0442857 0.00159947 0
-0.0593031 0.00151954 0
-0.0732121 0.00135944 0
-0.0863437 0.00116285 0
-0.0989489 0.000996889 0
-0.111204 0.000944914 0
-0.123211 0.00110139 0
-0.135 0.00156778 0
-0.146527 0.00244861 0
-0.157676 0.0038471 0
-0.168258 0.00586004 0
-0.178018 0.00857189 0
-0.186636 0.012048 0
-0.193749 0.0163276 0
-0.19896 0.0214167 0
-0.201864 0.0272818 0
-0.202068 0.0338453 0
-0.199225 0.0409835 0
-0.193052 0.0485269 0
-0.183358 0.0562644 0
-0.170048 0.0639504 0
-0.153132 0.0713135 0
-0.132713 0.0780678 0
-0.108955 0.0839228 0
-0.082047 0.0885925 0
-0.052137 0.0918018 0
-0.0192562 0.0932912 0
0.0167842 0.0928202 0
0.0565196 0.0901751 0
0.10098 0.0851851 0
0.151848 0.0777579 0
0.211573 0.06794 0
0.283378 0.0560096 0
0.370987 0.0425904 0
0.47794 0.0287557 0
0.60632 0.0160513 0
0.754963 0.0063272 0
0.91762 0.00122551 0
-0.00912837 -0.000770666 0
-0.0275545 -0.00172329 0
-0.0438942 -0.00223825 0
-0.0587168 -0.00303982 0
-0.0724754 -0.00408231 0
-0.0855246 -0.00529563 0
-0.0981318 -0.00659384 0
-0.110484 -0.00787989 0
-0.122693 -0.00904839 0
-0.134793 -0.00998772 0
-0.146744 -0.0105822 0
-0.158427 -0.0107147 0
-0.169647 -0.0102712 0
-0.180135 -0.0091452 0
-0.189553 -0.00724466 0
-0.197511 -0.00449926 0
-0.203577 -0.000868175 0
-0.207303 0.00365225 0
-0.208254 0.00902211 0
-0.206032 0.0151535 0
-0.200309 0.0219091 0
-0.190848 0.029104 0
-0.177523 0.0365111 0
-0.160316 0.0438697 0
-0.139316 0.0508958 0
-0.114684 0.0572936 0
-0.086611 0.0627657 0
-0.0552582 0.0670215 0
-0.0206718 0.0697848 0
0.0173158 0.0707994 0
0.0592074 0.0698394 0
0.105977 0.0667272 0
0.159203 0.0613689 0
0.221162 0.0538115 0
0.294795 0.044326 0
0.38344 0.0335035 0
0.490176 0.0223311 0
0.61668 0.0121809 0
0.761695 0.00460959 0
0.919602 0.000832243 0
-0.00896093 -0.00233852 0
-0.0269562 -0.00507051 0
-0.042876 -0.00611646 0
-0.0573295 -0.00764363 0
-0.070793 -0.00957051 0
-0.0836352 -0.0118033 0
-0.0961328 -0.0142409 0
-0.108481 -0.0167769 0
-0.120797 -0.0192993 0
-0.133122 -0.0216905 0
-0.145419 -0.0238274 0
-0.157573 -0.0255823 0
-0.169386 -0.0268255 0
-0.180582 -0.0274295 0
-0.19081 -0.0272748 0
-0.199656 -0.0262571 0
-0.20666 -0.0242963 0
-0.211335 -0.021345 0
-0.213199 -0.0173973 0
-0.211805 -0.0124956 0