# vtk DataFile Version 2.0
Presion
ASCII

DATASET STRUCTURED_GRID
DIMENSIONS   40   40   20

POINTS   32000   double
0.0125   0.0125   0.025
0.0375   0.0125   0.025
0.0625   0.0125   0.025
0.0875   0.0125   0.025
0.1125   0.0125   0.025
0.1375   0.0125   0.025
0.1625   0.0125   0.025
0.1875   0.0125   0.025
0.2125   0.0125   0.025
0.2375   0.0125   0.025
0.2625   0.0125   0.025
0.2875   0.0125   0.025
0.3125   0.0125   0.025
0.3375   0.0125   0.025
0.3625   0.0125   0.025
0.3875   0.0125   0.025
0.4125   0.0125   0.025
0.4375   0.0125   0.025
0.4625   0.0125   0.025
0.4875   0.0125   0.025
0.5125   0.0125   0.025
0.5375   0.0125   0.025
0.5625   0.0125   0.025
0.5875   0.0125   0.025
0.6125   0.0125   0.025
0.6375   0.0125   0.025
0.6625   0.0125   0.025
0.6875   0.0125   0.025
0.7125   0.0125   0.025
0.7375   0.0125   0.025
0.7625   0.0125   0.025
0.7875   0.0125   0.025
0.8125   0.0125   0.025
0.8375   0.0125   0.025
0.8625   0.0125   0.025
0.8875   0.0125   0.025
0.9125   0.0125   0.025
0.9375   0.0125   0.025
0.9625   0.0125   0.025
0.9875   0.0125   0.025
0.0125   0.0375   0.025
0.0375   0.0375   0.025
0.0625   0.0375   0.025
0.0875   0.0375   0.025
0.1125   0.0375   0.025
0.1375   0.0375   0.025
0.1625   0.0375   0.025
0.1875   0.0375   0.025
0.2125   0.0375   0.025
0.2375   0.0375   0.025
0.2625   0.0375   0.025
0.2875   0.0375   0.025
0.3125   0.0375   0.025
0.3375   0.0375   0.025
0.3625   0.0375   0.025
0.3875   0.0375   0.025
0.4125   0.0375   0.025
0.4375   0.0375   0.025
0.4625   0.0375   0.025
0.4875   0.0375   0.025
0.5125   0.0375   0.025
0.5375   0.0375   0.025
0.5625   0.0375   0.025
0.5875   0.0375   0.025
0.6125   0.0375   0.025
0.6375   0.0375   0.025
0.6625   0.0375   0.025
0.6875   0.0375   0.025
0.7125   0.0375   0.025
0.7375   0.0375   0.025
0.7625   0.0375   0.025
0.7875   0.0375   0.025
0.8125   0.0375   0.025
0.8375   0.0375   0.025
0.8625   0.0375   0.025
0.8875   0.0375   0.025
0.9125   0.0375   0.025
0.9375   0.0375   0.025
0.9625   0.0375   0.025
0.9875   0.0375   0.025
0.0125   0.0625   0.025
0.0375   0.0625   0.025
0.0625   0.0625   0.025
0.0875   0.0625   0.025
0.1125   0.0625   0.025
0.1375   0.0625   0.025
0.1625   0.0625   0.025
0.1875   0.0625   0.025
0.2125   0.0625   0.025
0.2375   0.0625   0.025
0.2625   0.0625   0.025
0.2875   0.0625   0.025
0.3125   0.0625   0.025
0.3375   0.0625   0.025
0.3625   0.0625   0.025
0.3875   0.0625   0.025
0.4125   0.0625   0.025
0.4375   0.0625   0.025
0.4625   0.0625   0.025
0.4875   0.0625   0.025
0.5125   0.0625   0.025
0.5375   0.0625   0.025
0.5625   0.0625   0.025
0.5875   0.0625   0.025
0.6125   0.0625   0.025
0.6375   0.0625   0.025
0.6625   0.0625   0.025
0.6875   0.0625   0.025
0.7125   0.0625   0.025
0.7375   0.0625   0.025
0.7625   0.0625   0.025
0.7875   0.0625   0.025
0.8125   0.0625   0.025
0.8375   0.0625   0.025
0.8625   0.0625   0.025
0.8875   0.0625   0.025
0.9125   0.0625   0.025
0.9375   0.0625   0.025
0.9625   0.0625   0.025
0.9875   0.0625   0.025
0.0125   0.0875   0.025
0.0375   0.0875   0.025
0.0625   0.0875   0.025
0.0875   0.0875   0.025
0.1125   0.0875   0.025
0.1375   0.0875   0.025
0.1625   0.0875   0.025
0.1875   0.0875   0.025
0.2125   0.0875   0.025
0.2375   0.0875   0.025
0.2625   0.0875   0.025
0.2875   0.0875   0.025
0.3125   0.0875   0.025
0.3375   0.0875   0.025
0.3625   0.0875   0.025
0.3875   0.0875   0.025
0.4125   0.0875   0.025
0.4375   0.0875   0.025
0.4625   0.0875   0.025
0.4875   0.0875   0.025
0.5125   0.0875   0.025
0.5375   0.0875   0.025
0.5625   0.0875   0.025
0.5875   0.0875   0.025
0.6125   0.0875   0.025
0.6375   0.0875   0.025
0.6625   0.0875   0.025
0.6875   0.0875   0.025
0.7125   0.0875   0.025
0.7375   0.0875   0.025
0.7625   0.0875   0.025
0.7875   0.0875   0.025
0.8125   0.0875   0.025
0.8375   0.0875   0.025
0.8625   0.0875   0.025
0.8875   0.0875   0.025
0.9125   0.0875   0.025
0.9375   0.0875   0.025
0.9625   0.0875   0.025
0.9875   0.0875   0.025
0.0125   0.1125   0.025
0.0375   0.1125   0.025
0.0625   0.1125   0.025
0.0875   0.1125   0.025
0.1125   0.1125   0.025
0.1375   0.1125   0.025
0.1625   0.1125   0.025
0.1875   0.1125   0.025
0.2125   0.1125   0.025
0.2375   0.1125   0.025
0.2625   0.1125   0.025
0.2875   0.1125   0.025
0.3125   0.1125   0.025
0.3375   0.1125   0.025
0.3625   0.1125   0.025
0.3875   0.1125   0.025
0.4125   0.1125   0.025
0.4375   0.1125   0.025
0.4625   0.1125   0.025
0.4875   0.1125   0.025
0.5125   0.1125   0.025
0.5375   0.1125   0.025
0.5625   0.1125   0.025
0.5875   0.1125   0.025
0.6125   0.1125   0.025
0.6375   0.1125   0.025
0.6625   0.1125   0.025
0.6875   0.1125   0.025
0.7125   0.1125   0.025
0.7375   0.1125   0.025
0.7625   0.1125   0.025
0.7875   0.1125   0.025
0.8125   0.1125   0.025
0.8375   0.1125   0.025
0.8625   0.1125   0.025
0.8875   0.1125   0.025
0.9125   0.1125   0.025
0.9375   0.1125   0.025
0.9625   0.1125   0.025
0.9875   0.1125   0.025
0.0125   0.1375   0.025
0.0375   0.1375   0.025
0.0625   0.1375   0.025
0.0875   0.1375   0.025
0.1125   0.1375   0.025
0.1375   0.1375   0.025
0.1625   0.1375   0.025
0.1875   0.1375   0.025
0.2125   0.1375   0.025
0.2375   0.1375   0.025
0.2625   0.1375   0.025
0.2875   0.1375   0.025
0.3125   0.1375   0.025
0.3375   0.1375   0.025
0.3625   0.1375   0.025
0.3875   0.1375   0.025
0.4125   0.1375   0.025
0.4375   0.1375   0.025
0.4625   0.1375   0.025
0.4875   0.1375   0.025
0.5125   0.1375   0.025
0.5375   0.1375   0.025
0.5625   0.1375   0.025
0.5875   0.1375   0.025
0.6125   0.1375   0.025
0.6375   0.1375   0.025
0.6625   0.1375   0.025
0.6875   0.1375   0.025
0.7125   0.1375   0.025
0.7375   0.1375   0.025
0.7625   0.1375   0.025
0.7875   0.1375   0.025
0.8125   0.1375   0.025
0.8375   0.1375   0.025
0.8625   0.1375   0.025
0.8875   0.1375   0.025
0.9125   0.1375   0.025
0.9375   0.1375   0.025
0.9625   0.1375   0.025
0.9875   0.1375   0.025
0.0125   0.1625   0.025
0.0375   0.1625   0.025
0.0625   0.1625   0.025
0.0875   0.1625   0.025
0.1125   0.1625   0.025
0.1375   0.1625   0.025
0.1625   0.1625   0.025
0.1875   0.1625   0.025
0.2125   0.1625   0.025
0.2375   0.1625   0.025
0.2625   0.1625   0.025
0.2875   0.1625   0.025
0.3125   0.1625   0.025
0.3375   0.1625   0.025
0.3625   0.1625   0.025
0.3875   0.1625   0.025
0.4125   0.1625   0.025
0.4375   0.1625   0.025
0.4625   0.1625   0.025
0.4875   0.1625   0.025
0.5125   0.1625   0.025
0.5375   0.1625   0.025
0.5625   0.1625   0.025
0.5875   0.1625   0.025
0.6125   0.1625   0.025
0.6375   0.1625   0.025
0.6625   0.1625   0.025
0.6875   0.1625   0.025
0.7125   0.1625   0.025
0.7375   0.1625   0.025
0.7625   0.1625   0.025
0.7875   0.1625   0.025
0.8125   0.1625   0.025
0.8375   0.1625   0.025
0.8625   0.1625   0.025
0.8875   0.1625   0.025
0.9125   0.1625   0.025
0.9375   0.1625   0.025
0.9625   0.1625   0.025
0.9875   0.1625   0.025
0.0125   0.1875   0.025
0.0375   0.1875   0.025
0.0625   0.1875   0.025
0.0875   0.1875   0.025
0.1125   0.1875   0.025
0.1375   0.1875   0.025
0.1625   0.1875   0.025
0.1875   0.1875   0.025
0.2125   0.1875   0.025
0.2375   0.1875   0.025
0.2625   0.1875   0.025
0.2875   0.1875   0.025
0.3125   0.1875   0.025
0.3375   0.1875   0.025
0.3625   0.1875   0.025
0.3875   0.1875   0.025
0.4125   0.1875   0.025
0.4375   0.1875   0.025
0.4625   0.1875   0.025
0.4875   0.1875   0.025
0.5125   0.1875   0.025
0.5375   0.1875   0.025
0.5625   0.1875   0.025
0.5875   0.1875   0.025
0.6125   0.1875   0.025
0.6375   0.1875   0.025
0.6625   0.1875   0.025
0.6875   0.1875   0.025
0.7125   0.1875   0.025
0.7375   0.1875   0.025
0.7625   0.1875   0.025
0.7875   0.1875   0.025
0.8125   0.1875   0.025
0.8375   0.1875   0.025
0.8625   0.1875   0.025
0.8875   0.1875   0.025
0.9125   0.1875   0.025
0.9375   0.1875   0.025
0.9625   0.1875   0.025
0.9875   0.1875   0.025
0.0125   0.2125   0.025
0.0375   0.2125   0.025
0.0625   0.2125   0.025
0.0875   0.2125   0.025
0.1125   0.2125   0.025
0.1375   0.2125   0.025
0.1625   0.2125   0.025
0.1875   0.2125   0.025
0.2125   0.2125   0.025
0.2375   0.2125   0.025
0.2625   0.2125   0.025
0.2875   0.2125   0.025
0.3125   0.2125   0.025
0.3375   0.2125   0.025
0.3625   0.2125   0.025
0.3875   0.2125   0.025
0.4125   0.2125   0.025
0.4375   0.2125   0.025
0.4625   0.2125   0.025
0.4875   0.2125   0.025
0.5125   0.2125   0.025
0.5375   0.2125   0.025
0.5625   0.2125   0.025
0.5875   0.2125   0.025
0.6125   0.2125   0.025
0.6375   0.2125   0.025
0.6625   0.2125   0.025
0.6875   0.2125   0.025
0.7125   0.2125   0.025
0.7375   0.2125   0.025
0.7625   0.2125   0.025
0.7875   0.2125   0.025
0.8125   0.2125   0.025
0.8375   0.2125   0.025
0.8625   0.2125   0.025
0.8875   0.2125   0.025
0.9125   0.2125   0.025
0.9375   0.2125   0.025
0.9625   0.2125   0.025
0.9875   0.2125   0.025
0.0125   0.2375   0.025
0.0375   0.2375   0.025
0.0625   0.2375   0.025
0.0875   0.2375   0.025
0.1125   0.2375   0.025
0.1375   0.2375   0.025
0.1625   0.2375   0.025
0.1875   0.2375   0.025
0.2125   0.2375   0.025
0.2375   0.2375   0.025
0.2625   0.2375   0.025
0.2875   0.2375   0.025
0.3125   0.2375   0.025
0.3375   0.2375   0.025
0.3625   0.2375   0.025
0.3875   0.2375   0.025
0.4125   0.2375   0.025
0.4375   0.2375   0.025
0.4625   0.2375   0.025
0.4875   0.2375   0.025
0.5125   0.2375   0.025
0.5375   0.2375   0.025
0.5625   0.2375   0.025
0.5875   0.2375   0.025
0.6125   0.2375   0.025
0.6375   0.2375   0.025
0.6625   0.2375   0.025
0.6875   0.2375   0.025
0.7125   0.2375   0.025
0.7375   0.2375   0.025
0.7625   0.2375   0.025
0.7875   0.2375   0.025
0.8125   0.2375   0.025
0.8375   0.2375   0.025
0.8625   0.2375   0.025
0.8875   0.2375   0.025
0.9125   0.2375   0.025
0.9375   0.2375   0.025
0.9625   0.2375   0.025
0.9875   0.2375   0.025
0.0125   0.2625   0.025
0.0375   0.2625   0.025
0.0625   0.2625   0.025
0.0875   0.2625   0.025
0.1125   0.2625   0.025
0.1375   0.2625   0.025
0.1625   0.2625   0.025
0.1875   0.2625   0.025
0.2125   0.2625   0.025
0.2375   0.2625   0.025
0.2625   0.2625   0.025
[...]
POINT_DATA   32000
SCALARS Presion double
LOOKUP_TABLE   Presion

0 0 0 0 0 0 0 0 0 0 0 0 0 0 0 0 0 0 0 0 0 0 0 0 0 0 0 0 0 0 0 0 0 0 0 0 0 0 0 0 -4.88878e-06 -4.84771e-06 -4.77176e-06 -4.66439e-06 -4.52785e-06 -4.36393e-06 -4.17416e-06 -3.9599e-06 -3.72234e-06 -3.46253e-06 -3.18129e-06 -2.87955e-06 -2.55735e-06 -2.21481e-06 -1.85183e-06 -1.46808e-06 -1.06309e-06 -6.3632e-07 -1.87192e-07 2.84769e-07 7.7984e-07 1.29787e-06 1.83848e-06 2.40057e-06 2.98231e-06 3.58097e-06 4.19283e-06 4.81306e-06 5.43567e-06 6.05349e-06 6.65825e-06 7.2411e-06 7.7918e-06 8.30014e-06 8.75596e-06 9.14974e-06 9.47306e-06 9.71923e-06 9.88383e-06 9.96534e-06 -9.77471e-06 -9.69328e-06 -9.54191e-06 -9.32732e-06 -9.05413e-06 -8.72599e-06 -8.34606e-06 -7.91714e-06 -7.44172e-06 -6.92196e-06 -6.35958e-06 -5.75647e-06 -5.11274e-06 -4.42864e-06 -3.70396e-06 -2.93803e-06 -2.12988e-06 -1.27834e-06 -3.82219e-07 5.59527e-07 1.54754e-06 2.58163e-06 3.66113e-06 4.78397e-06 5.9466e-06 7.14371e-06 8.36795e-06 9.60976e-06 1.08572e-05 1.20959e-05 1.33094e-05 1.44798e-05 1.55865e-05 1.66088e-05 1.75262e-05 1.83193e-05 1.89711e-05 1.94677e-05 1.98001e-05 1.99651e-05 -1.46708e-05 -1.45489e-05 -1.43217e-05 -1.3999e-05 -1.35881e-05 -1.30943e-05 -1.25228e-05 -1.18779e-05 -1.11636e-05 -1.03832e-05 -9.53943e-06 -8.63526e-06 -7.67093e-06 -6.64683e-06 -5.56259e-06 -4.41717e-06 -3.20898e-06 -1.93613e-06 -5.96653e-07 8.11213e-07 2.28867e-06 3.83571e-06 5.45161e-06 7.13357e-06 8.87657e-06 1.06729e-05 1.25119e-05 1.43794e-05 1.62575e-05 1.81249e-05 1.99565e-05 2.17252e-05 2.33998e-05 2.49486e-05 2.634e-05 2.75441e-05 2.85345e-05 2.92899e-05 2.9796e-05 3.00473e-05 -1.95896e-05 -1.94265e-05 -1.91222e-05 -1.86897e-05 -1.81386e-05 -1.74768e-05 -1.67111e-05 -1.58479e-05 -1.48926e-05 -1.38502e-05 -1.27244e-05 -1.15194e-05 -1.02356e-05 -8.87362e-06 -7.43285e-06 -5.91177e-06 -4.30806e-06 -2.61893e-06 -8.41391e-07 1.02728e-06 2.98915e-06 5.0447e-06 7.19351e-06 9.4324e-06 1.17553e-05 1.41525e-05 1.66101e-05 1.91098e-05 2.1628e-05 2.41362e-05 2.66007e-05 2.89849e-05 3.1246e-05 3.33407e-05 3.52254e-05 3.68586e-05 3.82035e-05 3.92303e-05 3.99188e-05 4.0261e-05 -2.45434e-05 -2.43381e-05 -2.39544e-05 -2.34091e-05 -2.27145e-05 -2.18807e-05 -2.09169e-05 -1.98316e-05 -1.86323e-05 -1.73255e-05 -1.59165e-05 -1.44107e-05 -1.28088e-05 -1.11116e-05 -9.31828e-06 -7.42666e-06 -5.43349e-06 -3.33482e-06 -1.12638e-06 1.19591e-06 3.63533e-06 6.19331e-06 8.87019e-06 1.16629e-05 1.45649e-05 1.75648e-05 2.06463e-05 2.3787e-05 2.6958e-05 3.01234e-05 3.3241e-05 3.62638e-05 3.91371e-05 4.18046e-05 4.42093e-05 4.62968e-05 4.80183e-05 4.93341e-05 5.02171e-05 5.0656e-05 -2.95448e-05 -2.92956e-05 -2.88297e-05 -2.81673e-05 -2.73239e-05 -2.63126e-05 -2.5145e-05 -2.38323e-05 -2.23844e-05 -2.08099e-05 -1.91157e-05 -1.73088e-05 -1.53903e-05 -1.33612e-05 -1.12203e-05 -8.9647e-06 -6.58987e-06 -4.09039e-06 -1.46032e-06 1.30617e-06 4.21411e-06 7.26639e-06 1.04647e-05 1.38068e-05 1.72861e-05 2.08906e-05 2.46019e-05 2.83942e-05 3.22334e-05 3.60768e-05 3.98729e-05 4.35642e-05 4.70826e-05 5.03576e-05 5.33172e-05 5.58919e-05 5.80189e-05 5.96468e-05 6.07403e-05 6.12839e-05 -3.4607e-05 -3.43117e-05 -3.37592e-05 -3.2974e-05 -3.1975e-05 -3.07783e-05 -2.93992e-05 -2.78517e-05 -2.61488e-05 -2.43016e-05 -2.23194e-05 -2.02106e-05 -1.79771e-05 -1.56201e-05 -1.31378e-05 -1.05263e-05 -7.77956e-06 -4.89029e-06 -1.85037e-06 1.3483e-06 4.71308e-06 8.24898e-06 1.19598e-05 1.58447e-05 1.98982e-05 2.41083e-05 2.84554e-05 3.2911e-05 3.74364e-05 4.19823e-05 4.64878e-05 5.0884e-05 5.50884e-05 5.90145e-05 6.25728e-05 6.56763e-05 6.82457e-05 7.02154e-05 7.15396e-05 7.21982e-05 -3.97439e-05 -3.93995e-05 -3.87549e-05 -3.78392e-05 -3.66751e-05 -3.52828e-05 -3.36815e-05 -3.18893e-05 -2.99226e-05 -2.77961e-05 -2.55214e-05 -2.31094e-05 -2.05626e-05 -1.78822e-05 -1.50661e-05 -1.21087e-05 -9.00223e-06 -5.73685e-06 -2.30178e-06 1.31396e-06 5.12071e-06 9.12638e-06 1.33376e-05 1.77562e-05 2.23784e-05 2.71934e-05 3.21816e-05 3.73127e-05 4.25444e-05 4.78207e-05 5.30718e-05 5.82163e-05 6.31561e-05 6.77864e-05 7.19976e-05 7.56817e-05 7.87394e-05 8.1088e-05 8.26688e-05 8.34553e-05 -4.49711e-05 -4.45737e-05 -4.38297e-05 -4.27732e-05 -4.14316e-05 -3.983e-05 -3.79925e-05 -3.59419e-05 -3.36997e-05 -3.12845e-05 -2.87115e-05 -2.59939e-05 -2.31355e-05 -2.01375e-05 -1.69966e-05 -1.37057e-05 -1.02543e-05 -6.62959e-06 -2.81753e-06 1.19652e-06 5.42658e-06 9.88429e-06 1.45801e-05 1.95193e-05 2.47015e-05 3.01182e-05 3.57511e-05 4.15695e-05 4.75284e-05 5.35664e-05 5.96043e-05 6.55478e-05 7.12817e-05 7.66802e-05 8.16101e-05 8.59384e-05 8.95415e-05 9.23152e-05 9.41847e-05 9.51152e-05 -5.03061e-05 -4.98507e-05 -4.89978e-05 -4.77871e-05 -4.62518e-05 -4.44228e-05 -4.23302e-05 -4.00035e-05 -3.74699e-05 -3.47536e-05 -3.18741e-05 -2.88476e-05 -2.56793e-05 -2.23703e-05 -1.89159e-05 -1.53065e-05 -1.15283e-05 -7.56481e-06 -3.39788e-06 9.91436e-07 5.62167e-06 1.0509e-05 1.56688e-05 2.11111e-05 2.684e-05 3.28511e-05 3.91292e-05 4.5645e-05 5.23524e-05 5.91855e-05 6.60566e-05 7.28577e-05 7.94546e-05 8.56976e-05 9.14257e-05 9.64758e-05 0.000100694 0.00010395 0.000106149 0.000107243 -5.57695e-05 -5.52495e-05 -5.42754e-05 -5.28934e-05 -5.11431e-05 -4.90629e-05 -4.66907e-05 -4.4064e-05 -4.1218e-05 -3.81838e-05 -3.49867e-05 -3.16468e-05 -2.81705e-05 -2.45588e-05 -2.08047e-05 -1.68952e-05 -1.28124e-05 -8.53501e-06 -4.04e-06 6.96649e-07 5.69872e-06 1.09879e-05 1.65853e-05 2.25071e-05 2.87636e-05 3.53564e-05 4.22755e-05 4.94955e-05 5.69714e-05 6.46347e-05 7.23899e-05 8.01152e-05 8.76555e-05 9.48337e-05 0.000101456 0.000107322 0.000112242 0.00011605 0.000118627 0.000119911 -6.13859e-05 -6.07932e-05 -5.96821e-05 -5.81064e-05 -5.61137e-05 -5.37513e-05 -5.10671e-05 -4.8109e-05 -4.49225e-05 -4.15483e-05 -3.80189e-05 -3.43593e-05 -3.05776e-05 -2.66736e-05 -2.26372e-05 -1.84504e-05 -1.40898e-05 -9.52851e-06 -4.73747e-06 3.13034e-07 5.65273e-06 1.13095e-05 1.73113e-05 2.36818e-05 3.04393e-05 3.75935e-05 4.51427e-05 5.30683e-05 6.13296e-05 6.98583e-05 7.85527e-05 8.72775e-05 9.58547e-05 0.000104075 0.000111706 0.000118503 0.000124229 0.000128678 0.000131694 0.000133198 -6.71858e-05 -6.65098e-05 -6.52416e-05 -6.34437e-05 -6.11731e-05 -5.84883e-05 -5.54495e-05 -5.21183e-05 -4.85542e-05 -4.48103e-05 -4.09292e-05 -3.69419e-05 -3.28585e-05 -2.86762e-05 -2.43796e-05 -1.9944e-05 -1.53385e-05 -1.0529e-05 -5.47993e-06 -1.55097e-07 5.48155e-06 1.14647e-05 1.78298e-05 2.46095e-05 3.18316e-05 3.95173e-05 4.76761e-05 5.63002e-05 6.53581e-05 7.47855e-05 8.44779e-05 9.42868e-05 0.000104009 0.0001134 0.000122178 0.000130044 0.000136705 0.000141901 0.000145433 0.000147196 -7.32067e-05 -7.24344e-05 -7.09839e-05 -6.89274e-05 -6.63335e-05 -6.32737e-05 -5.98245e-05 -5.60652e-05 -5.20736e-05 -4.79204e-05 -4.36621e-05 -3.93377e-05 -3.49586e-05 -3.05172e-05 -2.59896e-05 -2.1341e-05 -1.65306e-05 -1.15155e-05 -6.25273e-06 -6.99452e-07 5.18666e-06 1.14471e-05 1.81256e-05 2.52644e-05 3.29035e-05 4.10777e-05 4.98121e-05 5.91157e-05 6.89716e-05 7.93264e-05 9.00777e-05 0.000101065 0.00011206 0.000122771 0.000132863 0.000141968 0.000149723 0.000155797 0.000159939 0.000162008 -7.94961e-05 -7.86113e-05 -7.69469e-05 -7.45862e-05 -7.16108e-05 -6.81086e-05 -6.41756e-05 -5.99144e-05 -5.54281e-05 -5.08122e-05 -4.61432e-05 -4.14712e-05 -3.68072e-05 -3.21346e-05 -2.74153e-05 -2.25995e-05 -1.7633e-05 -1.24625e-05 -7.0368e-06 -1.30717e-06 4.77419e-06 1.1255e-05 1.8187e-05 2.56231e-05 3.36169e-05 4.22203e-05 5.14788e-05 6.14244e-05 7.20646e-05 8.33664e-05 9.52376e-05 0.000107511 0.000119925 0.00013214 0.000143747 0.000154298 0.000163338 0.000170455 0.000175323 0.000177759 -8.61138e-05 -8.50965e-05 -8.31794e-05 -8.04578e-05 -7.70279e-05 -7.29963e-05 -6.84833e-05 -6.36213e-05 -5.85486e-05 -5.33966e-05 -4.82724e-05 -4.32422e-05 -3.83136e-05 -3.34519e-05 -2.85954e-05 -2.36716e-05 -1.86086e-05 -1.33406e-05 -7.80878e-06 -1.96018e-06 4.2563e-06 1.08927e-05 1.80082e-05 2.56664e-05 3.3936e-05 4.28885e-05 5.25951e-05 6.31195e-05 7.45059e-05 8.67575e-05 9.98069e-05 0.000113486 0.0001275 0.00014144 0.000154809 0.000167056 0.000177619 0.000185977 0.000191715 0.000194591 -9.31345e-05 -9.19611e-05 -8.97446e-05 -8.65929e-05 -8.26176e-05 -7.79462e-05 -7.27271e-05 -6.71308e-05 -6.13434e-05 -5.55513e-05 -4.99115e-05 -4.45162e-05 -3.93614e-05 -3.43769e-05 -2.94605e-05 -2.4506e-05 -1.94184e-05 -1.41183e-05 -8.54155e-06 -2.63435e-06 3.65309e-06 1.03736e-05 1.7592e-05 2.53828e-05 3.38301e-05 4.30267e-05 5.30737e-05 6.4076e-05 7.61317e-05 8.93054e-05 0.000103582 0.000118809 0.000134642 0.000150582 0.000166017 0.00018027 0.000192644 0.000202487 0.000209271 0.000212678 -0.000100652 -9.92945e-05 -9.67236e-05 -9.30594e-05 -8.84285e-05 -8.2979e-05 -7.68902e-05 -7.03777e-05 -6.36929e-05 -5.71065e-05 -5.08644e-05 -4.51093e-05 -3.98028e-05 -3.48023e-05 -2.99372e-05 -2.50529e-05 -2.00262e-05 -1.47654e-05 -9.2052e-06 -3.29833e-06 2.99559e-06 9.72354e-06 1.69545e-05 2.47737e-05 3.32802e-05 4.25871e-05 5.28263e-05 6.41519e-05 7.67373e-05 9.07496e-05 0.000106281 0.000123227 0.00014117 0.000159465 0.000177344 0.000193975 0.000208507 0.000220131 0.000228175 0.000232223 -0.00010878 -0.000107208 -0.00010422 -9.99485e-05 -9.45319e-05 -8.81361e-05 -8.09686e-05 -7.32933e-05 -6.54434e-05 -5.78199e-05 -5.08384e-05 -4.47633e-05 -3.94527e-05 -3.4612e-05 -2.99583e-05 -2.52738e-05 -2.04062e-05 -1.52572e-05 -9.76876e-06 -3.91148e-06 2.33074e-06 8.98576e-06 1.61288e-05 2.38589e-05 3.22873e-05 4.15414e-05 5.17769e-05 6.31971e-05 7.60709e-05 9.07292e-05 0.000107486 0.000126392 0.000146853 0.000167974 0.00018877 0.000208231 0.000225333 0.000239088 0.000248648 0.000253471 -0.000117658 -0.000115837 -0.000112364 -0.00010738 -0.000101032 -9.34938e-05 -8.49909e-05 -7.58238e-05 -6.64107e-05 -5.73374e-05 -4.93576e-05 -4.31069e-05 -3.80923e-05 -3.37003e-05 -2.94829e-05 -2.51568e-05 -2.0554e-05 -1.55822e-05 -1.0203e-05 -4.42025e-06 1.73161e-06 8.22757e-06 1.51698e-05 2.26816e-05 3.08824e-05 3.98985e-05 4.98879e-05 6.10808e-05 7.38391e-05 8.87301e-05 0.000106528 0.000127797 0.000151419 0.000176014 0.000200315 0.000223134 0.00024328 0.00025957 0.00027095 0.000276708 -0.00012745 -0.000125344 -0.000121315 -0.00011551 -0.000108075 -9.91827e-05 -8.90508e-05 -7.7978e-05 -6.64185e-05 -5.51438e-05 -4.55353e-05 -3.96062e-05 -3.55079e-05 -3.20202e-05 -2.85298e-05 -2.47383e-05 -2.05001e-05 -1.5752e-05 -1.04866e-05 -4.75292e-06 1.32301e-06 7.54731e-06 1.41521e-05 2.131e-05 2.91365e-05 3.77293e-05 4.72061e-05 5.77598e-05 6.97658e-05 8.40182e-05 0.000102158 0.00012672 0.000154613 0.000183578 0.000212084 0.000238843 0.000262552 0.000281834 0.000295383 0.000302265 -0.000138344 -0.000135917 -0.000131262 -0.000124528 -0.000115858 -0.000105407 -9.33548e-05 -7.99261e-05 -6.54503e-05 -5.0594e-05 -3.73487e-05 -3.3596e-05 -3.16435e-05 -2.96824e-05 -2.72269e-05 -2.4124e-05 -2.03228e-05 -1.58148e-05 -1.06231e-05 -4.82179e-06 1.36143e-06 7.07175e-06 1.31539e-05 1.98277e-05 2.71635e-05 3.51903e-05 4.39288e-05 5.34211e-05 6.38152e-05 7.56942e-05 9.15104e-05 0.000122272 0.000156422 0.000190889 0.000224327 0.000255604 0.000283403 0.000306168 0.000322286 0.000330515 -0.000150551 -0.000147769 -0.000142419 -0.000134657 -0.000124622 -0.000112447 -9.82585e-05 -8.21481e-05 -6.40907e-05 -4.36601e-05 -1.89008e-05 -2.50277e-05 -2.70417e-05 -2.71048e-05 -2.58475e-05 -2.34951e-05 -2.01494e-05 -1.58683e-05 -1.06864e-05 -4.60018e-06 2.53367e-06 6.8753e-06 1.22035e-05 1.8309e-05 2.51078e-05 3.25258e-05 4.04535e-05 4.86941e-05 5.68314e-05 6.37938e-05 6.61531e-05 0.0001145 0.000157714 0.000198613 0.000237499 0.000273746 0.000306122 0.000332884 0.000352024 0.000361866 -0.000164301 -0.000161128 -0.000155019 -0.00014614 -0.000134632 -0.000120623 -0.000104215 -8.54528e-05 -6.42405e-05 -4.01875e-05 -1.23603e-05 -1.97249e-05 -2.35591e-05 -2.50295e-05 -2.47585e-05 -2.3067e-05 -2.01308e-05 -1.60538e-05 -1.08969e-05 -4.68102e-06 2.62834e-06 6.4145e-06 1.11874e-05 1.67955e-05 2.31158e-05 3.00139e-05 3.73005e-05 4.4667e-05 5.15617e-05 5.69458e-05 5.89197e-05 0.000112046 0.000161259 0.000207871 0.000252165 0.000293623 0.000330994 0.000362283 0.000384967 0.000396747 -0.000179838 -0.000176238 -0.000169303 -0.000159218 -0.00014614 -0.000130212 -0.000111553 -9.02378e-05 -6.62621e-05 -3.95161e-05 -9.84425e-06 -1.70038e-05 -2.15107e-05 -2.37833e-05 -2.4193e-05 -2.30015e-05 -2.03851e-05 -1.64649e-05 -1.13258e-05 -5.02852e-06 2.37573e-06 5.7686e-06 1.01268e-05 1.53478e-05 2.13087e-05 2.78574e-05 3.4787e-05 4.17961e-05 4.8435e-05 5.40586e-05 5.79104e-05 0.000113829 0.000167506 0.000219149 0.000268681 0.000315493 0.000358236 0.00039462 0.000421466 0.000435591 -0.000197417 -0.000193349 -0.000185512 -0.000174122 -0.000159366 -0.000141421 -0.000120449 -9.65916e-05 -6.99646e-05 -4.06783e-05 -8.9236e-06 -1.5872e-05 -2.06561e-05 -2.33795e-05 -2.42272e-05 -2.3377e-05 -2.09765e-05 -1.71444e-05 -1.19783e-05 -5.56448e-06 2.00657e-06 5.04734e-06 9.08147e-06 1.40248e-05 1.97631e-05 2.61512e-05 3.30021e-05 4.00726e-05 4.7055e-05 5.36026e-05 5.945e-05 0.000118327 0.000176074 0.000232456 0.000287155 0.00033947 0.000387971 0.000430073 0.000461825 0.000478826 -0.000217302 -0.000212715 -0.000203885 -0.000191069 -0.000174498 -0.000154397 -0.000130986 -0.00010448 -7.50968e-05 -4.30788e-05 -8.75397e-06 -1.57095e-05 -2.0694e-05 -2.37075e-05 -2.4838e-05 -2.42029e-05 -2.192e-05 -1.80983e-05 -1.2838e-05 -6.23594e-06 1.60441e-06 4.32113e-06 8.1014e-06 1.28661e-05 1.85108e-05 2.49071e-05 3.19008e-05 3.9312e-05 4.69447e-05 5.46201e-05 6.22509e-05 0.000124581 0.000186485 0.000247607 0.000307538 0.000365554 0.000420217 0.000468724 0.000506281 0.000526851 -0.000239765 -0.000234594 -0.000224653 -0.000210256 -0.00019169 -0.000169242 -0.000143198 -0.000113842 -8.14683e-05 -4.63949e-05 -9.00159e-06 -1.61709e-05 -2.13871e-05 -2.46318e-05 -2.59555e-05 -2.54437e-05 -2.31944e-05 -1.9307e-05 -1.3879e-05 -7.0077e-06 1.20382e-06 3.62943e-06 7.21823e-06 1.18913e-05 1.75526e-05 2.40917e-05 3.13863e-05 3.93078e-05 4.77336e-05 5.65711e-05 6.57916e-05 0.000132043 0.000198352 0.000264371 0.000329696 0.000393655 0.000454897 0.000510543 0.000554979 0.000580031 -0.000265089 -0.000259247 -0.000248042 -0.00023186 -0.000211067 -0.000186024 -0.00015709 -0.000124614 -8.89466e-05 -5.04487e-05 -9.51576e-06 -1.706e-05 -2.2564e-05 -2.60251e-05 -2.74904e-05 -2.7036e-05 -2.47516e-05 -2.07308e-05 -1.50664e-05 -7.85062e-06 8.21592e-07 2.99489e-06 6.45064e-06 1.11072e-05 1.68743e-05 2.36564e-05 3.13571e-05 3.98851e-05 4.91638e-05 5.91448e-05 6.98195e-05 0.000140375 0.000211367 0.000282505 0.000353443 0.000423616 0.000491848 0.000555378 0.000607935 0.000638673 -0.000293562 -0.000286935 -0.000274262 -0.000256033 -0.000232716 -0.000204769 -0.000172633 -0.000136721 -9.7425e-05 -5.51271e-05 -1.02169e-05 -1.82538e-05 -2.40946e-05 -2.77695e-05 -2.93421e-05 -2.88956e-05 -2.65213e-05 -2.23113e-05 -1.63539e-05 -8.73327e-06 4.68988e-07 2.4343e-06 5.81312e-06 1.05178e-05 1.64604e-05 2.35564e-05 3.17283e-05 4.09111e-05 5.10582e-05 6.21475e-05 7.4182e-05 0.000149337 0.000225262 0.000301752 0.000378543 0.000455207 0.000530815 0.000602939 0.000664995 0.000702996 -0.000325486 -0.000317914 -0.000303499 -0.000282877 -0.000256661 -0.000225437 -0.00018974 -0.000150049 -0.000106785 -6.03327e-05 -1.10521e-05 -1.96594e-05 -2.58655e-05 -2.97464e-05 -3.13963e-05 -3.0917e-05 -2.84097e-05 -2.39688e-05 -1.76794e-05 -9.6156e-06 1.58173e-07 1.96675e-06 5.32422e-06 1.01331e-05 1.63044e-05 2.37605e-05 3.24378e-05 4.22905e-05 5.32935e-05 6.54448e-05 7.87612e-05 0.000158717 0.00023977 0.000321811 0.000404684 0.00048811 0.000571444 0.00065278 0.000725774 0.000773081 -0.000361167 -0.000352426 -0.000335887 -0.000312413 -0.000282827 -0.000247881 -0.000208227 -0.000164407 -0.000116861 -6.59483e-05 -1.1974e-05 -2.1187e-05 -2.77581e-05 -3.18224e-05 -3.35162e-05 -3.29684e-05 -3.02955e-05 -2.55984e-05 -1.89599e-05 -1.04436e-05 -9.34459e-08 1.61972e-06 5.01293e-06 9.97516e-06 1.64137e-05 2.42554e-05 3.34471e-05 4.39579e-05 5.57802e-05 6.89312e-05 8.34468e-05 0.000168305 0.000254592 0.000342314 0.000431448 0.000521877 0.000613241 0.000704277 0.000789578 0.000848801 -0.000400914 -0.000390669 -0.000371465 -0.000344521 -0.000310969 -0.000271785 -0.000227754 -0.000179478 -0.000127392 -7.18045e-05 -1.29254e-05 -2.27294e-05 -2.963e-05 -3.38357e-05 -3.55336e-05 -3.48852e-05 -3.20263e-05 -2.70664e-05 -2.00882e-05 -1.11453e-05 -2.59987e-07 1.43319e-06 4.92216e-06 1.00805e-05 1.68113e-05 2.50447e-05 3.47368e-05 4.58691e-05 5.84497e-05 7.25145e-05 8.81239e-05 0.000177868 0.000269378 0.000362805 0.000458283 0.000555884 0.000655524 0.000756596 0.000855304 0.000929696 -0.000445025 -0.000432752 -0.000410086 -0.000378831 -0.000340571 -0.000296569 -0.00024775 -0.000194754 -0.00013798 -7.76467e-05 -1.38265e-05 -2.41446e-05 -3.12995e-05 -3.5585e-05 -3.72429e-05 -3.64686e-05 -3.34179e-05 -2.82108e-05 -2.09322e-05 -1.16293e-05 -3.05335e-07 1.46034e-06 5.10749e-06 1.04968e-05 1.75299e-05 2.6142e-05 3.62981e-05 4.79911e-05 6.12428e-05 7.61062e-05 9.26675e-05 0.000187142 0.000283719 0.00038272 0.000484473 0.000589278 0.000697337 0.000808638 0.000921329 0.00101481 -0.000493743 -0.000478577 -0.000451245 -0.000414541 -0.000370687 -0.000321268 -0.000267321 -0.000209472 -0.000148037 -8.3102e-05 -1.45607e-05 -2.52416e-05 -3.2538e-05 -3.68298e-05 -3.84077e-05 -3.74961e-05 -3.4268e-05 -2.88543e-05 -2.13459e-05 -1.17911e-05 -1.84716e-07 1.76174e-06 5.6272e-06 1.12698e-05 1.85973e-05 2.75545e-05 3.81163e-05 5.02861e-05 6.40963e-05 7.96122e-05 9.69409e-05 0.000195833 0.000297142 0.000401388 0.000509127 0.000620946 0.000737361 0.000858962 0.000985385 0.00110239 -0.000547159 -0.000527571 -0.000493745 -0.00045012 -0.000399718 -0.000344386 -0.000285166 -0.00022257 -0.000156764 -8.76633e-05 -1.49652e-05 -2.5782e-05 -3.30855e-05 -3.73168e-05 -3.87948e-05 -3.77592e-05 -3.4394e-05 -2.88399e-05 -2.11995e-05 -1.15348e-05 1.46022e-07 2.38649e-06 6.51691e-06 1.24147e-05 2.00069e-05 2.92538e-05 4.01428e-05 5.26858e-05 6.69216e-05 8.29192e-05 0.000100793 0.000203613 0.000309114 0.000418036 0.000531189 0.000649507 0.000773837 0.000905657 0.00104448 0.00118951 -0.000604881 -0.000578017 -0.000535033 -0.000482847 -0.000425166 -0.000363811 -0.000299584 -0.000232737 -0.000163211 -9.0735e-05 -1.48465e-05 -2.55292e-05 -3.27241e-05 -3.68657e-05 -3.82632e-05 -3.71518e-05 -3.37173e-05 -2.81093e-05 -2.04478e-05 -1.08242e-05 7.05011e-07 3.32999e-06 7.73992e-06 1.38649e-05 2.16669e-05 3.11285e-05 4.22505e-05 5.50519e-05 6.95719e-05 8.58722e-05 0.000104055 0.000210116 0.000319047 0.000431813 0.000549472 0.000673358 0.000804585 0.000946165 0.00109499 0.0012713 -0.000664806 -0.000625359 -0.000570078 -0.000508351 -0.000443615 -0.000377011 -0.000308767 -0.00023873 -0.000166571 -9.18593e-05 -1.40843e-05 -2.44203e-05 -3.14725e-05 -3.5562e-05 -3.69452e-05 -3.58358e-05 -3.24152e-05 -2.68399e-05 -1.92505e-05 -9.7808e-06 1.42956e-06 4.45652e-06 9.10621e-06 1.5395e-05 2.33306e-05 3.292e-05 4.41766e-05 5.71235e-05 7.17964e-05 8.82405e-05 0.000106522 0.000214934 0.000326313 0.000441826 0.00056274 0.000690771 0.000827201 0.000977015 0.00113321 0.00133964 -0.000717656 -0.000658425 -0.000590456 -0.000521206 -0.000451853 -0.000382244 -0.000311914 -0.000240336 -0.00016698 -9.13355e-05 -1.29693e-05 -2.29817e-05 -2.99742e-05 -3.40928e-05 -3.55327e-05 -3.4487e-05 -3.11324e-05 -2.56311e-05 -1.81397e-05 -8.82855e-06 2.07749e-06 5.38569e-06 1.01708e-05 1.65352e-05 2.45237e-05 3.41605e-05 4.54666e-05 5.8467e-05 7.31931e-05 8.96752e-05 0.000107938 0.000217605 0.000330261 0.000447204 0.00056984 0.000700067 0.000839484 0.000993774 0.00115628 0.00138142 0 0 0 0 0 0 0 0 0 0 0 0 0 0 0 0 0 0 0 0 0 0 0 0 0 0 0 0 0 0 0 0 0 0 0 0 0 0 0 0 -4.85649e-06 -4.82002e-06 -4.74917e-06 -4.64626e-06 -4.51342e-06 -4.35254e-06 -4.1653e-06 -3.95318e-06 -3.7175e-06 -3.45937e-06 -3.17968e-06 -2.8794e-06 -2.55861e-06 -2.21746e-06 -1.85586e-06 -1.47352e-06 -1.06997e-06 -6.44658e-07 -1.97028e-07 2.73409e-07 7.6695e-07 1.28347e-06 1.82262e-06 2.38336e-06 2.96393e-06 3.56169e-06 4.17303e-06 4.79323e-06 5.4164e-06 6.03551e-06 6.6424e-06 7.22828e-06 7.78297e-06 8.29624e-06 8.75788e-06 9.15821e-06 9.48861e-0