# vtk DataFile Version 2.0
Densidad
ASCII

DATASET STRUCTURED_GRID
DIMENSIONS   60   40   40

POINTS   96000   double
0.0819672   0.0121951   0.0243902
0.245902   0.0121951   0.0243902
0.409836   0.0121951   0.0243902
0.57377   0.0121951   0.0243902
0.737705   0.0121951   0.0243902
0.901639   0.0121951   0.0243902
1.06557   0.0121951   0.0243902
1.22951   0.0121951   0.0243902
1.39344   0.0121951   0.0243902
1.55738   0.0121951   0.0243902
1.72131   0.0121951   0.0243902
1.88525   0.0121951   0.0243902
2.04918   0.0121951   0.0243902
2.21311   0.0121951   0.0243902
2.37705   0.0121951   0.0243902
2.54098   0.0121951   0.0243902
2.70492   0.0121951   0.0243902
2.86885   0.0121951   0.0243902
3.03279   0.0121951   0.0243902
3.19672   0.0121951   0.0243902
3.36066   0.0121951   0.0243902
3.52459   0.0121951   0.0243902
3.68852   0.0121951   0.0243902
3.85246   0.0121951   0.0243902
4.01639   0.0121951   0.0243902
4.18033   0.0121951   0.0243902
4.34426   0.0121951   0.0243902
4.5082   0.0121951   0.0243902
4.67213   0.0121951   0.0243902
4.83607   0.0121951   0.0243902
5   0.0121951   0.0243902
5.16393   0.0121951   0.0243902
5.32787   0.0121951   0.0243902
5.4918   0.0121951   0.0243902
5.65574   0.0121951   0.0243902
5.81967   0.0121951   0.0243902
5.98361   0.0121951   0.0243902
6.14754   0.0121951   0.0243902
6.31148   0.0121951   0.0243902
6.47541   0.0121951   0.0243902
6.63934   0.0121951   0.0243902
6.80328   0.0121951   0.0243902
6.96721   0.0121951   0.0243902
7.13115   0.0121951   0.0243902
7.29508   0.0121951   0.0243902
7.45902   0.0121951   0.0243902
7.62295   0.0121951   0.0243902
7.78689   0.0121951   0.0243902
7.95082   0.0121951   0.0243902
8.11475   0.0121951   0.0243902
8.27869   0.0121951   0.0243902
8.44262   0.0121951   0.0243902
8.60656   0.0121951   0.0243902
8.77049   0.0121951   0.0243902
8.93443   0.0121951   0.0243902
9.09836   0.0121951   0.0243902
9.2623   0.0121951   0.0243902
9.42623   0.0121951   0.0243902
9.59016   0.0121951   0.0243902
9.7541   0.0121951   0.0243902
0.0819672   0.0365854   0.0243902
0.245902   0.0365854   0.0243902
0.409836   0.0365854   0.0243902
0.57377   0.0365854   0.0243902
0.737705   0.0365854   0.0243902
0.901639   0.0365854   0.0243902
1.06557   0.0365854   0.0243902
1.22951   0.0365854   0.0243902
1.39344   0.0365854   0.0243902
1.55738   0.0365854   0.0243902
1.72131   0.0365854   0.0243902
1.88525   0.0365854   0.0243902
2.04918   0.0365854   0.0243902
2.21311   0.0365854   0.0243902
2.37705   0.0365854   0.0243902
2.54098   0.0365854   0.0243902
2.70492   0.0365854   0.0243902
2.86885   0.0365854   0.0243902
3.03279   0.0365854   0.0243902
3.19672   0.0365854   0.0243902
3.36066   0.0365854   0.0243902
3.52459   0.0365854   0.0243902
3.68852   0.0365854   0.0243902
3.85246   0.0365854   0.0243902
4.01639   0.0365854   0.0243902
4.18033   0.0365854   0.0243902
4.34426   0.0365854   0.0243902
4.5082   0.0365854   0.0243902
4.67213   0.0365854   0.0243902
4.83607   0.0365854   0.0243902
5   0.0365854   0.0243902
5.16393   0.0365854   0.0243902
5.32787   0.0365854   0.0243902
5.4918   0.0365854   0.0243902
5.65574   0.0365854   0.0243902
5.81967   0.0365854   0.0243902
5.98361   0.0365854   0.0243902
6.14754   0.0365854   0.0243902
6.31148   0.0365854   0.0243902
6.47541   0.0365854   0.0243902
6.63934   0.0365854   0.0243902
6.80328   0.0365854   0.0243902
6.96721   0.0365854   0.0243902
7.13115   0.0365854   0.0243902
7.29508   0.0365854   0.0243902
7.45902   0.0365854   0.0243902
7.62295   0.0365854   0.0243902
7.78689   0.0365854   0.0243902
7.95082   0.0365854   0.0243902
8.11475   0.0365854   0.0243902
8.27869   0.0365854   0.0243902
8.44262   0.0365854   0.0243902
8.60656   0.0365854   0.0243902
8.77049   0.0365854   0.0243902
8.93443   0.0365854   0.0243902
9.09836   0.0365854   0.0243902
9.2623   0.0365854   0.0243902
9.42623   0.0365854   0.0243902
9.59016   0.0365854   0.0243902
9.7541   0.0365854   0.0243902
0.0819672   0.0609756   0.0243902
0.245902   0.0609756   0.0243902
0.409836   0.0609756   0.0243902
0.57377   0.0609756   0.0243902
0.737705   0.0609756   0.0243902
0.901639   0.0609756   0.0243902
1.06557   0.0609756   0.0243902
1.22951   0.0609756   0.0243902
1.39344   0.0609756   0.0243902
1.55738   0.0609756   0.0243902
1.72131   0.0609756   0.0243902
1.88525   0.0609756   0.0243902
2.04918   0.0609756   0.0243902
2.21311   0.0609756   0.0243902
2.37705   0.0609756   0.0243902
2.54098   0.0609756   0.0243902
2.70492   0.0609756   0.0243902
2.86885   0.0609756   0.0243902
3.03279   0.0609756   0.0243902
3.19672   0.0609756   0.0243902
3.36066   0.0609756   0.0243902
3.52459   0.0609756   0.0243902
3.68852   0.0609756   0.0243902
3.85246   0.0609756   0.0243902
4.01639   0.0609756   0.0243902
4.18033   0.0609756   0.0243902
4.34426   0.0609756   0.0243902
4.5082   0.0609756   0.0243902
4.67213   0.0609756   0.0243902
4.83607   0.0609756   0.0243902
5   0.0609756   0.0243902
5.16393   0.0609756   0.0243902
5.32787   0.0609756   0.0243902
5.4918   0.0609756   0.0243902
5.65574   0.0609756   0.0243902
5.81967   0.0609756   0.0243902
5.98361   0.0609756   0.0243902
6.14754   0.0609756   0.0243902
6.31148   0.0609756   0.0243902
6.47541   0.0609756   0.0243902
6.63934   0.0609756   0.0243902
6.80328   0.0609756   0.0243902
6.96721   0.0609756   0.0243902
7.13115   0.0609756   0.0243902
7.29508   0.0609756   0.0243902
7.45902   0.0609756   0.0243902
7.62295   0.0609756   0.0243902
7.78689   0.0609756   0.0243902
7.95082   0.0609756   0.0243902
8.11475   0.0609756   0.0243902
8.27869   0.0609756   0.0243902
8.44262   0.0609756   0.0243902
8.60656   0.0609756   0.0243902
8.77049   0.0609756   0.0243902
8.93443   0.0609756   0.0243902
9.09836   0.0609756   0.0243902
9.2623   0.0609756   0.0243902
9.42623   0.0609756   0.0243902
9.59016   0.0609756   0.0243902
9.7541   0.0609756   0.0243902
0.0819672   0.0853659   0.0243902
0.245902   0.0853659   0.0243902
0.409836   0.0853659   0.0243902
0.57377   0.0853659   0.0243902
0.737705   0.0853659   0.0243902
0.901639   0.0853659   0.0243902
1.06557   0.0853659   0.0243902
1.22951   0.0853659   0.0243902
1.39344   0.0853659   0.0243902
1.55738   0.0853659   0.0243902
1.72131   0.0853659   0.0243902
1.88525   0.0853659   0.0243902
2.04918   0.0853659   0.0243902
2.21311   0.0853659   0.0243902
2.37705   0.0853659   0.0243902
2.54098   0.0853659   0.0243902
2.70492   0.0853659   0.0243902
2.86885   0.0853659   0.0243902
3.03279   0.0853659   0.0243902
3.19672   0.0853659   0.0243902
3.36066   0.0853659   0.0243902
3.52459   0.0853659   0.0243902
3.68852   0.0853659   0.0243902
3.85246   0.0853659   0.0243902
4.01639   0.0853659   0.0243902
4.18033   0.0853659   0.0243902
4.34426   0.0853659   0.0243902
4.5082   0.0853659   0.0243902
4.67213   0.0853659   0.0243902
4.83607   0.0853659   0.0243902
5   0.0853659   0.0243902
5.16393   0.0853659   0.0243902
5.32787   0.0853659   0.0243902
5.4918   0.0853659   0.0243902
5.65574   0.0853659   0.0243902
5.81967   0.0853659   0.0243902
5.98361   0.0853659   0.0243902
6.14754   0.0853659   0.0243902
6.31148   0.0853659   0.0243902
6.47541   0.0853659   0.0243902
6.63934   0.0853659   0.0243902
6.80328   0.0853659   0.0243902
6.96721   0.0853659   0.0243902
7.13115   0.0853659   0.0243902
7.29508   0.0853659   0.0243902
7.45902   0.0853659   0.0243902
7.62295   0.0853659   0.0243902
7.78689   0.0853659   0.0243902
7.95082   0.0853659   0.0243902
8.11475   0.0853659   0.0243902
8.27869   0.0853659   0.0243902
8.44262   0.0853659   0.0243902
8.60656   0.0853659   0.0243902
8.77049   0.0853659   0.0243902
8.93443   0.0853659   0.0243902
9.09836   0.0853659   0.0243902
9.2623   0.0853659   0.0243902
9.42623   0.0853659   0.0243902
9.59016   0.0853659   0.0243902
9.7541   0.0853659   0.0243902
0.0819672   0.109756   0.0243902
0.245902   0.109756   0.0243902
0.409836   0.109756   0.0243902
0.57377   0.109756   0.0243902
0.737705   0.109756   0.0243902
0.901639   0.109756   0.0243902
1.06557   0.109756   0.0243902
1.22951   0.109756   0.0243902
1.39344   0.109756   0.0243902
1.55738   0.109756   0.0243902
1.72131   0.109756   0.0243902
1.88525   0.109756   0.0243902
2.04918   0.109756   0.0243902
2.21311   0.109756   0.0243902
2.37705   0.109756   0.0243902
2.54098   0.109756   0.0243902
2.70492   0.109756   0.0243902
2.86885   0.109756   0.0243902
3.03279   0.109756   0.0243902
3.19672   0.109756   0.0243902
3.36066   0.109756   0.0243902
3.52459   0.109756   0.0243902
3.68852   0.109756   0.0243902
3.85246   0.109756   0.0243902
4.01639   0.109756   0.0243902
4.18033   0.109756   0.0243902
4.34426   0.109756   0.0243902
4.5082   0.109756   0.0243902
4.67213   0.109756   0.0243902
4.83607   0.109756   0.0243902
5   0.109756   0.0243902
5.16393   0.109756   0.0243902
5.32787   0.109756   0.0243902
5.4918   0.109756   0.0243902
5.65574   0.109756   0.0243902
5.81967   0.109756   0.0243902
5.98361   0.109756   0.0243902
6.14754   0.109756   0.0243902
6.31148   0.109756   0.0243902
6.47541   0.109756   0.0243902
6.63934   0.109756   0.0243902
6.80328   0.109756   0.0243902
6.96721   0.109756   0.0243902
7.13115   0.109756   0.0243902
7.29508   0.109756   0.0243902
7.45902   0.109756   0.0243902
7.62295   0.109756   0.0243902
7.78689   0.109756   0.0243902
7.95082   0.109756   0.0243902
8.11475   0.109756   0.0243902
8.27869   0.109756   0.0243902
8.44262   0.109756   0.0243902
8.60656   0.109756   0.0243902
8.77049   0.109756   0.0243902
8.93443   0.109756   0.0243902
9.09836   0.109756   0.0243902
9.2623   0.109756   0.0243902
9.42623   0.109756   0.0243902
9.59016   0.109756   0.0243902
9.7541   0.109756   0.0243902
0.0819672   0.134146   0.0243902
0.245902   0.134146   0.0243902
0.409836   0.134146   0.0243902
0.57377   0.134146   0.0243902
0.737705   0.134146   0.0243902
0.901639   0.134146   0.0243902
1.06557   0.134146   0.0243902
1.22951   0.134146   0.0243902
1.39344   0.134146   0.0243902
1.55738   0.134146   0.0243902
1.72131   0.134146   0.0243902
[...]
POINT_DATA   96000
SCALARS Densidad double
LOOKUP_TABLE   Densidad

0.951863 0.951274 0.951469 0.951879 0.952423 0.951312 0.951407 0.950469 0.950386 0.950099 0.950062 0.950014 0.950007 0.950001 0.950001 0.95 0.95 0.95 0.95 0.95 0.95 0.95 0.95 0.95 0.95 0.95 0.95 0.95 0.95 0.95 0.95 0.95 0.95 0.95 0.95 0.95 0.95 0.95 0.95 0.95 0.95 0.95 0.95 0.95 0.95 0.95 0.95 0.95 0.95 0.95 0.95 0.95 0.95 0.95 0.95 0.95 0.95 0.95 0.95 0.95 0.951863 0.951274 0.951469 0.951879 0.952423 0.951312 0.951407 0.950469 0.950386 0.950099 0.950062 0.950014 0.950007 0.950001 0.950001 0.95 0.95 0.95 0.95 0.95 0.95 0.95 0.95 0.95 0.95 0.95 0.95 0.95 0.95 0.95 0.95 0.95 0.95 0.95 0.95 0.95 0.95 0.95 0.95 0.95 0.95 0.95 0.95 0.95 0.95 0.95 0.95 0.95 0.95 0.95 0.95 0.95 0.95 0.95 0.95 0.95 0.95 0.95 0.95 0.95 0.951863 0.951274 0.951469 0.951879 0.952423 0.951312 0.951407 0.950469 0.950386 0.950099 0.950062 0.950014 0.950007 0.950001 0.950001 0.95 0.95 0.95 0.95 0.95 0.95 0.95 0.95 0.95 0.95 0.95 0.95 0.95 0.95 0.95 0.95 0.95 0.95 0.95 0.95 0.95 0.95 0.95 0.95 0.95 0.95 0.95 0.95 0.95 0.95 0.95 0.95 0.95 0.95 0.95 0.95 0.95 0.95 0.95 0.95 0.95 0.95 0.95 0.95 0.95 0.951863 0.951274 0.951469 0.951879 0.952423 0.951312 0.951407 0.950469 0.950386 0.950099 0.950062 0.950014 0.950007 0.950001 0.950001 0.95 0.95 0.95 0.95 0.95 0.95 0.95 0.95 0.95 0.95 0.95 0.95 0.95 0.95 0.95 0.95 0.95 0.95 0.95 0.95 0.95 0.95 0.95 0.95 0.95 0.95 0.95 0.95 0.95 0.95 0.95 0.95 0.95 0.95 0.95 0.95 0.95 0.95 0.95 0.95 0.95 0.95 0.95 0.95 0.95 0.951863 0.951274 0.951469 0.951879 0.952423 0.951312 0.951407 0.950469 0.950386 0.950099 0.950062 0.950014 0.950007 0.950001 0.950001 0.95 0.95 0.95 0.95 0.95 0.95 0.95 0.95 0.95 0.95 0.95 0.95 0.95 0.95 0.95 0.95 0.95 0.95 0.95 0.95 0.95 0.95 0.95 0.95 0.95 0.95 0.95 0.95 0.95 0.95 0.95 0.95 0.95 0.95 0.95 0.95 0.95 0.95 0.95 0.95 0.95 0.95 0.95 0.95 0.95 0.951863 0.951274 0.951469 0.951879 0.952423 0.951312 0.951407 0.950469 0.950386 0.950099 0.950062 0.950014 0.950007 0.950001 0.950001 0.95 0.95 0.95 0.95 0.95 0.95 0.95 0.95 0.95 0.95 0.95 0.95 0.95 0.95 0.95 0.95 0.95 0.95 0.95 0.95 0.95 0.95 0.95 0.95 0.95 0.95 0.95 0.95 0.95 0.95 0.95 0.95 0.95 0.95 0.95 0.95 0.95 0.95 0.95 0.95 0.95 0.95 0.95 0.95 0.95 0.951863 0.951274 0.951469 0.951879 0.952423 0.951312 0.951407 0.950469 0.950386 0.950099 0.950062 0.950014 0.950007 0.950001 0.950001 0.95 0.95 0.95 0.95 0.95 0.95 0.95 0.95 0.95 0.95 0.95 0.95 0.95 0.95 0.95 0.95 0.95 0.95 0.95 0.95 0.95 0.95 0.95 0.95 0.95 0.95 0.95 0.95 0.95 0.95 0.95 0.95 0.95 0.95 0.95 0.95 0.95 0.95 0.95 0.95 0.95 0.95 0.95 0.95 0.95 0.951863 0.951274 0.951469 0.951879 0.952423 0.951312 0.951407 0.950469 0.950386 0.950099 0.950062 0.950014 0.950007 0.950001 0.950001 0.95 0.95 0.95 0.95 0.95 0.95 0.95 0.95 0.95 0.95 0.95 0.95 0.95 0.95 0.95 0.95 0.95 0.95 0.95 0.95 0.95 0.95 0.95 0.95 0.95 0.95 0.95 0.95 0.95 0.95 0.95 0.95 0.95 0.95 0.95 0.95 0.95 0.95 0.95 0.95 0.95 0.95 0.95 0.95 0.95 0.951863 0.951274 0.951469 0.951879 0.952423 0.951312 0.951407 0.950469 0.950386 0.950099 0.950062 0.950014 0.950007 0.950001 0.950001 0.95 0.95 0.95 0.95 0.95 0.95 0.95 0.95 0.95 0.95 0.95 0.95 0.95 0.95 0.95 0.95 0.95 0.95 0.95 0.95 0.95 0.95 0.95 0.95 0.95 0.95 0.95 0.95 0.95 0.95 0.95 0.95 0.95 0.95 0.95 0.95 0.95 0.95 0.95 0.95 0.95 0.95 0.95 0.95 0.95 0.951863 0.951274 0.951469 0.951879 0.952423 0.951312 0.951407 0.950469 0.950386 0.950099 0.950062 0.950014 0.950007 0.950001 0.950001 0.95 0.95 0.95 0.95 0.95 0.95 0.95 0.95 0.95 0.95 0.95 0.95 0.95 0.95 0.95 0.95 0.95 0.95 0.95 0.95 0.95 0.95 0.95 0.95 0.95 0.95 0.95 0.95 0.95 0.95 0.95 0.95 0.95 0.95 0.95 0.95 0.95 0.95 0.95 0.95 0.95 0.95 0.95 0.95 0.95 0.951863 0.951274 0.951469 0.951879 0.952423 0.951312 0.951407 0.950469 0.950386 0.950099 0.950062 0.950014 0.950007 0.950001 0.950001 0.95 0.95 0.95 0.95 0.95 0.95 0.95 0.95 0.95 0.95 0.95 0.95 0.95 0.95 0.95 0.95 0.95 0.95 0.95 0.95 0.95 0.95 0.95 0.95 0.95 0.95 0.95 0.95 0.95 0.95 0.95 0.95 0.95 0.95 0.95 0.95 0.95 0.95 0.95 0.95 0.95 0.95 0.95 0.95 0.95 0.951863 0.951274 0.951469 0.951879 0.952423 0.951312 0.951407 0.950469 0.950386 0.950099 0.950062 0.950014 0.950007 0.950001 0.950001 0.95 0.95 0.95 0.95 0.95 0.95 0.95 0.95 0.95 0.95 0.95 0.95 0.95 0.95 0.95 0.95 0.95 0.95 0.95 0.95 0.95 0.95 0.95 0.95 0.95 0.95 0.95 0.95 0.95 0.95 0.95 0.95 0.95 0.95 0.95 0.95 0.95 0.95 0.95 0.95 0.95 0.95 0.95 0.95 0.95 0.951863 0.951274 0.951469 0.951879 0.952423 0.951312 0.951407 0.950469 0.950386 0.950099 0.950062 0.950014 0.950007 0.950001 0.950001 0.95 0.95 0.95 0.95 0.95 0.95 0.95 0.95 0.95 0.95 0.95 0.95 0.95 0.95 0.95 0.95 0.95 0.95 0.95 0.95 0.95 0.95 0.95 0.95 0.95 0.95 0.95 0.95 0.95 0.95 0.95 0.95 0.95 0.95 0.95 0.95 0.95 0.95 0.95 0.95 0.95 0.95 0.95 0.95 0.95 0.951863 0.951274 0.951469 0.951879 0.952423 0.951312 0.951407 0.950469 0.950386 0.950099 0.950062 0.950014 0.950007 0.950001 0.950001 0.95 0.95 0.95 0.95 0.95 0.95 0.95 0.95 0.95 0.95 0.95 0.95 0.95 0.95 0.95 0.95 0.95 0.95 0.95 0.95 0.95 0.95 0.95 0.95 0.95 0.95 0.95 0.95 0.95 0.95 0.95 0.95 0.95 0.95 0.95 0.95 0.95 0.95 0.95 0.95 0.95 0.95 0.95 0.95 0.95 0.951863 0.951274 0.951469 0.951879 0.952423 0.951312 0.951407 0.950469 0.950386 0.950099 0.950062 0.950014 0.950007 0.950001 0.950001 0.95 0.95 0.95 0.95 0.95 0.95 0.95 0.95 0.95 0.95 0.95 0.95 0.95 0.95 0.95 0.95 0.95 0.95 0.95 0.95 0.95 0.95 0.95 0.95 0.95 0.95 0.95 0.95 0.95 0.95 0.95 0.95 0.95 0.95 0.95 0.95 0.95 0.95 0.95 0.95 0.95 0.95 0.95 0.95 0.95 0.951863 0.951274 0.951469 0.951879 0.952423 0.951312 0.951407 0.950469 0.950386 0.950099 0.950062 0.950014 0.950007 0.950001 0.950001 0.95 0.95 0.95 0.95 0.95 0.95 0.95 0.95 0.95 0.95 0.95 0.95 0.95 0.95 0.95 0.95 0.95 0.95 0.95 0.95 0.95 0.95 0.95 0.95 0.95 0.95 0.95 0.95 0.95 0.95 0.95 0.95 0.95 0.95 0.95 0.95 0.95 0.95 0.95 0.95 0.95 0.95 0.95 0.95 0.95 0.951863 0.951274 0.951469 0.951879 0.952423 0.951312 0.951407 0.950469 0.950386 0.950099 0.950062 0.950014 0.950007 0.950001 0.950001 0.95 0.95 0.95 0.95 0.95 0.95 0.95 0.95 0.95 0.95 0.95 0.95 0.95 0.95 0.95 0.95 0.95 0.95 0.95 0.95 0.95 0.95 0.95 0.95 0.95 0.95 0.95 0.95 0.95 0.95 0.95 0.95 0.95 0.95 0.95 0.95 0.95 0.95 0.95 0.95 0.95 0.95 0.95 0.95 0.95 0.951863 0.951274 0.951469 0.951879 0.952423 0.951312 0.951407 0.950469 0.950386 0.950099 0.950062 0.950014 0.950007 0.950001 0.950001 0.95 0.95 0.95 0.95 0.95 0.95 0.95 0.95 0.95 0.95 0.95 0.95 0.95 0.95 0.95 0.95 0.95 0.95 0.95 0.95 0.95 0.95 0.95 0.95 0.95 0.95 0.95 0.95 0.95 0.95 0.95 0.95 0.95 0.95 0.95 0.95 0.95 0.95 0.95 0.95 0.95 0.95 0.95 0.95 0.95 0.951863 0.951274 0.951469 0.951879 0.952423 0.951312 0.951407 0.950469 0.950386 0.950099 0.950062 0.950014 0.950007 0.950001 0.950001 0.95 0.95 0.95 0.95 0.95 0.95 0.95 0.95 0.95 0.95 0.95 0.95 0.95 0.95 0.95 0.95 0.95 0.95 0.95 0.95 0.95 0.95 0.95 0.95 0.95 0.95 0.95 0.95 0.95 0.95 0.95 0.95 0.95 0.95 0.95 0.95 0.95 0.95 0.95 0.95 0.95 0.95 0.95 0.95 0.95 0.951863 0.951274 0.951469 0.951879 0.952423 0.951312 0.951407 0.950469 0.950386 0.950099 0.950062 0.950014 0.950007 0.950001 0.950001 0.95 0.95 0.95 0.95 0.95 0.95 0.95 0.95 0.95 0.95 0.95 0.95 0.95 0.95 0.95 0.95 0.95 0.95 0.95 0.95 0.95 0.95 0.95 0.95 0.95 0.95 0.95 0.95 0.95 0.95 0.95 0.95 0.95 0.95 0.95 0.95 0.95 0.95 0.95 0.95 0.95 0.95 0.95 0.95 0.95 0.951863 0.951274 0.951469 0.951879 0.952423 0.951312 0.951407 0.950469 0.950386 0.950099 0.950062 0.950014 0.950007 0.950001 0.950001 0.95 0.95 0.95 0.95 0.95 0.95 0.95 0.95 0.95 0.95 0.95 0.95 0.95 0.95 0.95 0.95 0.95 0.95 0.95 0.95 0.95 0.95 0.95 0.95 0.95 0.95 0.95 0.95 0.95 0.95 0.95 0.95 0.95 0.95 0.95 0.95 0.95 0.95 0.95 0.95 0.95 0.95 0.95 0.95 0.95 0.951863 0.951274 0.951469 0.951879 0.952423 0.951312 0.951407 0.950469 0.950386 0.950099 0.950062 0.950014 0.950007 0.950001 0.950001 0.95 0.95 0.95 0.95 0.95 0.95 0.95 0.95 0.95 0.95 0.95 0.95 0.95 0.95 0.95 0.95 0.95 0.95 0.95 0.95 0.95 0.95 0.95 0.95 0.95 0.95 0.95 0.95 0.95 0.95 0.95 0.95 0.95 0.95 0.95 0.95 0.95 0.95 0.95 0.95 0.95 0.95 0.95 0.95 0.95 0.951863 0.951274 0.951469 0.951879 0.952423 0.951312 0.951407 0.950469 0.950386 0.950099 0.950062 0.950014 0.950007 0.950001 0.950001 0.95 0.95 0.95 0.95 0.95 0.95 0.95 0.95 0.95 0.95 0.95 0.95 0.95 0.95 0.95 0.95 0.95 0.95 0.95 0.95 0.95 0.95 0.95 0.95 0.95 0.95 0.95 0.95 0.95 0.95 0.95 0.95 0.95 0.95 0.95 0.95 0.95 0.95 0.95 0.95 0.95 0.95 0.95 0.95 0.95 0.951863 0.951274 0.951469 0.951879 0.952423 0.951312 0.951407 0.950469 0.950386 0.950099 0.950062 0.950014 0.950007 0.950001 0.950001 0.95 0.95 0.95 0.95 0.95 0.95 0.95 0.95 0.95 0.95 0.95 0.95 0.95 0.95 0.95 0.95 0.95 0.95 0.95 0.95 0.95 0.95 0.95 0.95 0.95 0.95 0.95 0.95 0.95 0.95 0.95 0.95 0.95 0.95 0.95 0.95 0.95 0.95 0.95 0.95 0.95 0.95 0.95 0.95 0.95 0.951863 0.951274 0.951469 0.951879 0.952423 0.951312 0.951407 0.950469 0.950386 0.950099 0.950062 0.950014 0.950007 0.950001 0.950001 0.95 0.95 0.95 0.95 0.95 0.95 0.95 0.95 0.95 0.95 0.95 0.95 0.95 0.95 0.95 0.95 0.95 0.95 0.95 0.95 0.95 0.95 0.95 0.95 0.95 0.95 0.95 0.95 0.95 0.95 0.95 0.95 0.95 0.95 0.95 0.95 0.95 0.95 0.95 0.95 0.95 0.95 0.95 0.95 0.95 0.951863 0.951274 0.951469 0.951879 0.952423 0.951312 0.951407 0.950469 0.950386 0.950099 0.950062 0.950014 0.950007 0.950001 0.950001 0.95 0.95 0.95 0.95 0.95 0.95 0.95 0.95 0.95 0.95 0.95 0.95 0.95 0.95 0.95 0.95 0.95 0.95 0.95 0.95 0.95 0.95 0.95 0.95 0.95 0.95 0.95 0.95 0.95 0.95 0.95 0.95 0.95 0.95 0.95 0.95 0.95 0.95 0.95 0.95 0.95 0.95 0.95 0.95 0.95 0.951863 0.951274 0.951469 0.951879 0.952423 0.951312 0.951407 0.950469 0.950386 0.950099 0.950062 0.950014 0.950007 0.950001 0.950001 0.95 0.95 0.95 0.95 0.95 0.95 0.95 0.95 0.95 0.95 0.95 0.95 0.95 0.95 0.95 0.95 0.95 0.95 0.95 0.95 0.95 0.95 0.95 0.95 0.95 0.95 0.95 0.95 0.95 0.95 0.95 0.95 0.95 0.95 0.95 0.95 0.95 0.95 0.95 0.95 0.95 0.95 0.95 0.95 0.95 0.951863 0.951274 0.951469 0.951879 0.952423 0.951312 0.951407 0.950469 0.950386 0.950099 0.950062 0.950014 0.950007 0.950001 0.950001 0.95 0.95 0.95 0.95 0.95 0.95 0.95 0.95 0.95 0.95 0.95 0.95 0.95 0.95 0.95 0.95 0.95 0.95 0.95 0.95 0.95 0.95 0.95 0.95 0.95 0.95 0.95 0.95 0.95 0.95 0.95 0.95 0.95 0.95 0.95 0.95 0.95 0.95 0.95 0.95 0.95 0.95 0.95 0.95 0.95 0.951863 0.951274 0.951469 0.951879 0.952423 0.951312 0.951407 0.950469 0.950386 0.950099 0.950062 0.950014 0.950007 0.950001 0.950001 0.95 0.95 0.95 0.95 0.95 0.95 0.95 0.95 0.95 0.95 0.95 0.95 0.95 0.95 0.95 0.95 0.95 0.95 0.95 0.95 0.95 0.95 0.95 0.95 0.95 0.95 0.95 0.95 0.95 0.95 0.95 0.95 0.95 0.95 0.95 0.95 0.95 0.95 0.95 0.95 0.95 0.95 0.95 0.95 0.95 0.951863 0.951274 0.951469 0.951879 0.952423 0.951312 0.951407 0.950469 0.950386 0.950099 0.950062 0.950014 0.950007 0.950001 0.950001 0.95 0.95 0.95 0.95 0.95 0.95 0.95 0.95 0.95 0.95 0.95 0.95 0.95 0.95 0.95 0.95 0.95 0.95 0.95 0.95 0.95 0.95 0.95 0.95 0.95 0.95 0.95 0.95 0.95 0.95 0.95 0.95 0.95 0.95 0.95 0.95 0.95 0.95 0.95 0.95 0.95 0.95 0.95 0.95 0.95 0.951863 0.951274 0.951469 0.951879 0.952423 0.951312 0.951407 0.950469 0.950386 0.950099 0.950062 0.950014 0.950007 0.950001 0.950001 0.95 0.95 0.95 0.95 0.95 0.95 0.95 0.95 0.95 0.95 0.95 0.95 0.95 0.95 0.95 0.95 0.95 0.95 0.95 0.95 0.95 0.95 0.95 0.95 0.95 0.95 0.95 0.95 0.95 0.95 0.95 0.95 0.95 0.95 0.95 0.95 0.95 0.95 0.95 0.95 0.95 0.95 0.95 0.95 0.95 0.951863 0.951274 0.951469 0.951879 0.952423 0.951312 0.951407 0.950469 0.950386 0.950099 0.950062 0.950014 0.950007 0.950001 0.950001 0.95 0.95 0.95 0.95 0.95 0.95 0.95 0.95 0.95 0.95 0.95 0.95 0.95 0.95 0.95 0.95 0.95 0.95 0.95 0.95 0.95 0.95 0.95 0.95 0.95 0.95 0.95 0.95 0.95 0.95 0.95 0.95 0.95 0.95 0.95 0.95 0.95 0.95 0.95 0.95 0.95 0.95 0.95 0.95 0.95 0.951863 0.951274 0.951469 0.951879 0.952423 0.951312 0.951407 0.950469 0.950386 0.950099 0.950062 0.950014 0.950007 0.950001 0.950001 0.95 0.95 0.95 0.95 0.95 0.95 0.95 0.95 0.95 0.95 0.95 0.95 0.95 0.95 0.95 0.95 0.95 0.95 0.95 0.95 0.95 0.95 0.95 0.95 0.95 0.95 0.95 0.95 0.95 0.95 0.95 0.95 0.95 0.95 0.95 0.95 0.95 0.95 0.95 0.95 0.95 0.95 0.95 0.95 0.95 0.951863 0.951274 0.951469 0.951879 0.952423 0.951312 0.951407 0.950469 0.950386 0.950099 0.950062 0.950014 0.950007 0.950001 0.950001 0.95 0.95 0.95 0.95 0.95 0.95 0.95 0.95 0.95 0.95 0.95 0.95 0.95 0.95 0.95 0.95 0.95 0.95 0.95 0.95 0.95 0.95 0.95 0.95 0.95 0.95 0.95 0.95 0.95 0.95 0.95 0.95 0.95 0.95 0.95 0.95 0.95 0.95 0.95 0.95 0.95 0.95 0.95 0.95 0.95 0.951863 0.951274 0.951469 0.951879 0.952423 0.951312 0.951407 0.950469 0.950386 0.950099 0.950062 0.950014 0.950007 0.950001 0.950001 0.95 0.95 0.95 0.95 0.95 0.95 0.95 0.95 0.95 0.95 0.95 0.95 0.95 0.95 0.95 0.95 0.95 0.95 0.95 0.95 0.95 0.95 0.95 0.95 0.95 0.95 0.95 0.95 0.95 0.95 0.95 0.95 0.95 0.95 0.95 0.95 0.95 0.95 0.95 0.95 0.95 0.95 0.95 0.95 0.95 0.951863 0.951274 0.951469 0.951879 0.952423 0.951312 0.951407 0.950469 0.950386 0.950099 0.950062 0.950014 0.950007 0.950001 0.950001 0.95 0.95 0.95 0.95 0.95 0.95 0.95 0.95 0.95 0.95 0.95 0.95 0.95 0.95 0.95 0.95 0.95 0.95 0.95 0.95 0.95 0.95 0.95 0.95 0.95 0.95 0.95 0.95 0.95 0.95 0.95 0.95 0.95 0.95 0.95 0.95 0.95 0.95 0.95 0.95 0.95 0.95 0.95 0.95 0.95 0.951863 0.951274 0.951469 0.951879 0.952423 0.951312 0.951407 0.950469 0.950386 0.950099 0.950062 0.950014 0.950007 0.950001 0.950001 0.95 0.95 0.95 0.95 0.95 0.95 0.95 0.95 0.95 0.95 0.95 0.95 0.95 0.95 0.95 0.95 0.95 0.95 0.95 0.95 0.95 0.95 0.95 0.95 0.95 0.95 0.95 0.95 0.95 0.95 0.95 0.95 0.95 0.95 0.95 0.95 0.95 0.95 0.95 0.95 0.95 0.95 0.95 0.95 0.95 0.951863 0.951274 0.951469 0.951879 0.952423 0.951312 0.951407 0.950469 0.950386 0.950099 0.950062 0.950014 0.950007 0.950001 0.950001 0.95 0.95 0.95 0.95 0.95 0.95 0.95 0.95 0.95 0.95 0.95 0.95 0.95 0.95 0.95 0.95 0.95 0.95 0.95 0.95 0.95 0.95 0.95 0.95 0.95 0.95 0.95 0.95 0.95 0.95 0.95 0.95 0.95 0.95 0.95 0.95 0.95 0.95 0.95 0.95 0.95 0.95 0.95 0.95 0.95 0.951863 0.951274 0.951469 0.951879 0.952423 0.951312 0.951407 0.950469 0.950386 0.950099 0.950062 0.950014 0.950007 0.950001 0.950001 0.95 0.95 0.95 0.95 0.95 0.95 0.95 0.95 0.95 0.95 0.95 0.95 0.95 0.95 0.95 0.95 0.95 0.95 0.95 0.95 0.95 0.95 0.95 0.95 0.95 0.95 0.95 0.95 0.95 0.95 0.95 0.95 0.95 0.95 0.95 0.95 0.95 0.95 0.95 0.95 0.95 0.95 0.95 0.95 0.95 0.951863 0.951274 0.951469 0.951879 0.952423 0.951312 0.951407 0.950469 0.950386 0.950099 0.950062 0.950014 0.950007 0.950001 0.950001 0.95 0.95 0.95 0.95 0.95 0.95 0.95 0.95 0.95 0.95 0.95 0.95 0.95 0.95 0.95 0.95 0.95 0.95 0.95 0.95 0.95 0.95 0.95 0.95 0.95 0.95 0.95 0.95 0.95 0.95 0.95 0.95 0.95 0.95 0.95 0.95 0.95 0.95 0.95 0.95 0.95 0.95 0.95 0.95 0.95 0.951863 0.951274 0.951469 0.951879 0.952423 0.951312 0.951407 0.950469 0.950386 0.950099 0.950062 0.950014 0.950007 0.950001 0.950001 0.95 0.95 0.95 0.95 0.95 0.95 0.95 0.95 0.95 0.95 0.95 0.95 0.95 0.95 0.95 0.95 0.95 0.95 0.95 0.95 0.95 0.95 0.95 0.95 0.95 0.95 0.95 0.95 0.95 0.95 0.95 0.95 0.95 0.95 0.95 0.95 0.95 0.95 0.95 0.95 0.95 0.95 0.95 0.95 0.95 0.951863 0.951274 0.951469 0.951879 0.952423 0.951312 0.951407 0.950469 0.950386 0.950099 0.950062 0.950014 0.950007 0.950001 0.950001 0.95 0.95 0.95 0.95 0.95 0.95 0.95 0.95 0.95 0.95 0.95 0.95 0.95 0.95 0.95 0.95 0.95 0.95 0.95 0.95 0.95 0.95 0.95 0.95 0.95 0.95 0.95 0.95 0.95 0.95 0.95 0.95 0.95 0.95 0.95 0.95 0.95 0.95 0.95 0.95 0.95 0.95 0.95 0.95 0.95 0.951863 0.951274 0.951469 0.951879 0.952423 0.951312 0.951407 0.950469 0.950386 0.950099 0.950062 0.950014 0.950007 0.950001 0.950001 0.95 0.95 0.95 0.95 0.95 0.95 0.95 0.95 0.95 0.95 0.95 0.95 0.95 0.95 0.95 0.95 0.95 0.95 0.95 0.95 0.95 0.95 0.95 0.95 0.95 0.95 0.95 0.95 0.95 0.95 0.95 0.95 0.95 0.95 0.95 0.95 0.95 0.95 0.95 0.95 0.95 0.95 0.95 0.95 0.95 0.951863 0.951274 0.951469 0.951879 0.952423 0.951312 0.951407 0.950469 0.950386 0.950099 0.950062 0.950014 0.950007 0.950001 0.950001 0.95 0.95 0.95 0.95 0.95 0.95 0.95 0.95 0.95 0.95 0.95 0.95 0.95 0.95 0.95 0.95 0.95 0.95 0.95 0.95 0.95 0.95 0.95 0.95 0.95 0.95 0.95 0.95 0.95 0.95 0.95 0.95 0.95 0.95 0.95 0.95 0.95 0.95 0.95 0.95 0.95 0.95 0.95 0.95 0.95 0.951863 0.951274 0.951469 0.951879 0.952423 0.951312 0.951407 0.950469 0.950386 0.950099 0.950062 0.950014 0.950007 0.950001 0.950001 0.95 0.95 0.95 0.95 0.95 0.95 0.95 0.95 0.95 0.95 0.95 0.95 0.95 0.95 0.95 0.95 0.95 0.95 0.95 0.95 0.95 0.95 0.95 0.95 0.95 0.95 0.95 0.95 0.95 0.95 0.95 0.95 0.95 0.95 0.95 0.95 0.95 0.95 0.95 0.95 0.95 0.95 0.95 0.95 0.95 0.951863 0.951274 0.951469 0.951879 0.952423 0.951312 0.951407 0.950469 0.950386 0.950099 0.950062 0.950014 0.950007 0.950001 0.950001 0.95 0.95 0.95 0.95 0.95 0.95 0.95 0.95 0.95 0.95 0.95 0.95 0.95 0.95 0.95 0.95 0.95 0.95 0.95 0.95 0.95 0.95 0.95 0.95 0.95 0.95 0.95 0.95 0.95 0.95 0.95 0.95 0.95 0.95 0.95 0.95 0.95 0.95 0.95 0.95 0.95 0.95 0.95 0.95 0.95 0.951863 0.951274 0.951469 0.951879 0.952423 0.951312 0.951407 0.950469 0.950386 0.950099 0.950062 0.950014 0.950007 0.950001 0.950001 0.95 0.95 0.95 0.95 0.95 0.95 0.95 0.95 0.95 0.95 0.95 0.95 0.95 0.95 0.95 0.95 0.95 0.95 0.95 0.95 0.95 0.95 0.95 0.95 0.95 0.95 0.95 0.95 0.95 0.95 0.95 0.95 0.95 0.95 0.95 0.95 0.95 0.95 0.95 0.95 0.95 0.95 0.95 0.95 0.95 0.951863 0.951274 0.951469 0.951879 0.952423 0.951312 0.951407 0.950469 0.950386 0.950099 0.950062 0.950014 0.950007 0.950001 0.950001 0.95 0.95 0.95 0.95 0.95 0.95 0.95 0.95 0.95 0.95 0.95 0.95 0.95 0.95 0.95 0.95 0.95 0.95 0.95 0.95 0.95 0.95 0.95 0.95 0.95 0.95 0.95 0.95 0.95 0.95 0.95 0.95 0.95 0.95 0.95 0.95 0.95 0.95 0.95 0.95 0.95 0.95 0.95 0.95 0.95 0.951863 0.951274 0.951469 0.951879 0.952423 0.951312 0.951407 0.950469 0.950386 0.950099 0.950062 0.950014 0.950007 0.950001 0.950001 0.95 0.95 0.95 0.95 0.95 0.95 0.95 0.95 0.95 0.95 0.95 0.95 0.95 0.95 0.95 0.95 0.95 0.95 0.95 0.95 0.95 0.95 0.95 0.95 0.95 0.95 0.95 0.95 0.95 0.95 0.95 0.95 0.95 0.95 0.95 0.95 0.95 0.95 0.95 0.95 0.95 0.95 0.95 0.95 0.95 0.951863 0.951274 0.951469 0.951879 0.952423 0.951312 0.951407 0.950469 0.950386 0.950099 0.950062 0.950014 0.950007 0.950001 0.950001 0.95 0.95 0.95 0.95 0.95 0.95 0.95 0.95 0.95 0.95 0.95 0.95 0.95 0.95 0.95 0.95 0.95 0.95 0.95 0.95 0.95 0.95 0.95 0.95 0.95 0.95 0.95 0.95 0.95 0.95 0.95 0.95 0.95 0.95 0.95 0.95 0.95 0.95 0.95 0.95 0.95 0.95 0.95 0.95 0.95 0.951863 0.951274 0.951469 0.951879 0.952423 0.951312 0.951407 0.950469 0.950386 0.950099 0.950062 0.950014 0.950007 0.950001 0.950001 0.95 0.95 0.95 0.95 0.95 0.95 0.95 0.95 0.95 0.95 0.95 0.95 0.95 0.95 0.95 0.95 0.95 0.95 0.95 0.95 0.95 0.95 0.95 0.95 0.95 0.95 0.95 0.95 0.95 0.95 0.95 0.95 0.95 0.95 0.95 0.95 0.95 0.95 0.95 0.95 0.95 0.95 0.95 0.95 0.95 0.951863 0.951274 0.951469 0.951879 0.952423 0.951312 0.951407 0.950469 0.950386 0.950099 0.950062 0.950014 0.950007 0.950001 0.950001 0.95 0.95 0.95 0.95 0.95 0.95 0.95 0.95 0.95 0.95 0.95 0.95 0.95 0.95 0.95 0.95 0.95 0.95 0.95 0.95 0.95 0.95 0.95 0.95 0.95 0.95 0.95 0.95 0.95 0.95 0.95 0.95 0.95 0.95 0.95 0.95 0.95 0.95 0.95 0.95 0.95 0.95 0.95 0.95 0.95 0.951863 0.951274 0.951469 0.951879 0.952423 0.951312 0.951407 0.950469 0.950386 0.950099 0.950062 0.950014 0.950007 0.950001 0.950001 0.95 0.95 0.95 0.95 0.95 0.95 0.95 0.95 0.95 0.95 0.95 0.95 0.95 0.95 0.95 0.95 0.95 0.95 0.95 0.95 0.95 0.95 0.95 0.95 0.95 0.95 0.95 0.95 0.95 0.95 0.95 0.95 0.95 0.95 0.95 0.95 0.95 0.95 0.95 0.95 0.95 0.95 0.95 0.95 0.95 0.951863 0.951274 0.951469 0.951879 0.952423 0.951312 0.951407 0.950469 0.950386 0.950099 0.950062 0.950014 0.950007 0.950001 0.950001 0.95 0.95 0.95 0.95 0.95 0.95 0.95 0.95 0.95 0.95 0.95 0.95 0.95 0.95 0.95 0.95 0.95 0.95 0.95 0.95 0.95 0.95 0.95 0.95 0.95 0.95 0.95 0.95 0.95 0.95 0.95 0.95 0.95 0.95 0.95 0.95 0.95 0.95 0.95 0.95 0.95 0.95 0.95 0.95 0.95 0.951863 0.951274 0.951469 0.951879 0.952423 0.951312 0.951407 0.950469 0.950386 0.950099 0.950062 0.950014 0.950007 0.950001 0.950001 0.95 0.95 0.95 0.95 0.95 0.95 0.95 0.95 0.95 0.95 0.95 0.95 0.95 0.95 0.95 0.95 0.95 0.95 0.95 0.95 0.95 0.95 0.95 0.95 0.95 0.95 0.95 0.95 0.95 0.95 0.95 0.95 0.95 0.95 0.95 0.95 0.95 0.95 0.95 0.95 0.95 0.95 0.95 0.95 0.95 0.951863 0.951274 0.951469 0.951879 0.952423 0.951312 0.951407 0.950469 0.950386 0.950099 0.950062 0.950014 0.950007 0.950001 0.9500